<event>
12    1  0.1013215E-001  0.1858651E+03  0.7546771E-02  0.1162488E+00
         21   -1    0    0  503  502  0.00000000000E+00  0.00000000000E+00  0.13673262794E+04  0.13673262794E+04  0.00000000000E+00 0. -1.
         21   -1    0    0  501  503 -0.00000000000E+00 -0.00000000000E+00 -0.33732110574E+02  0.33732110574E+02  0.00000000000E+00 0. -1.
          6    2    1    2  501    0  0.44685505536E+01  0.64204517303E+02  0.31149054813E+03  0.36219284107E+03  0.17324867839E+03 0.  0.
         24    2    3    3    0    0  0.54981266716E+02  0.71196032707E+02  0.15180690927E+03  0.19449856478E+03  0.81807941153E+02 0.  0.
         -6    2    1    2    0  502 -0.44685505536E+01 -0.64204517303E+02  0.10221036207E+04  0.10388655489E+04  0.17436636508E+03 0.  0.
        -24    2    5    5    0    0  0.17292378291E+02 -0.66564022778E+02  0.33202708985E+03  0.34842596884E+03  0.80180246281E+02 0.  0.
          5    1    3    3  501    0 -0.50512716162E+02 -0.69915154035E+01  0.15968363887E+03  0.16769427630E+03  0.47000000000E+01 0. -1.
        -11    1    4    4    0    0 -0.15180606173E+00  0.14591850548E+02  0.97577614567E+02  0.98662738722E+02  0.00000000000E+00 0.  1.
         12    1    4    4    0    0  0.55133072778E+02  0.56604182159E+02  0.54229294700E+02  0.95835826054E+02  0.00000000000E+00 0. -1.
         -5    1    5    5    0  502 -0.21760928844E+02  0.23595054745E+01  0.69007653087E+03  0.69043958009E+03  0.47000000000E+01 0.  1.
         13    1    6    6    0    0  0.63409967975E+00 -0.76883644791E+02  0.30784383283E+03  0.31730005094E+03  0.00000000000E+00 0. -1.
        -14    1    6    6    0    0  0.16658278611E+02  0.10319622013E+02  0.24183257020E+02  0.31125917896E+02  0.00000000000E+00 0.  1.
<mgrwt>
<rscale>  2 0.18560246E+03</rscale>
<asrwt>0</asrwt>
<pdfrwt beam="1">  1       21 0.21035785E+00 0.18586505E+03</pdfrwt>
<pdfrwt beam="2">  1       21 0.51895565E-02 0.18586505E+03</pdfrwt>
<totfact> 0.29299927E+04</totfact>
</mgrwt>
</event>
<event>
12    1  0.1013215E-001  0.1807575E+03  0.7546771E-02  0.1167537E+00
         21   -1    0    0  503  502  0.00000000000E+00  0.00000000000E+00  0.22381591524E+03  0.22381591524E+03  0.00000000000E+00 0.  1.
         21   -1    0    0  501  503 -0.00000000000E+00 -0.00000000000E+00 -0.16191860871E+03  0.16191860871E+03  0.00000000000E+00 0.  1.
          6    2    1    2  501    0  0.47304310470E+02  0.10560379373E+02 -0.32573700953E+02  0.18177855304E+03  0.17214289689E+03 0.  0.
         24    2    3    3    0    0  0.93626185752E+02 -0.16413096226E+02 -0.24682039213E+02  0.12739424611E+03  0.81147017786E+02 0.  0.
         -6    2    1    2    0  502 -0.47304310470E+02 -0.10560379373E+02  0.94471007481E+02  0.20395597092E+03  0.17413801255E+03 0.  0.
        -24    2    5    5    0    0 -0.24031184106E+00 -0.68372312358E+02  0.61453519927E+02  0.12228906179E+03  0.80642722387E+02 0.  0.
          5    1    3    3  501    0 -0.46321875282E+02  0.26973475598E+02 -0.78916617405E+01  0.54384306932E+02  0.47000000000E+01 0. -1.
        -13    1    4    4    0    0  0.59483588042E+02  0.30369533105E+02 -0.17435286069E+02  0.69026045720E+02  0.00000000000E+00 0.  1.
         14    1    4    4    0    0  0.34142597710E+02 -0.46782629330E+02 -0.72467531438E+01  0.58368200388E+02  0.00000000000E+00 0. -1.
         -5    1    5    5    0  502 -0.47063998629E+02  0.57811932985E+02  0.33017487554E+02  0.81666909130E+02  0.47000000000E+01 0.  1.
         11    1    6    6    0    0  0.29977419344E+02 -0.34217096510E+01  0.39519002259E+01  0.30429776254E+02  0.00000000000E+00 0. -1.
        -12    1    6    6    0    0 -0.30217731185E+02 -0.64950602707E+02  0.57501619701E+02  0.91859285531E+02  0.00000000000E+00 0.  1.
<mgrwt>
<rscale>  2 0.18027524E+03</rscale>
<asrwt>0</asrwt>
<pdfrwt beam="1">  1       21 0.34433218E-01 0.18075748E+03</pdfrwt>
<pdfrwt beam="2">  1       21 0.24910555E-01 0.18075748E+03</pdfrwt>
<totfact> 0.12447346E+05</totfact>
</mgrwt>
</event>
<event>
12    1  0.1013215E-001  0.1832543E+03  0.7546771E-02  0.1167626E+00
         21   -1    0    0  501  502  0.00000000000E+00  0.00000000000E+00  0.14991069837E+03  0.14991069837E+03  0.00000000000E+00 0. -1.
         21   -1    0    0  502  503 -0.00000000000E+00 -0.00000000000E+00 -0.21650400564E+03  0.21650400564E+03  0.00000000000E+00 0. -1.
         -6    2    1    2    0  503  0.52150196087E+02 -0.30183933509E+02 -0.17071400030E+01  0.18326226133E+03  0.17306481245E+03 0.  0.
        -24    2    3    3    0    0  0.98093379617E+02 -0.70036100787E+01 -0.16886931421E+02  0.12940486096E+03  0.82395921681E+02 0.  0.
          6    2    1    2  501    0 -0.52150196087E+02  0.30183933509E+02 -0.64886167261E+02  0.18315244268E+03  0.16032432680E+03 0.  0.
         24    2    5    5    0    0 -0.24151133024E+02 -0.14497572125E+02 -0.88801210379E+02  0.12506282428E+03  0.83436192554E+02 0.  0.
          5    1    5    5  501    0 -0.27999063063E+02  0.44681505635E+02  0.23915043118E+02  0.58089618397E+02  0.47000000000E+01 0. -1.
        -11    1    6    6    0    0 -0.23880573378E+02 -0.48140722312E+02 -0.46901292319E+02  0.71327008565E+02  0.00000000000E+00 0.  1.
         12    1    6    6    0    0 -0.27055964562E+00  0.33643150187E+02 -0.41899918060E+02  0.53735815714E+02  0.00000000000E+00 0. -1.
         -5    1    3    3    0  503 -0.45943183529E+02 -0.23180323431E+02  0.15179791418E+02  0.53857400370E+02  0.47000000000E+01 0.  1.
         11    1    4    4    0    0  0.64454180685E+02 -0.25327826486E+02  0.24079607870E+02  0.73318945147E+02  0.00000000000E+00 0. -1.
        -12    1    4    4    0    0  0.33639198932E+02  0.18324216407E+02 -0.40966539291E+02  0.56085915818E+02  0.00000000000E+00 0.  1.
<mgrwt>
<rscale>  2 0.18018273E+03</rscale>
<asrwt>0</asrwt>
<pdfrwt beam="1">  1       21 0.23063184E-01 0.18325431E+03</pdfrwt>
<pdfrwt beam="2">  1       21 0.33308308E-01 0.18325431E+03</pdfrwt>
<totfact> 0.15371451E+05</totfact>
</mgrwt>
</event>
<event>
12    1  0.1013215E-001  0.2337006E+03  0.7546771E-02  0.1124249E+00
         21   -1    0    0  503  502  0.00000000000E+00  0.00000000000E+00  0.49212317523E+03  0.49212317523E+03  0.00000000000E+00 0.  1.
         21   -1    0    0  501  503 -0.00000000000E+00 -0.00000000000E+00 -0.13616922971E+03  0.13616922971E+03  0.00000000000E+00 0.  1.
          6    2    1    2  501    0 -0.81089731523E+02 -0.13275166110E+03  0.41827731629E+02  0.23741429607E+03  0.17440596539E+03 0.  0.
         24    2    3    3    0    0 -0.28809556350E+02  0.27783305432E+01 -0.20429987530E+01  0.85597543586E+02  0.80529845190E+02 0.  0.
         -6    2    1    2    0  502  0.81089731523E+02  0.13275166110E+03  0.31412621390E+03  0.39087810887E+03  0.17295048325E+03 0.  0.
        -24    2    5    5    0    0  0.39157349592E+02  0.15158609976E+03  0.19151119131E+03  0.25984530955E+03  0.79570125251E+02 0.  0.
          5    1    3    3  501    0 -0.52280175172E+02 -0.13552999164E+03  0.43870730382E+02  0.15181675248E+03  0.47000000000E+01 0. -1.
        -11    1    4    4    0    0 -0.22979199338E+02 -0.37777712698E+02  0.29793370698E+01  0.44317892868E+02  0.00000000000E+00 0.  1.
         12    1    4    4    0    0 -0.58303570118E+01  0.40556043241E+02 -0.50223358228E+01  0.41279650717E+02  0.00000000000E+00 0. -1.
         -5    1    5    5    0  502  0.41932381930E+02 -0.18834438661E+02  0.12261502259E+03  0.13103279932E+03  0.47000000000E+01 0.  1.
         13    1    6    6    0    0 -0.17938267974E+02  0.70085172211E+02  0.10770471946E+03  0.12974598034E+03  0.00000000000E+00 0. -1.
        -14    1    6    6    0    0  0.57095617566E+02  0.81500927548E+02  0.83806471851E+02  0.13009932921E+03  0.00000000000E+00 0.  1.
<mgrwt>
<rscale>  2 0.23342912E+03</rscale>
<asrwt>0</asrwt>
<pdfrwt beam="1">  1       21 0.75711257E-01 0.23370064E+03</pdfrwt>
<pdfrwt beam="2">  1       21 0.20949113E-01 0.23370064E+03</pdfrwt>
<totfact> 0.32253474E+04</totfact>
</mgrwt>
</event>
<event>
12    1  0.1013215E-001  0.2239763E+03  0.7546771E-02  0.1131271E+00
         21   -1    0    0  503  502  0.00000000000E+00  0.00000000000E+00  0.69398559705E+02  0.69398559705E+02  0.00000000000E+00 0.  1.
         21   -1    0    0  501  503 -0.00000000000E+00 -0.00000000000E+00 -0.79282967873E+03  0.79282967873E+03  0.00000000000E+00 0.  1.
          6    2    1    2  501    0  0.12731440885E+02  0.14252948230E+03 -0.22988624590E+03  0.32095646077E+03  0.17230386165E+03 0.  0.
         24    2    3    3    0    0  0.11012886432E+01  0.16582284009E+02 -0.22109489059E+02  0.77663986811E+02  0.72571897875E+02 0.  0.
         -6    2    1    2    0  502 -0.12731440885E+02 -0.14252948230E+03 -0.49354487312E+03  0.54127177767E+03  0.17003485702E+03 0.  0.
        -24    2    5    5    0    0  0.45556219661E+02 -0.89161533332E+02 -0.20287634474E+03  0.24001462382E+03  0.80143996777E+02 0.  0.
          5    1    3    3  501    0  0.11630152242E+02  0.12594719829E+03 -0.20777675684E+03  0.24329247396E+03  0.47000000000E+01 0. -1.
        -11    1    4    4    0    0  0.36639684329E+02  0.51815277152E+01 -0.13246583428E+02  0.39303774243E+02  0.00000000000E+00 0.  1.
         12    1    4    4    0    0 -0.35538395686E+02  0.11400756294E+02 -0.88629056306E+01  0.38360212568E+02  0.00000000000E+00 0. -1.
         -5    1    5    5    0  502 -0.58287660546E+02 -0.53367948970E+02 -0.29066852839E+03  0.30125715385E+03  0.47000000000E+01 0.  1.
         11    1    6    6    0    0  0.61687085626E+02 -0.89138784173E+02 -0.19222603667E+03  0.22068499847E+03  0.00000000000E+00 0. -1.
        -12    1    6    6    0    0 -0.16130865966E+02 -0.22749159149E-01 -0.10650308070E+02  0.19329625353E+02  0.00000000000E+00 0.  1.
<mgrwt>
<rscale>  2 0.22353978E+03</rscale>
<asrwt>0</asrwt>
<pdfrwt beam="1">  1       21 0.10676702E-01 0.22397626E+03</pdfrwt>
<pdfrwt beam="2">  1       21 0.12197379E+00 0.22397626E+03</pdfrwt>
<totfact> 0.36019531E+04</totfact>
</mgrwt>
</event>
<event>
12    1  0.1013215E-001  0.1788396E+03  0.7546771E-02  0.1169174E+00
         21   -1    0    0  503  502  0.00000000000E+00  0.00000000000E+00  0.61468351977E+03  0.61468351977E+03  0.00000000000E+00 0. -1.
         21   -1    0    0  501  503 -0.00000000000E+00 -0.00000000000E+00 -0.58803815234E+02  0.58803815234E+02  0.00000000000E+00 0. -1.
          6    2    1    2  501    0  0.40260284588E+02 -0.13178420428E+02  0.16057973083E+03  0.23961447826E+03  0.17272720389E+03 0.  0.
         24    2    3    3    0    0  0.62923859542E+02 -0.55962849099E+02  0.68182796994E+02  0.13519499566E+03  0.80855058383E+02 0.  0.
         -6    2    1    2    0  502 -0.40260284588E+02  0.13178420428E+02  0.39529997371E+03  0.43387285674E+03  0.17374989301E+03 0.  0.
        -24    2    5    5    0    0 -0.12199144645E+02  0.25494534493E+02  0.39348906451E+03  0.40281671994E+03  0.81417906856E+02 0.  0.
          5    1    3    3  501    0 -0.22663574955E+02  0.42784428671E+02  0.92396933831E+02  0.10441948261E+03  0.47000000000E+01 0. -1.
        -13    1    4    4    0    0  0.16613282110E+02  0.19104501377E+02  0.29468970841E+01  0.25488572297E+02  0.00000000000E+00 0.  1.
         14    1    4    4    0    0  0.46310577432E+02 -0.75067350476E+02  0.65235899910E+02  0.10970642336E+03  0.00000000000E+00 0. -1.
         -5    1    5    5    0  502 -0.28061139942E+02 -0.12316114065E+02  0.18109091976E+01  0.31056136795E+02  0.47000000000E+01 0.  1.
         13    1    6    6    0    0  0.29206557088E+02  0.32637126516E+02  0.18216823992E+03  0.18735920751E+03  0.00000000000E+00 0. -1.
        -14    1    6    6    0    0 -0.41405701734E+02 -0.71425920238E+01  0.21132082459E+03  0.21545751243E+03  0.00000000000E+00 0.  1.
<mgrwt>
<rscale>  2 0.17859068E+03</rscale>
<asrwt>0</asrwt>
<pdfrwt beam="1">  1       21 0.94566691E-01 0.17883956E+03</pdfrwt>
<pdfrwt beam="2">  1       21 0.90467412E-02 0.17883956E+03</pdfrwt>
<totfact> 0.91159200E+04</totfact>
</mgrwt>
</event>
<event>
12    1  0.1013215E-001  0.2005590E+03  0.7546771E-02  0.1149693E+00
         21   -1    0    0  501  502  0.00000000000E+00  0.00000000000E+00  0.70327698110E+03  0.70327698110E+03  0.00000000000E+00 0.  1.
         21   -1    0    0  502  503 -0.00000000000E+00 -0.00000000000E+00 -0.57469998659E+02  0.57469998659E+02  0.00000000000E+00 0. -1.
         -6    2    1    2    0  503  0.87287320287E+02 -0.42615009295E+02  0.27832324113E+03  0.34305646302E+03  0.17546736154E+03 0.  0.
        -24    2    3    3    0    0  0.81070025316E+02 -0.92119757243E+02  0.23051105490E+03  0.27379269198E+03  0.82272067387E+02 0.  0.
          6    2    1    2  501    0 -0.87287320287E+02  0.42615009295E+02  0.36748374131E+03  0.41769051674E+03  0.17316452393E+03 0.  0.
         24    2    5    5    0    0 -0.74483262005E+02  0.15762635727E+02  0.37157437024E+03  0.38729615674E+03  0.78323581388E+02 0.  0.
          5    1    5    5  501    0 -0.12804058282E+02  0.26852373568E+02 -0.40906289307E+01  0.30394360000E+02  0.47000000000E+01 0. -1.
        -11    1    6    6    0    0 -0.63922953074E+02 -0.16844815113E+02  0.16250552017E+03  0.17543641529E+03  0.00000000000E+00 0.  1.
         12    1    6    6    0    0 -0.10560308931E+02  0.32607450840E+02  0.20906885007E+03  0.21185974145E+03  0.00000000000E+00 0. -1.
         -5    1    3    3    0  503  0.62172949706E+01  0.49504747948E+02  0.47812186229E+02  0.69263771036E+02  0.47000000000E+01 0.  1.
         13    1    4    4    0    0  0.37283456831E+02 -0.19590708391E+02  0.19506717319E+02  0.46415127158E+02  0.00000000000E+00 0. -1.
        -14    1    4    4    0    0  0.43786568485E+02 -0.72529048852E+02  0.21100433758E+03  0.22737756482E+03  0.00000000000E+00 0.  1.
<mgrwt>
<rscale>  2 0.20005419E+03</rscale>
<asrwt>0</asrwt>
<pdfrwt beam="1">  1       21 0.10819645E+00 0.20055899E+03</pdfrwt>
<pdfrwt beam="2">  1       21 0.88415388E-02 0.20055899E+03</pdfrwt>
<totfact> 0.68235547E+04</totfact>
</mgrwt>
</event>
<event>
12    1  0.1013215E-001  0.2609624E+03  0.7546771E-02  0.1106575E+00
         21   -1    0    0  503  502  0.00000000000E+00  0.00000000000E+00  0.89541076910E+02  0.89541076910E+02  0.00000000000E+00 0.  1.
         21   -1    0    0  501  503 -0.00000000000E+00 -0.00000000000E+00 -0.89708221249E+03  0.89708221249E+03  0.00000000000E+00 0.  1.
          6    2    1    2  501    0  0.43341399791E+02  0.19034679021E+03 -0.59629999450E+03  0.65087901861E+03  0.17308794282E+03 0.  0.
         24    2    3    3    0    0 -0.25898535596E+01  0.11340913401E+03 -0.19223784825E+03  0.23697396789E+03  0.79579721931E+02 0.  0.
         -6    2    1    2    0  502 -0.43341399791E+02 -0.19034679021E+03 -0.21124114108E+03  0.33574427079E+03  0.17317915061E+03 0.  0.
        -24    2    5    5    0    0 -0.89320656051E+02 -0.17469227765E+03 -0.17167752817E+03  0.27292289516E+03  0.80735132109E+02 0.  0.
          5    1    3    3  501    0  0.45931253351E+02  0.76937656200E+02 -0.40406214625E+03  0.41390505072E+03  0.47000000000E+01 0. -1.
        -11    1    4    4    0    0  0.35832306447E+02  0.52034377986E+02 -0.11424277693E+03  0.13054862220E+03  0.00000000000E+00 0.  1.
         12    1    4    4    0    0 -0.38422160007E+02  0.61374756019E+02 -0.77995071321E+02  0.10642534570E+03  0.00000000000E+00 0. -1.
         -5    1    5    5    0  502  0.45979256259E+02 -0.15654512558E+02 -0.39563612910E+02  0.62821375630E+02  0.47000000000E+01 0.  1.
         13    1    6    6    0    0 -0.32642613853E+02 -0.10554106131E+03 -0.48341570059E+02  0.12058757505E+03  0.00000000000E+00 0. -1.
        -14    1    6    6    0    0 -0.56678042198E+02 -0.69151216337E+02 -0.12333595811E+03  0.15233532011E+03  0.00000000000E+00 0.  1.
<mgrwt>
<rscale>  2 0.26094731E+03</rscale>
<asrwt>0</asrwt>
<pdfrwt beam="1">  1       21 0.13775550E-01 0.26096244E+03</pdfrwt>
<pdfrwt beam="2">  1       21 0.13801265E+00 0.26096244E+03</pdfrwt>
<totfact> 0.16311352E+04</totfact>
</mgrwt>
</event>
<event>
12    1  0.1013215E-001  0.1746660E+03  0.7546771E-02  0.1173082E+00
         21   -1    0    0  503  502  0.00000000000E+00  0.00000000000E+00  0.96319411043E+02  0.96319411043E+02  0.00000000000E+00 0. -1.
         21   -1    0    0  501  503 -0.00000000000E+00 -0.00000000000E+00 -0.32144528085E+03  0.32144528085E+03  0.00000000000E+00 0. -1.
          6    2    1    2  501    0 -0.23752141620E+02 -0.94386060594E+01 -0.87024427336E+02  0.19514469231E+03  0.17278584568E+03 0.  0.
         24    2    3    3    0    0  0.47600580819E+02  0.28029945269E+02 -0.51242190167E+02  0.10684088811E+03  0.75747740520E+02 0.  0.
         -6    2    1    2    0  502  0.23752141620E+02  0.94386060594E+01 -0.13810144247E+03  0.22261999959E+03  0.17272638561E+03 0.  0.
        -24    2    5    5    0    0 -0.38621037533E+02  0.31039480326E+02 -0.39707832906E+02  0.10404342665E+03  0.82421409567E+02 0.  0.
          5    1    3    3  501    0 -0.71352722439E+02 -0.37468551329E+02 -0.35782237169E+02  0.88303804193E+02  0.47000000000E+01 0. -1.
        -11    1    4    4    0    0 -0.41401722162E+01  0.11804392956E+02 -0.51106813917E+02  0.52615502922E+02  0.00000000000E+00 0.  1.
         12    1    4    4    0    0  0.51740753035E+02  0.16225552313E+02 -0.13537625025E+00  0.54225385192E+02  0.00000000000E+00 0. -1.
         -5    1    5    5    0  502  0.62373179153E+02 -0.21600874267E+02 -0.98393609567E+02  0.11857657294E+03  0.47000000000E+01 0.  1.
         13    1    6    6    0    0  0.60913667213E+01 -0.24205741055E+02 -0.79228678179E+01  0.26187678076E+02  0.00000000000E+00 0. -1.
        -14    1    6    6    0    0 -0.44712404254E+02  0.55245221381E+02 -0.31784965088E+02  0.77855748569E+02  0.00000000000E+00 0.  1.
<mgrwt>
<rscale>  2 0.17465126E+03</rscale>
<asrwt>0</asrwt>
<pdfrwt beam="1">  1       21 0.14818371E-01 0.17466597E+03</pdfrwt>
<pdfrwt beam="2">  1       21 0.49453121E-01 0.17466597E+03</pdfrwt>
<totfact> 0.15727938E+05</totfact>
</mgrwt>
</event>
<event>
12    1  0.1013215E-001  0.1827735E+03  0.7546771E-02  0.1165457E+00
         21   -1    0    0  501  502  0.00000000000E+00  0.00000000000E+00  0.10637811826E+03  0.10637811826E+03  0.00000000000E+00 0. -1.
         21   -1    0    0  502  503 -0.00000000000E+00 -0.00000000000E+00 -0.40172265928E+03  0.40172265928E+03  0.00000000000E+00 0. -1.
         -6    2    1    2    0  503  0.42669749404E+02  0.38284376925E+02 -0.26828845630E+03  0.32463030172E+03  0.17355038456E+03 0.  0.
        -24    2    3    3    0    0 -0.16219630837E+02  0.76746943262E+02 -0.16990987135E+03  0.20360235415E+03  0.80195913310E+02 0.  0.
          6    2    1    2  501    0 -0.42669749404E+02 -0.38284376925E+02 -0.27056084722E+02  0.18347047583E+03  0.17217137611E+03 0.  0.
         24    2    5    5    0    0 -0.57677950753E+02 -0.27354389310E+02  0.42167312678E+02  0.11164652798E+03  0.81313321998E+02 0.  0.
          5    1    5    5  501    0  0.15008201350E+02 -0.10929987615E+02 -0.69223397401E+02  0.71823947850E+02  0.47000000000E+01 0. -1.
        -11    1    6    6    0    0 -0.14635104635E+02  0.19180609681E+02  0.41792091152E+02  0.48256201242E+02  0.00000000000E+00 0.  1.
         12    1    6    6    0    0 -0.43042846118E+02 -0.46534998991E+02  0.37522152626E+00  0.63390326741E+02  0.00000000000E+00 0. -1.
         -5    1    3    3    0  503  0.58889380240E+02 -0.38462566337E+02 -0.98378584952E+02  0.12102794756E+03  0.47000000000E+01 0.  1.
         13    1    4    4    0    0  0.15092312029E+02  0.18997821748E+02 -0.11632291581E+03  0.11882641060E+03  0.00000000000E+00 0. -1.
        -14    1    4    4    0    0 -0.31311942865E+02  0.57749121515E+02 -0.53586955534E+02  0.84775943552E+02  0.00000000000E+00 0.  1.
<mgrwt>
<rscale>  2 0.18244535E+03</rscale>
<asrwt>0</asrwt>
<pdfrwt beam="1">  1       21 0.16365865E-01 0.18277346E+03</pdfrwt>
<pdfrwt beam="2">  1       21 0.61803485E-01 0.18277346E+03</pdfrwt>
<totfact> 0.81659644E+04</totfact>
</mgrwt>
</event>
<event>
12    1  0.1013215E-001  0.2043969E+03  0.7546771E-02  0.1146330E+00
         21   -1    0    0  501  502  0.00000000000E+00  0.00000000000E+00  0.45220412733E+03  0.45220412733E+03  0.00000000000E+00 0.  1.
         21   -1    0    0  502  503 -0.00000000000E+00 -0.00000000000E+00 -0.33738604064E+03  0.33738604064E+03  0.00000000000E+00 0.  1.
         -6    2    1    2    0  503  0.94255650119E+02 -0.53533973165E+02 -0.27943640361E+03  0.34550157188E+03  0.17186220831E+03 0.  0.
        -24    2    3    3    0    0  0.10392469425E+03 -0.73968802353E+02 -0.14526591880E+03  0.20935869967E+03  0.80356407141E+02 0.  0.
          6    2    1    2  501    0 -0.94255650119E+02  0.53533973165E+02  0.39425449029E+03  0.44408859609E+03  0.17328607619E+03 0.  0.
         24    2    5    5    0    0 -0.40263111840E+01  0.22791523139E+02  0.78895217643E+02  0.11460416143E+03  0.79837295432E+02 0.  0.
          5    1    5    5  501    0 -0.90229338935E+02  0.30742450026E+02  0.31535927265E+03  0.32948443466E+03  0.47000000000E+01 0. -1.
        -11    1    6    6    0    0 -0.33003802475E+02 -0.17319429811E+01  0.67190908614E+02  0.74879027803E+02  0.00000000000E+00 0.  1.
         12    1    6    6    0    0  0.28977491291E+02  0.24523466120E+02  0.11704309029E+02  0.39725133629E+02  0.00000000000E+00 0. -1.
         -5    1    3    3    0  503 -0.96690441265E+01  0.20434829188E+02 -0.13417048481E+03  0.13614287220E+03  0.47000000000E+01 0.  1.
         13    1    4    4    0    0  0.30690323723E+02 -0.60013836950E+02 -0.34184515906E+02  0.75578685642E+02  0.00000000000E+00 0. -1.
        -14    1    4    4    0    0  0.73234370522E+02 -0.13954965403E+02 -0.11108140290E+03  0.13378001403E+03  0.00000000000E+00 0.  1.
<mgrwt>
<rscale>  2 0.20409476E+03</rscale>
<asrwt>0</asrwt>
<pdfrwt beam="1">  1       21 0.69569866E-01 0.20439686E+03</pdfrwt>
<pdfrwt beam="2">  1       21 0.51905544E-01 0.20439686E+03</pdfrwt>
<totfact> 0.65611281E+03</totfact>
</mgrwt>
</event>
<event>
12    1  0.1013215E-001  0.1743777E+03  0.7546771E-02  0.1173497E+00
         21   -1    0    0  503  502  0.00000000000E+00  0.00000000000E+00  0.91837105390E+02  0.91837105390E+02  0.00000000000E+00 0. -1.
         21   -1    0    0  501  503 -0.00000000000E+00 -0.00000000000E+00 -0.33322255071E+03  0.33322255071E+03  0.00000000000E+00 0. -1.
          6    2    1    2  501    0 -0.19629756606E+02 -0.40542718665E+01 -0.14120257719E+03  0.22395228056E+03  0.17266931314E+03 0.  0.
         24    2    3    3    0    0  0.13366255468E+02 -0.56981070818E+02 -0.50357055870E+02  0.11365730514E+03  0.83406538826E+02 0.  0.
         -6    2    1    2    0  502  0.19629756606E+02  0.40542718665E+01 -0.10018286813E+03  0.20110737554E+03  0.17322183743E+03 0.  0.
        -24    2    5    5    0    0  0.17691372274E+02 -0.45758161788E+02 -0.45311469386E+01  0.93142669972E+02  0.79045756710E+02 0.  0.
          5    1    3    3  501    0 -0.32996012074E+02  0.52926798952E+02 -0.90845521317E+02  0.11029497542E+03  0.47000000000E+01 0. -1.
        -13    1    4    4    0    0  0.47470607746E+02 -0.21593739420E+02 -0.32047590865E+02  0.61211079570E+02  0.00000000000E+00 0.  1.
         14    1    4    4    0    0 -0.34104352278E+02 -0.35387331399E+02 -0.18309465005E+02  0.52446225570E+02  0.00000000000E+00 0. -1.
         -5    1    5    5    0  502  0.19383843325E+01  0.49812433654E+02 -0.95651721192E+02  0.10796470556E+03  0.47000000000E+01 0.  1.
         13    1    6    6    0    0  0.45233820081E+02 -0.23890466789E+02 -0.19733707685E+02  0.54829482047E+02  0.00000000000E+00 0. -1.
        -14    1    6    6    0    0 -0.27542447808E+02 -0.21867694998E+02  0.15202560746E+02  0.38313187925E+02  0.00000000000E+00 0.  1.
<mgrwt>
<rscale>  2 0.17424029E+03</rscale>
<asrwt>0</asrwt>
<pdfrwt beam="1">  1       21 0.14128785E-01 0.17437766E+03</pdfrwt>
<pdfrwt beam="2">  1       21 0.51265008E-01 0.17437766E+03</pdfrwt>
<totfact> 0.15909806E+05</totfact>
</mgrwt>
</event>
<event>
12    1  0.1013215E-001  0.3169257E+03  0.7546771E-02  0.1077128E+00
         21   -1    0    0  503  502  0.00000000000E+00  0.00000000000E+00  0.10175888579E+04  0.10175888579E+04  0.00000000000E+00 0. -1.
         21   -1    0    0  501  503 -0.00000000000E+00 -0.00000000000E+00 -0.13682237927E+03  0.13682237927E+03  0.00000000000E+00 0.  1.
          6    2    1    2  501    0  0.18243625927E+03  0.19170850728E+03  0.13537649236E+03  0.34462832712E+03  0.17437530991E+03 0.  0.
         24    2    3    3    0    0  0.12878888384E+03  0.18666537919E+03  0.15603989073E+03  0.28672720395E+03  0.80209111702E+02 0.  0.
         -6    2    1    2    0  502 -0.18243625927E+03 -0.19170850728E+03  0.74538998629E+03  0.80978291008E+03  0.17351365747E+03 0.  0.
        -24    2    5    5    0    0 -0.15796399929E+03 -0.20976210775E+03  0.71741501553E+03  0.76819549627E+03  0.80543460696E+02 0.  0.
          5    1    3    3  501    0  0.53647375436E+02  0.50431280864E+01 -0.20663398362E+02  0.57901123166E+02  0.47000000000E+01 0. -1.
        -13    1    4    4    0    0  0.73037318307E+02  0.11813118977E+03  0.47516671818E+02  0.14678985647E+03  0.00000000000E+00 0.  1.
         14    1    4    4    0    0  0.55751565530E+02  0.68534189428E+02  0.10852321891E+03  0.13993734749E+03  0.00000000000E+00 0. -1.
         -5    1    5    5    0  502 -0.24472259979E+02  0.18053600466E+02  0.27974970766E+02  0.41587413813E+02  0.47000000000E+01 0.  1.
         11    1    6    6    0    0 -0.18371260400E+01 -0.85340970521E+01  0.99033419066E+02  0.99417422701E+02  0.00000000000E+00 0. -1.
        -12    1    6    6    0    0 -0.15612687325E+03 -0.20122801069E+03  0.61838159646E+03  0.66877807357E+03  0.00000000000E+00 0.  1.
<mgrwt>
<rscale>  2 0.31680730E+03</rscale>
<asrwt>0</asrwt>
<pdfrwt beam="1">  1       21 0.15655213E+00 0.31692568E+03</pdfrwt>
<pdfrwt beam="2">  1       21 0.21049597E-01 0.31692568E+03</pdfrwt>
<totfact> 0.51533838E+03</totfact>
</mgrwt>
</event>
<event>
12    1  0.1013215E-001  0.1846739E+03  0.7546771E-02  0.1163717E+00
         21   -1    0    0  503  502  0.00000000000E+00  0.00000000000E+00  0.26316880484E+03  0.26316880484E+03  0.00000000000E+00 0. -1.
         21   -1    0    0  501  503 -0.00000000000E+00 -0.00000000000E+00 -0.82812587094E+03  0.82812587094E+03  0.00000000000E+00 0. -1.
          6    2    1    2  501    0 -0.50666226743E+01 -0.61402386885E+02 -0.78418642882E+03  0.80563814123E+03  0.17409346825E+03 0.  0.
         24    2    3    3    0    0  0.42552790829E+02 -0.90782950981E+02 -0.53979317282E+03  0.55487733954E+03  0.80373554824E+02 0.  0.
         -6    2    1    2    0  502  0.50666226743E+01  0.61402386885E+02  0.21922936272E+03  0.28565653455E+03  0.17245932410E+03 0.  0.
        -24    2    5    5    0    0 -0.16768719138E+02  0.58761461072E+02  0.23618456080E+03  0.25749050211E+03  0.82365725103E+02 0.  0.
          5    1    3    3  501    0 -0.47619413503E+02  0.29380564096E+02 -0.24439325600E+03  0.25076080170E+03  0.47000000000E+01 0. -1.
        -13    1    4    4    0    0  0.87349963230E+01 -0.91519071217E+02 -0.33852724982E+03  0.35078873903E+03  0.00000000000E+00 0.  1.
         14    1    4    4    0    0  0.33817794506E+02  0.73612023629E+00 -0.20126592300E+03  0.20408860051E+03  0.00000000000E+00 0. -1.
         -5    1    5    5    0  502  0.21835341813E+02  0.26409258134E+01 -0.16955198076E+02  0.28166032433E+02  0.47000000000E+01 0.  1.
         13    1    6    6    0    0 -0.16265711609E+02  0.72243994931E+02  0.12349225650E+03  0.14399342205E+03  0.00000000000E+00 0. -1.
        -14    1    6    6    0    0 -0.50300752926E+00 -0.13482533859E+02  0.11269230430E+03  0.11349708007E+03  0.00000000000E+00 0.  1.
<mgrwt>
<rscale>  2 0.18428779E+03</rscale>
<asrwt>0</asrwt>
<pdfrwt beam="1">  1       21 0.40487509E-01 0.18467393E+03</pdfrwt>
<pdfrwt beam="2">  1       21 0.12740398E+00 0.18467393E+03</pdfrwt>
<totfact> 0.26924561E+03</totfact>
</mgrwt>
</event>
<event>
12    1  0.1013215E-001  0.1857014E+03  0.7546771E-02  0.1162791E+00
         21   -1    0    0  501  502  0.00000000000E+00  0.00000000000E+00  0.94376205898E+02  0.94376205898E+02  0.00000000000E+00 0. -1.
         21   -1    0    0  502  503 -0.00000000000E+00 -0.00000000000E+00 -0.49881776176E+03  0.49881776176E+03  0.00000000000E+00 0. -1.
         -6    2    1    2    0  503  0.27717521213E+02  0.56507912314E+02 -0.35817983744E+03  0.40345732360E+03  0.17471007663E+03 0.  0.
        -24    2    3    3    0    0  0.54591381931E+02  0.92105857031E+02 -0.30601369118E+03  0.33466186682E+03  0.83008903315E+02 0.  0.
          6    2    1    2  501    0 -0.27717521213E+02 -0.56507912314E+02 -0.46261718421E+02  0.18973664406E+03  0.17291166060E+03 0.  0.
         24    2    5    5    0    0  0.52102373960E+02 -0.46490711818E+02 -0.63709605481E+02  0.10728618176E+03  0.50748076894E+02 0.  0.
          5    1    5    5  501    0 -0.79819895172E+02 -0.10017200495E+02  0.17447887060E+02  0.82450462303E+02  0.47000000000E+01 0. -1.
        -13    1    6    6    0    0  0.49170583221E+02 -0.13201975446E+02 -0.49381280531E+02  0.70926365175E+02  0.00000000000E+00 0.  1.
         14    1    6    6    0    0  0.29317907386E+01 -0.33288736373E+02 -0.14328324950E+02  0.36359816585E+02  0.00000000000E+00 0. -1.
         -5    1    3    3    0  503 -0.26873860719E+02 -0.35597944717E+02 -0.52166146258E+02  0.68795456779E+02  0.47000000000E+01 0.  1.
         13    1    4    4    0    0  0.42373575003E+02  0.73016742958E+01 -0.57541456843E+02  0.71832120683E+02  0.00000000000E+00 0. -1.
        -14    1    4    4    0    0  0.12217806928E+02  0.84804182735E+02 -0.24847223434E+03  0.26282974614E+03  0.00000000000E+00 0.  1.
<mgrwt>
<rscale>  2 0.18527722E+03</rscale>
<asrwt>0</asrwt>
<pdfrwt beam="1">  1       21 0.14519416E-01 0.18570142E+03</pdfrwt>
<pdfrwt beam="2">  1       21 0.76741194E-01 0.18570142E+03</pdfrwt>
<totfact> 0.63059016E+04</totfact>
</mgrwt>
</event>
<event>
12    1  0.1013215E-001  0.2708362E+03  0.7546771E-02  0.1100973E+00
         21   -1    0    0  503  502  0.00000000000E+00  0.00000000000E+00  0.91713603250E+03  0.91713603250E+03  0.00000000000E+00 0.  1.
         21   -1    0    0  501  503 -0.00000000000E+00 -0.00000000000E+00 -0.18602769591E+03  0.18602769591E+03  0.00000000000E+00 0. -1.
          6    2    1    2  501    0 -0.20614372162E+03  0.11601297161E+02 -0.51250815936E+02  0.27564265279E+03  0.17527807006E+03 0.  0.
         24    2    3    3    0    0 -0.18658026582E+03 -0.27764215492E+02  0.52080287061E+01  0.20393446966E+03  0.77324621545E+02 0.  0.
         -6    2    1    2    0  502  0.20614372162E+03 -0.11601297161E+02  0.78235915253E+03  0.82752107562E+03  0.17342278680E+03 0.  0.
        -24    2    5    5    0    0  0.61248628859E+02  0.52504014928E+02  0.27926395880E+03  0.30004506394E+03  0.74368108668E+02 0.  0.
          5    1    3    3  501    0 -0.19563455803E+02  0.39365512653E+02 -0.56458844642E+02  0.71708183129E+02  0.47000000000E+01 0. -1.
        -13    1    4    4    0    0 -0.56251982541E+02 -0.44602982779E+02  0.97262488732E+01  0.72445231242E+02  0.00000000000E+00 0.  1.
         14    1    4    4    0    0 -0.13032828328E+03  0.16838767286E+02 -0.45182201671E+01  0.13148923842E+03  0.00000000000E+00 0. -1.
         -5    1    5    5    0  502  0.14489509277E+03 -0.64105312089E+02  0.50309519373E+03  0.52747601168E+03  0.47000000000E+01 0.  1.
         13    1    6    6    0    0  0.40153648866E+02  0.22274106692E+02  0.50196134883E+02  0.68030164657E+02  0.00000000000E+00 0. -1.
        -14    1    6    6    0    0  0.21094979993E+02  0.30229908236E+02  0.22906782392E+03  0.23201489928E+03  0.00000000000E+00 0.  1.
<mgrwt>
<rscale>  2 0.27053642E+03</rscale>
<asrwt>0</asrwt>
<pdfrwt beam="1">  1       21 0.14109785E+00 0.27083616E+03</pdfrwt>
<pdfrwt beam="2">  1       21 0.28619646E-01 0.27083616E+03</pdfrwt>
<totfact> 0.38646123E+03</totfact>
</mgrwt>
</event>
<event>
12    1  0.1013215E-001  0.2968176E+03  0.7546771E-02  0.1086894E+00
         21   -1    0    0  501  502  0.00000000000E+00  0.00000000000E+00  0.20945731960E+03  0.20945731960E+03  0.00000000000E+00 0.  1.
         21   -1    0    0  502  503 -0.00000000000E+00 -0.00000000000E+00 -0.82103550964E+03  0.82103550964E+03  0.00000000000E+00 0. -1.
         -6    2    1    2    0  503 -0.22231300616E+03  0.93343540971E+02 -0.66598406669E+03  0.72913338124E+03  0.17310292083E+03 0.  0.
        -24    2    3    3    0    0 -0.99627545666E+02  0.69631935168E+02 -0.20358987432E+03  0.25012978876E+03  0.79635545136E+02 0.  0.
          6    2    1    2  501    0  0.22231300616E+03 -0.93343540971E+02  0.54405876654E+02  0.30135944801E+03  0.17239903753E+03 0.  0.
         24    2    5    5    0    0  0.14388908212E+03 -0.26686672957E+02 -0.26998355638E+02  0.17004993217E+03  0.82291079452E+02 0.  0.
          5    1    5    5  501    0  0.78423924037E+02 -0.66656868013E+02  0.81404232293E+02  0.13130951584E+03  0.47000000000E+01 0. -1.
        -11    1    6    6    0    0  0.59466245237E+02  0.29437728155E+02 -0.14348979037E+02  0.67887460999E+02  0.00000000000E+00 0.  1.
         12    1    6    6    0    0  0.84422836881E+02 -0.56124401112E+02 -0.12649376601E+02  0.10216247117E+03  0.00000000000E+00 0. -1.
         -5    1    3    3    0  503 -0.12268546049E+03  0.23711605803E+02 -0.46239419238E+03  0.47900359248E+03  0.47000000000E+01 0.  1.
         11    1    4    4    0    0 -0.46901415987E+02  0.53140171573E+02 -0.49542655511E+02  0.86475981472E+02  0.00000000000E+00 0. -1.
        -12    1    4    4    0    0 -0.52726129679E+02  0.16491763595E+02 -0.15404721881E+03  0.16365380729E+03  0.00000000000E+00 0.  1.
<mgrwt>
<rscale>  2 0.29671510E+03</rscale>
<asrwt>0</asrwt>
<pdfrwt beam="1">  1       21 0.32224202E-01 0.29681764E+03</pdfrwt>
<pdfrwt beam="2">  1       21 0.12631316E+00 0.29681764E+03</pdfrwt>
<totfact> 0.40080946E+03</totfact>
</mgrwt>
</event>
<event>
12    1  0.1013215E-001  0.1821619E+03  0.7546771E-02  0.1166217E+00
         21   -1    0    0  503  502  0.00000000000E+00  0.00000000000E+00  0.18877259575E+04  0.18877259575E+04  0.00000000000E+00 0. -1.
         21   -1    0    0  501  503 -0.00000000000E+00 -0.00000000000E+00 -0.25424795397E+02  0.25424795397E+02  0.00000000000E+00 0. -1.
          6    2    1    2  501    0  0.16538895807E+02  0.51460025260E+02  0.39671813626E+03  0.43654121612E+03  0.17395770882E+03 0.  0.
         24    2    3    3    0    0 -0.19865358639E+02  0.43233759085E+02  0.94182525350E+02  0.13167595561E+03  0.78768133189E+02 0.  0.
         -6    2    1    2    0  502 -0.16538895807E+02 -0.51460025260E+02  0.14655830259E+04  0.14766095368E+04  0.17181515996E+03 0.  0.
        -24    2    5    5    0    0 -0.31199131820E+02  0.27638997513E+02  0.38974650624E+03  0.39775927616E+03  0.67622500956E+02 0.  0.
          5    1    3    3  501    0  0.36404254445E+02  0.82262661748E+01  0.30253561091E+03  0.30486526051E+03  0.47000000000E+01 0. -1.
        -11    1    4    4    0    0 -0.36943726912E+02  0.51406449685E+02  0.93265638414E+02  0.11272063403E+03  0.00000000000E+00 0.  1.
         12    1    4    4    0    0  0.17078368274E+02 -0.81726906002E+01  0.91688693602E+00  0.18955321580E+02  0.00000000000E+00 0. -1.
         -5    1    5    5    0  502  0.14660236013E+02 -0.79099022773E+02  0.10758365196E+04  0.10788502606E+04  0.47000000000E+01 0.  1.
         11    1    6    6    0    0 -0.52311712121E+02  0.14510423924E+02  0.25109204017E+03  0.25689351931E+03  0.00000000000E+00 0. -1.
        -12    1    6    6    0    0  0.21112580301E+02  0.13128573589E+02  0.13865446607E+03  0.14086575685E+03  0.00000000000E+00 0.  1.
<mgrwt>
<rscale>  2 0.18164849E+03</rscale>
<asrwt>0</asrwt>
<pdfrwt beam="1">  1       21 0.29041927E+00 0.18216189E+03</pdfrwt>
<pdfrwt beam="2">  1       21 0.39115085E-02 0.18216189E+03</pdfrwt>
<totfact> 0.15937643E+04</totfact>
</mgrwt>
</event>
<event>
12    1  0.1013215E-001  0.1897455E+03  0.7546771E-02  0.1159363E+00
         21   -1    0    0  501  502  0.00000000000E+00  0.00000000000E+00  0.21741371908E+03  0.21741371908E+03  0.00000000000E+00 0. -1.
         21   -1    0    0  502  503 -0.00000000000E+00 -0.00000000000E+00 -0.39096697822E+03  0.39096697822E+03  0.00000000000E+00 0. -1.
         -6    2    1    2    0  503  0.60770409552E+01 -0.69611893300E+02 -0.31875194747E+03  0.36945391077E+03  0.17323579899E+03 0.  0.
        -24    2    3    3    0    0  0.11334122144E+02 -0.44695104996E+02 -0.32925995610E+03  0.34150768584E+03  0.78033749500E+02 0.  0.
          6    2    1    2  501    0 -0.60770409552E+01  0.69611893300E+02  0.14519868833E+03  0.23892678654E+03  0.17641032882E+03 0.  0.
         24    2    5    5    0    0  0.32740553448E+02  0.57016010930E+02  0.18730813429E+02  0.10595432597E+03  0.80948789222E+02 0.  0.
          5    1    5    5  501    0 -0.38817594403E+02  0.12595882369E+02  0.12646787490E+03  0.13297246057E+03  0.47000000000E+01 0. -1.
        -11    1    6    6    0    0 -0.14688104650E+00 -0.17084682244E+02  0.18087239018E+02  0.24880839148E+02  0.00000000000E+00 0.  1.
         12    1    6    6    0    0  0.32887434494E+02  0.74100693175E+02  0.64357441102E+00  0.81073486817E+02  0.00000000000E+00 0. -1.
         -5    1    3    3    0  503 -0.52570811890E+01 -0.24916788304E+02  0.10508008636E+02  0.27946224924E+02  0.47000000000E+01 0.  1.
         13    1    4    4    0    0  0.35353358928E+02 -0.52674470156E+02 -0.20096904252E+03  0.21074395802E+03  0.00000000000E+00 0. -1.
        -14    1    4    4    0    0 -0.24019236784E+02  0.79793651595E+01 -0.12829091359E+03  0.13076372782E+03  0.00000000000E+00 0.  1.
<mgrwt>
<rscale>  2 0.18900421E+03</rscale>
<asrwt>0</asrwt>
<pdfrwt beam="1">  1       21 0.33448264E-01 0.18974549E+03</pdfrwt>
<pdfrwt beam="2">  1       21 0.60148766E-01 0.18974549E+03</pdfrwt>
<totfact> 0.22225687E+04</totfact>
</mgrwt>
</event>
<event>
12    1  0.1013215E-001  0.1958565E+03  0.7546771E-02  0.1153467E+00
         21   -1    0    0  501  502  0.00000000000E+00  0.00000000000E+00  0.66478517260E+02  0.66478517260E+02  0.00000000000E+00 0. -1.
         21   -1    0    0  502  503 -0.00000000000E+00 -0.00000000000E+00 -0.58023464876E+03  0.58023464876E+03  0.00000000000E+00 0. -1.
         -6    2    1    2    0  503  0.71601726055E+02 -0.53126194659E+02 -0.22426767365E+03  0.29719445346E+03  0.17343400471E+03 0.  0.
        -24    2    3    3    0    0 -0.88420811278E+01 -0.10616958195E+02 -0.35161822683E+02  0.87286487511E+02  0.78687196721E+02 0.  0.
          6    2    1    2  501    0 -0.71601726055E+02  0.53126194659E+02 -0.28948845785E+03  0.34951871256E+03  0.17438624793E+03 0.  0.
         24    2    5    5    0    0 -0.51083721442E+02  0.80904367215E+02 -0.10862000375E+03  0.16532288451E+03  0.79864182811E+02 0.  0.
          5    1    5    5  501    0 -0.20518004613E+02 -0.27778172556E+02 -0.18086845410E+03  0.18419582805E+03  0.47000000000E+01 0. -1.
        -13    1    6    6    0    0 -0.22559377092E+02  0.26119299801E+02  0.60849222241E+01  0.35045250682E+02  0.00000000000E+00 0.  1.
         14    1    6    6    0    0 -0.28524344350E+02  0.54785067414E+02 -0.11470492597E+03  0.13027763383E+03  0.00000000000E+00 0. -1.
         -5    1    3    3    0  503  0.80443807183E+02 -0.42509236464E+02 -0.18910585097E+03  0.20990796595E+03  0.47000000000E+01 0.  1.
         11    1    4    4    0    0  0.17288487816E+02 -0.34097853820E+02 -0.93872362054E+00  0.38241818055E+02  0.00000000000E+00 0. -1.
        -12    1    4    4    0    0 -0.26130568943E+02  0.23480895626E+02 -0.34223099062E+02  0.49044669457E+02  0.00000000000E+00 0.  1.
<mgrwt>
<rscale>  2 0.19564430E+03</rscale>
<asrwt>0</asrwt>
<pdfrwt beam="1">  1       21 0.10227464E-01 0.19585649E+03</pdfrwt>
<pdfrwt beam="2">  1       21 0.89266870E-01 0.19585649E+03</pdfrwt>
<totfact> 0.83374114E+04</totfact>
</mgrwt>
</event>
<event>
12    1  0.1013215E-001  0.2486447E+03  0.7546771E-02  0.1114186E+00
         21   -1    0    0  503  502  0.00000000000E+00  0.00000000000E+00  0.23827154128E+03  0.23827154128E+03  0.00000000000E+00 0. -1.
         21   -1    0    0  501  503 -0.00000000000E+00 -0.00000000000E+00 -0.27545841474E+03  0.27545841474E+03  0.00000000000E+00 0.  1.
          6    2    1    2  501    0  0.26494613019E+02 -0.17592538589E+03 -0.80753574697E+02  0.26129733998E+03  0.17350347010E+03 0.  0.
         24    2    3    3    0    0 -0.17503902935E+02 -0.18512656807E+02 -0.12258152544E+02  0.84016913713E+02  0.79116840218E+02 0.  0.
         -6    2    1    2    0  502 -0.26494613019E+02  0.17592538589E+03  0.43566701237E+02  0.25243261603E+03  0.17370222295E+03 0.  0.
        -24    2    5    5    0    0  0.42989441053E+02  0.51315307250E+02  0.98464566693E+01  0.10575320247E+03  0.81273823112E+02 0.  0.
          5    1    3    3  501    0  0.43998515954E+02 -0.15741272908E+03 -0.68495422153E+02  0.17728042627E+03  0.47000000000E+01 0. -1.
        -11    1    4    4    0    0  0.19536083348E+02  0.11582441528E+02 -0.25834782517E+02  0.34398364671E+02  0.00000000000E+00 0.  1.
         12    1    4    4    0    0 -0.37039986283E+02 -0.30095098335E+02  0.13576629973E+02  0.49618549042E+02  0.00000000000E+00 0. -1.
         -5    1    5    5    0  502 -0.69484054072E+02  0.12461007864E+03  0.33720244567E+02  0.14667941356E+03  0.47000000000E+01 0.  1.
         11    1    6    6    0    0  0.17646302268E+02  0.19900609299E+02  0.44970707568E+02  0.52247399681E+02  0.00000000000E+00 0. -1.
        -12    1    6    6    0    0  0.25343138785E+02  0.31414697951E+02 -0.35124250899E+02  0.53505802788E+02  0.00000000000E+00 0.  1.
<mgrwt>
<rscale>  2 0.24860995E+03</rscale>
<asrwt>0</asrwt>
<pdfrwt beam="1">  1       21 0.36657160E-01 0.24864466E+03</pdfrwt>
<pdfrwt beam="2">  1       21 0.42378218E-01 0.24864466E+03</pdfrwt>
<totfact> 0.37439033E+04</totfact>
</mgrwt>
</event>
<event>
12    1  0.1013215E-001  0.2564816E+03  0.7546771E-02  0.1109504E+00
         21   -1    0    0  501  502  0.00000000000E+00  0.00000000000E+00  0.61098272296E+02  0.61098272296E+02  0.00000000000E+00 0. -1.
         21   -1    0    0  502  503 -0.00000000000E+00 -0.00000000000E+00 -0.16183501701E+04  0.16183501701E+04  0.00000000000E+00 0. -1.
         -6    2    1    2    0  503 -0.14841749415E+03 -0.11433333089E+03 -0.12687303440E+04  0.12943954107E+04  0.17516543762E+03 0.  0.
        -24    2    3    3    0    0 -0.70619917076E+02 -0.23944151154E+02 -0.90539048032E+03  0.91195507118E+03  0.79809992707E+02 0.  0.
          6    2    1    2  501    0  0.14841749415E+03  0.11433333089E+03 -0.28852155383E+03  0.38505303165E+03  0.17297770674E+03 0.  0.
         24    2    5    5    0    0  0.15522732640E+03  0.13034889804E+03 -0.20413501619E+03  0.29876253424E+03  0.80632431139E+02 0.  0.
          5    1    5    5  501    0 -0.68098322464E+01 -0.16015567149E+02 -0.84386537647E+02  0.86290497405E+02  0.47000000000E+01 0. -1.
        -11    1    6    6    0    0  0.12105586280E+03  0.11518574078E+03 -0.20079410773E+03  0.26122892355E+03  0.00000000000E+00 0.  1.
         12    1    6    6    0    0  0.34171463595E+02  0.15163157258E+02 -0.33409084545E+01  0.37533610692E+02  0.00000000000E+00 0. -1.
         -5    1    3    3    0  503 -0.77797577075E+02 -0.90389179738E+02 -0.36333986364E+03  0.38244033956E+03  0.47000000000E+01 0.  1.
         13    1    4    4    0    0 -0.81062591696E+02 -0.20424513329E+02 -0.88351194444E+03  0.88745797674E+03  0.00000000000E+00 0. -1.
        -14    1    4    4    0    0  0.10442674621E+02 -0.35196378249E+01 -0.21878535885E+02  0.24497094442E+02  0.00000000000E+00 0.  1.
<mgrwt>
<rscale>  2 0.25610847E+03</rscale>
<asrwt>0</asrwt>
<pdfrwt beam="1">  1       21 0.93997334E-02 0.25648157E+03</pdfrwt>
<pdfrwt beam="2">  1       21 0.24897697E+00 0.25648157E+03</pdfrwt>
<totfact> 0.57642466E+03</totfact>
</mgrwt>
</event>
<event>
12    1  0.1013215E-001  0.2550375E+03  0.7546771E-02  0.1110217E+00
         21   -1    0    0  501  502  0.00000000000E+00  0.00000000000E+00  0.71394077826E+02  0.71394077826E+02  0.00000000000E+00 0.  1.
         21   -1    0    0  502  503 -0.00000000000E+00 -0.00000000000E+00 -0.10013915872E+04  0.10013915872E+04  0.00000000000E+00 0.  1.
         -6    2    1    2    0  503  0.13086563355E+03  0.13355232898E+03 -0.62694608684E+03  0.67669942492E+03  0.17291233983E+03 0.  0.
        -24    2    3    3    0    0  0.49570305777E+02 -0.11441832219E+01 -0.19054311544E+03  0.21277947044E+03  0.80683950264E+02 0.  0.
          6    2    1    2  501    0 -0.13086563355E+03 -0.13355232898E+03 -0.30305142251E+03  0.39608624008E+03  0.17344193921E+03 0.  0.
         24    2    5    5    0    0 -0.10800043232E+03 -0.44988696957E+02 -0.25826789392E+03  0.29413532652E+03  0.78263714701E+02 0.  0.
          5    1    5    5  501    0 -0.22865201234E+02 -0.88563632020E+02 -0.44783528590E+02  0.10195091357E+03  0.47000000000E+01 0. -1.
        -11    1    6    6    0    0 -0.81754328998E+02 -0.49054592806E+02 -0.11962501743E+03  0.15297146198E+03  0.00000000000E+00 0.  1.
         12    1    6    6    0    0 -0.26246103320E+02  0.40658958491E+01 -0.13864287649E+03  0.14116386454E+03  0.00000000000E+00 0. -1.
         -5    1    3    3    0  503  0.81295327775E+02  0.13469651220E+03 -0.43640297140E+03  0.46391995448E+03  0.47000000000E+01 0.  1.
         11    1    4    4    0    0 -0.29116934127E+00  0.26048801794E+02 -0.19462246844E+02  0.32517747565E+02  0.00000000000E+00 0. -1.
        -12    1    4    4    0    0  0.49861475118E+02 -0.27192985016E+02 -0.17108086860E+03  0.18026172288E+03  0.00000000000E+00 0.  1.
<mgrwt>
<rscale>  2 0.25494752E+03</rscale>
<asrwt>0</asrwt>
<pdfrwt beam="1">  1       21 0.10983704E-01 0.25503754E+03</pdfrwt>
<pdfrwt beam="2">  1       21 0.15406024E+00 0.25503754E+03</pdfrwt>
<totfact> 0.18415496E+04</totfact>
</mgrwt>
</event>
<event>
12    1  0.1013215E-001  0.1912666E+03  0.7546771E-02  0.1157402E+00
         21   -1    0    0  501  502  0.00000000000E+00  0.00000000000E+00  0.34553093695E+02  0.34553093695E+02  0.00000000000E+00 0. -1.
         21   -1    0    0  502  503 -0.00000000000E+00 -0.00000000000E+00 -0.12503640580E+04  0.12503640580E+04  0.00000000000E+00 0. -1.
         -6    2    1    2    0  503 -0.65173419516E+02 -0.47180212206E+02 -0.86114691623E+03  0.88213203806E+03  0.17352052961E+03 0.  0.
        -24    2    3    3    0    0 -0.88829875498E+02 -0.81046444842E+02 -0.58684206552E+03  0.60469413375E+03  0.82535522809E+02 0.  0.
          6    2    1    2  501    0  0.65173419516E+02  0.47180212206E+02 -0.35466404807E+03  0.40278511363E+03  0.17313495816E+03 0.  0.
         24    2    5    5    0    0  0.73006435014E+02  0.11789414214E+02 -0.10585041503E+03  0.15130116047E+03  0.78859374556E+02 0.  0.
          5    1    5    5  501    0 -0.78330154985E+01  0.35390797991E+02 -0.24881363304E+03  0.25148395317E+03  0.47000000000E+01 0. -1.
        -11    1    6    6    0    0 -0.90961412345E+01  0.15113029393E+02 -0.43607114498E+00  0.17644647938E+02  0.00000000000E+00 0.  1.
         12    1    6    6    0    0  0.82102576249E+02 -0.33236151790E+01 -0.10541434388E+03  0.13365651253E+03  0.00000000000E+00 0. -1.
         -5    1    3    3    0  503  0.23656455982E+02  0.33866232636E+02 -0.27430485071E+03  0.27743790431E+03  0.47000000000E+01 0.  1.
         11    1    4    4    0    0 -0.88190092861E+02 -0.50202435158E+02 -0.31111619220E+03  0.32724770744E+03  0.00000000000E+00 0. -1.
        -12    1    4    4    0    0 -0.63978263717E+00 -0.30844009684E+02 -0.27572587331E+03  0.27744642631E+03  0.00000000000E+00 0.  1.
<mgrwt>
<rscale>  2 0.19117913E+03</rscale>
<asrwt>0</asrwt>
<pdfrwt beam="1">  1       21 0.53158601E-02 0.19126662E+03</pdfrwt>
<pdfrwt beam="2">  1       21 0.19236372E+00 0.19126662E+03</pdfrwt>
<totfact> 0.36516549E+04</totfact>
</mgrwt>
</event>
<event>
12    1  0.1013215E-001  0.1784615E+03  0.7546771E-02  0.1169873E+00
         21   -1    0    0  501  502  0.00000000000E+00  0.00000000000E+00  0.13981538231E+03  0.13981538231E+03  0.00000000000E+00 0. -1.
         21   -1    0    0  502  503 -0.00000000000E+00 -0.00000000000E+00 -0.22493996963E+03  0.22493996963E+03  0.00000000000E+00 0. -1.
         -6    2    1    2    0  503  0.30021417210E+02 -0.16830850329E+02 -0.46229841967E+02  0.18210457627E+03  0.17274349596E+03 0.  0.
        -24    2    3    3    0    0  0.57198353662E+02  0.36018656613E+02 -0.58991716254E+02  0.12114055661E+03  0.81400347556E+02 0.  0.
          6    2    1    2  501    0 -0.30021417210E+02  0.16830850329E+02 -0.38894745355E+02  0.18265077567E+03  0.17511122643E+03 0.  0.
         24    2    5    5    0    0 -0.40923177483E+02  0.39904647662E+02  0.34490802432E+02  0.10481262869E+03  0.80802130666E+02 0.  0.
          5    1    5    5  501    0  0.10901760273E+02 -0.23073797333E+02 -0.73385547788E+02  0.77838146975E+02  0.47000000000E+01 0. -1.
        -11    1    6    6    0    0 -0.29669270994E+01  0.57093783979E+02  0.17218338647E+02  0.59707403320E+02  0.00000000000E+00 0.  1.
         12    1    6    6    0    0 -0.37956250384E+02 -0.17189136317E+02  0.17272463785E+02  0.45105225371E+02  0.00000000000E+00 0. -1.
         -5    1    3    3    0  503 -0.27176936452E+02 -0.52849506942E+02  0.12761874287E+02  0.60964019669E+02  0.47000000000E+01 0.  1.
         13    1    4    4    0    0  0.33664292394E+02 -0.18387227885E+02 -0.46992932406E+02  0.60660616777E+02  0.00000000000E+00 0. -1.
        -14    1    4    4    0    0  0.23534061268E+02  0.54405884498E+02 -0.11998783848E+02  0.60479939828E+02  0.00000000000E+00 0.  1.
<mgrwt>
<rscale>  2 0.17787797E+03</rscale>
<asrwt>0</asrwt>
<pdfrwt beam="1">  1       21 0.21510059E-01 0.17846149E+03</pdfrwt>
<pdfrwt beam="2">  1       21 0.34606149E-01 0.17846149E+03</pdfrwt>
<totfact> 0.16279825E+05</totfact>
</mgrwt>
</event>
<event>
12    1  0.1013215E-001  0.2727134E+03  0.7546771E-02  0.1099768E+00
         21   -1    0    0  501  502  0.00000000000E+00  0.00000000000E+00  0.33288395254E+03  0.33288395254E+03  0.00000000000E+00 0.  1.
         21   -1    0    0  502  503 -0.00000000000E+00 -0.00000000000E+00 -0.24359545696E+03  0.24359545696E+03  0.00000000000E+00 0.  1.
         -6    2    1    2    0  503  0.10287677625E+03  0.18379520547E+03  0.12795335283E+03  0.30103870378E+03  0.17288126569E+03 0.  0.
        -24    2    3    3    0    0  0.99818088490E+02  0.13614695491E+03  0.15741714351E+03  0.24473669392E+03  0.81340323091E+02 0.  0.
          6    2    1    2  501    0 -0.10287677625E+03 -0.18379520547E+03 -0.38664857252E+02  0.27544070572E+03  0.17322904646E+03 0.  0.
         24    2    5    5    0    0 -0.24352002249E+02 -0.17150440557E+03 -0.10298376741E+02  0.19091880850E+03  0.79606241780E+02 0.  0.
          5    1    5    5  501    0 -0.78524774002E+02 -0.12290799901E+02 -0.28366480511E+02  0.84521897227E+02  0.47000000000E+01 0. -1.
        -11    1    6    6    0    0  0.27131371228E+02 -0.34054889409E+02  0.23148919267E+01  0.43602815528E+02  0.00000000000E+00 0.  1.
         12    1    6    6    0    0 -0.51483373477E+02 -0.13744951616E+03 -0.12613268668E+02  0.14731599297E+03  0.00000000000E+00 0. -1.
         -5    1    3    3    0  503  0.30586877619E+01  0.47648250566E+02 -0.29463790679E+02  0.56302009858E+02  0.47000000000E+01 0.  1.
         11    1    4    4    0    0 -0.32673470906E+01  0.11139472178E+01 -0.73217520707E+01  0.80947198098E+01  0.00000000000E+00 0. -1.
        -12    1    4    4    0    0  0.10308543558E+03  0.13503300769E+03  0.16473889558E+03  0.23664197411E+03  0.00000000000E+00 0.  1.
<mgrwt>
<rscale>  2 0.27265821E+03</rscale>
<asrwt>0</asrwt>
<pdfrwt beam="1">  1       21 0.51212916E-01 0.27271342E+03</pdfrwt>
<pdfrwt beam="2">  1       21 0.37476224E-01 0.27271342E+03</pdfrwt>
<totfact> 0.23909195E+04</totfact>
</mgrwt>
</event>
<event>
12    1  0.1013215E-001  0.1787443E+03  0.7546771E-02  0.1169252E+00
         21   -1    0    0  501  502  0.00000000000E+00  0.00000000000E+00  0.49400683072E+02  0.49400683072E+02  0.00000000000E+00 0. -1.
         21   -1    0    0  502  503 -0.00000000000E+00 -0.00000000000E+00 -0.72570021255E+03  0.72570021255E+03  0.00000000000E+00 0. -1.
         -6    2    1    2    0  503  0.40550183009E+02 -0.52507865329E+01 -0.46946540647E+03  0.50234180743E+03  0.17400469973E+03 0.  0.
        -24    2    3    3    0    0 -0.24226416141E+02  0.13272017192E+02 -0.39017618301E+03  0.39818820447E+03  0.74520646178E+02 0.  0.
          6    2    1    2  501    0 -0.40550183009E+02  0.52507865329E+01 -0.20683412301E+03  0.27275908818E+03  0.17304703882E+03 0.  0.
         24    2    5    5    0    0  0.12485542936E+02  0.34740396091E+02 -0.18908439078E+03  0.20935902279E+03  0.81948213413E+02 0.  0.
          5    1    5    5  501    0 -0.53035725945E+02 -0.29489609558E+02 -0.17749732226E+02  0.63400065398E+02  0.47000000000E+01 0. -1.
        -13    1    6    6    0    0 -0.15713869894E+02  0.48455322701E+02 -0.15447206523E+03  0.16265442798E+03  0.00000000000E+00 0.  1.
         14    1    6    6    0    0  0.28199412830E+02 -0.13714926611E+02 -0.34612325552E+02  0.46704594806E+02  0.00000000000E+00 0. -1.
         -5    1    3    3    0  503  0.64776599150E+02 -0.18522803725E+02 -0.79289223450E+02  0.10415360296E+03  0.47000000000E+01 0.  1.
         11    1    4    4    0    0 -0.18117857921E+02 -0.25318605508E+02 -0.85023060387E+02  0.90543963675E+02  0.00000000000E+00 0. -1.
        -12    1    4    4    0    0 -0.61085582204E+01  0.38590622699E+02 -0.30515312263E+03  0.30764424079E+03  0.00000000000E+00 0.  1.
<mgrwt>
<rscale>  2 0.17851081E+03</rscale>
<asrwt>0</asrwt>
<pdfrwt beam="1">  1       21 0.76001049E-02 0.17874430E+03</pdfrwt>
<pdfrwt beam="2">  1       21 0.11164619E+00 0.17874430E+03</pdfrwt>
<totfact> 0.83167199E+04</totfact>
</mgrwt>
</event>
<event>
12    1  0.1013215E-001  0.2153731E+03  0.7546771E-02  0.1137524E+00
         21   -1    0    0  503  502  0.00000000000E+00  0.00000000000E+00  0.25965357558E+03  0.25965357558E+03  0.00000000000E+00 0. -1.
         21   -1    0    0  501  503 -0.00000000000E+00 -0.00000000000E+00 -0.27142348875E+03  0.27142348875E+03  0.00000000000E+00 0. -1.
          6    2    1    2  501    0 -0.71774314967E+02  0.10441660557E+03 -0.16165737512E+03  0.26929291525E+03  0.17415851246E+03 0.  0.
         24    2    3    3    0    0 -0.11533312354E+03  0.95313654933E+02 -0.13493485233E+03  0.21717366028E+03  0.81059004070E+02 0.  0.
         -6    2    1    2    0  502  0.71774314967E+02 -0.10441660557E+03  0.14988746195E+03  0.26178414909E+03  0.17323483962E+03 0.  0.
        -24    2    5    5    0    0  0.31997368392E+02  0.86706731983E+01  0.90028541349E+02  0.12770910118E+03  0.84293915011E+02 0.  0.
          5    1    3    3  501    0  0.43558808574E+02  0.91029506367E+01 -0.26722522787E+02  0.52119254971E+02  0.47000000000E+01 0. -1.
        -13    1    4    4    0    0 -0.46046913363E+02  0.20183235099E+02 -0.31108481861E+01  0.50372200526E+02  0.00000000000E+00 0.  1.
         14    1    4    4    0    0 -0.69286210178E+02  0.75130419834E+02 -0.13182400415E+03  0.16680145975E+03  0.00000000000E+00 0. -1.
         -5    1    5    5    0  502  0.39776946575E+02 -0.11308727877E+03  0.59858920599E+02  0.13407504791E+03  0.47000000000E+01 0.  1.
         11    1    6    6    0    0 -0.19581888510E+02 -0.17667004742E+02  0.52345507020E+02  0.58614209193E+02  0.00000000000E+00 0. -1.
        -12    1    6    6    0    0  0.51579256901E+02  0.26337677941E+02  0.37683034329E+02  0.69094891982E+02  0.00000000000E+00 0.  1.
<mgrwt>
<rscale>  2 0.21518629E+03</rscale>
<asrwt>0</asrwt>
<pdfrwt beam="1">  1       21 0.39946704E-01 0.21537309E+03</pdfrwt>
<pdfrwt beam="2">  1       21 0.41757460E-01 0.21537309E+03</pdfrwt>
<totfact> 0.32947575E+04</totfact>
</mgrwt>
</event>
<event>
12    1  0.1013215E-001  0.1882507E+03  0.7546771E-02  0.1160501E+00
         21   -1    0    0  501  502  0.00000000000E+00  0.00000000000E+00  0.28109687432E+03  0.28109687432E+03  0.00000000000E+00 0.  1.
         21   -1    0    0  502  503 -0.00000000000E+00 -0.00000000000E+00 -0.34308112402E+03  0.34308112402E+03  0.00000000000E+00 0. -1.
         -6    2    1    2    0  503  0.14147151007E+01 -0.67387233331E+02 -0.28001277386E+03  0.33740996072E+03  0.17577055337E+03 0.  0.
        -24    2    3    3    0    0 -0.63723881160E+02 -0.25498976863E+02 -0.11545982959E+03  0.15548298575E+03  0.78313828654E+02 0.  0.
          6    2    1    2  501    0 -0.14147151007E+01  0.67387233331E+02  0.21802852416E+03  0.28676803763E+03  0.17365606648E+03 0.  0.
         24    2    5    5    0    0  0.52069114852E+02  0.73666333887E+02  0.19203847162E+03  0.22678870785E+03  0.80102571472E+02 0.  0.
          5    1    5    5  501    0 -0.53483829953E+02 -0.62791005557E+01  0.25990052535E+02  0.59979329781E+02  0.47000000000E+01 0. -1.
        -11    1    6    6    0    0  0.16425568982E+02 -0.41289771616E+01  0.98772998550E+02  0.10021453493E+03  0.00000000000E+00 0.  1.
         12    1    6    6    0    0  0.35643545870E+02  0.77795311048E+02  0.93265473070E+02  0.12657417292E+03  0.00000000000E+00 0. -1.
         -5    1    3    3    0  503  0.65138596260E+02 -0.41888256468E+02 -0.16455294427E+03  0.18192697496E+03  0.47000000000E+01 0.  1.
         11    1    4    4    0    0 -0.31366175248E+02 -0.20158869436E+02 -0.11685360503E+03  0.12265798782E+03  0.00000000000E+00 0. -1.
        -12    1    4    4    0    0 -0.32357705911E+02 -0.53401074264E+01  0.13937754459E+01  0.32824997931E+02  0.00000000000E+00 0.  1.
<mgrwt>
<rscale>  2 0.18775556E+03</rscale>
<asrwt>0</asrwt>
<pdfrwt beam="1">  1       21 0.43245673E-01 0.18825071E+03</pdfrwt>
<pdfrwt beam="2">  1       21 0.52781711E-01 0.18825071E+03</pdfrwt>
<totfact> 0.17536196E+04</totfact>
</mgrwt>
</event>
<event>
12    1  0.1013215E-001  0.2976709E+03  0.7546771E-02  0.1086457E+00
         21   -1    0    0  503  502  0.00000000000E+00  0.00000000000E+00  0.47106261702E+02  0.47106261702E+02  0.00000000000E+00 0. -1.
         21   -1    0    0  501  503 -0.00000000000E+00 -0.00000000000E+00 -0.19224549000E+04  0.19224549000E+04  0.00000000000E+00 0.  1.
          6    2    1    2  501    0  0.12947980121E+02  0.24213867573E+03 -0.10856604842E+04  0.11256326363E+04  0.17202138324E+03 0.  0.
         24    2    3    3    0    0 -0.11396608381E+02  0.24663976667E+03 -0.10521334389E+04  0.10836913490E+04  0.80256522608E+02 0.  0.
         -6    2    1    2    0  502 -0.12947980121E+02 -0.24213867573E+03 -0.78968815406E+03  0.84392852544E+03  0.17265337219E+03 0.  0.
        -24    2    5    5    0    0 -0.24656622456E-01 -0.23900742600E+03 -0.57003725918E+03  0.62382531640E+03  0.84208065095E+02 0.  0.
          5    1    3    3  501    0  0.24344588502E+02 -0.45010909419E+01 -0.33527045338E+02  0.41941287273E+02  0.47000000000E+01 0. -1.
        -11    1    4    4    0    0  0.31976405107E+02  0.88316601135E+02 -0.44124947706E+03  0.45113569303E+03  0.00000000000E+00 0.  1.
         12    1    4    4    0    0 -0.43373013487E+02  0.15832316553E+03 -0.61088396184E+03  0.63255565595E+03  0.00000000000E+00 0. -1.
         -5    1    5    5    0  502 -0.12923323499E+02 -0.31312497281E+01 -0.21965089487E+03  0.22010320905E+03  0.47000000000E+01 0.  1.
         11    1    6    6    0    0 -0.30594435623E+01 -0.24412676305E+03 -0.56657645716E+03  0.61694093594E+03  0.00000000000E+00 0. -1.
        -12    1    6    6    0    0  0.30347869399E+01  0.51193370486E+01 -0.34608020220E+01  0.68843804531E+01  0.00000000000E+00 0.  1.
<mgrwt>
<rscale>  2 0.29757935E+03</rscale>
<asrwt>0</asrwt>
<pdfrwt beam="1">  1       21 0.72471175E-02 0.29767092E+03</pdfrwt>
<pdfrwt beam="2">  1       21 0.29576228E+00 0.29767092E+03</pdfrwt>
<totfact> 0.46687340E+03</totfact>
</mgrwt>
</event>
<event>
12    1  0.1013215E-001  0.2270401E+03  0.7546771E-02  0.1129069E+00
         21   -1    0    0  501  502  0.00000000000E+00  0.00000000000E+00  0.26734114155E+04  0.26734114155E+04  0.00000000000E+00 0. -1.
         21   -1    0    0  502  503 -0.00000000000E+00 -0.00000000000E+00 -0.20972931800E+02  0.20972931800E+02  0.00000000000E+00 0. -1.
         -6    2    1    2    0  503 -0.53354204554E+01  0.14280011997E+03  0.92161833951E+03  0.94873674363E+03  0.17407097406E+03 0.  0.
        -24    2    3    3    0    0  0.75451182344E+01  0.33999205362E-01  0.34884288575E+03  0.35827769853E+03  0.81330316329E+02 0.  0.
          6    2    1    2  501    0  0.53354204554E+01 -0.14280011997E+03  0.17308201442E+04  0.17456476037E+04  0.17642801281E+03 0.  0.
         24    2    5    5    0    0  0.17032743434E+01 -0.58430954800E+02  0.14026515888E+04  0.14067552325E+04  0.90065125760E+02 0.  0.
          5    1    5    5  501    0  0.36321461120E+01 -0.84369165171E+02  0.32816855536E+03  0.33889237118E+03  0.47000000000E+01 0. -1.
        -11    1    6    6    0    0  0.16164644376E+02 -0.31949288252E+02  0.16978378819E+03  0.17351826267E+03  0.00000000000E+00 0.  1.
         12    1    6    6    0    0 -0.14461370032E+02 -0.26481666548E+02  0.12328678007E+04  0.12332369698E+04  0.00000000000E+00 0. -1.
         -5    1    3    3    0  503 -0.12880538690E+02  0.14276612077E+03  0.57277545376E+03  0.59045904510E+03  0.47000000000E+01 0.  1.
         11    1    4    4    0    0 -0.66096920797E+01  0.38084424271E+02  0.21373286175E+03  0.21720001748E+03  0.00000000000E+00 0. -1.
        -12    1    4    4    0    0  0.14154810314E+02 -0.38050425066E+02  0.13511002401E+03  0.14107768105E+03  0.00000000000E+00 0.  1.
<mgrwt>
<rscale>  2 0.22658199E+03</rscale>
<asrwt>0</asrwt>
<pdfrwt beam="1">  1       21 0.41129379E+00 0.22704005E+03</pdfrwt>
<pdfrwt beam="2">  1       21 0.32266070E-02 0.22704005E+03</pdfrwt>
<totfact> 0.39697173E+03</totfact>
</mgrwt>
</event>
<event>
12    1  0.1013215E-001  0.1920874E+03  0.7546771E-02  0.1156860E+00
         21   -1    0    0  503  502  0.00000000000E+00  0.00000000000E+00  0.57453563895E+02  0.57453563895E+02  0.00000000000E+00 0.  1.
         21   -1    0    0  501  503 -0.00000000000E+00 -0.00000000000E+00 -0.68655776647E+03  0.68655776647E+03  0.00000000000E+00 0.  1.
          6    2    1    2  501    0  0.38164580849E+02  0.76698726789E+02 -0.41419292363E+03  0.45656692811E+03  0.17192542551E+03 0.  0.
         24    2    3    3    0    0  0.74287886039E+01  0.33930393971E+02 -0.82912228992E+02  0.12109292337E+03  0.81133222779E+02 0.  0.
         -6    2    1    2    0  502 -0.38164580849E+02 -0.76698726789E+02 -0.21491127894E+03  0.28744440225E+03  0.17058193529E+03 0.  0.
        -24    2    5    5    0    0 -0.59548955504E+01 -0.95370609579E+02 -0.94978396829E+02  0.16177782258E+03  0.89555312867E+02 0.  0.
          5    1    3    3  501    0  0.30735792245E+02  0.42768332818E+02 -0.33128069464E+03  0.33547400474E+03  0.47000000000E+01 0. -1.
        -11    1    4    4    0    0  0.26536749329E+02  0.31405537630E+02 -0.56971041757E+01  0.41508599768E+02  0.00000000000E+00 0.  1.
         12    1    4    4    0    0 -0.19107960725E+02  0.25248563413E+01 -0.77215124816E+02  0.79584323601E+02  0.00000000000E+00 0. -1.
         -5    1    5    5    0  502 -0.32209685299E+02  0.18671882790E+02 -0.11993288211E+03  0.12566657967E+03  0.47000000000E+01 0.  1.
         11    1    6    6    0    0 -0.50932853460E+01  0.16111762251E+02 -0.24913627730E+02  0.30103476296E+02  0.00000000000E+00 0. -1.
        -12    1    6    6    0    0 -0.86161020445E+00 -0.11148237183E+03 -0.70064769099E+02  0.13167434629E+03  0.00000000000E+00 0.  1.
<mgrwt>
<rscale>  2 0.19178634E+03</rscale>
<asrwt>0</asrwt>
<pdfrwt beam="1">  1       21 0.88390098E-02 0.19208743E+03</pdfrwt>
<pdfrwt beam="2">  1       21 0.10562427E+00 0.19208743E+03</pdfrwt>
<totfact> 0.72642857E+04</totfact>
</mgrwt>
</event>
<event>
12    1  0.1013215E-001  0.1950498E+03  0.7546771E-02  0.1154015E+00
         21   -1    0    0  503  502  0.00000000000E+00  0.00000000000E+00  0.24733955013E+03  0.24733955013E+03  0.00000000000E+00 0.  1.
         21   -1    0    0  501  503 -0.00000000000E+00 -0.00000000000E+00 -0.34540482265E+03  0.34540482265E+03  0.00000000000E+00 0.  1.
          6    2    1    2  501    0  0.64030787524E+02 -0.63479541465E+02 -0.26983550219E+03  0.33294985710E+03  0.17295899851E+03 0.  0.
         24    2    3    3    0    0 -0.29296343405E+02 -0.18903969737E+02 -0.17082098123E+03  0.18969169739E+03  0.74749559343E+02 0.  0.
         -6    2    1    2    0  502 -0.64030787524E+02  0.63479541465E+02  0.17177022966E+03  0.25979451568E+03  0.17279636757E+03 0.  0.
        -24    2    5    5    0    0 -0.14920335531E+02  0.92789867119E+02  0.87414930408E+02  0.15777080179E+03  0.91747915428E+02 0.  0.
          5    1    3    3  501    0  0.93327130929E+02 -0.44575571728E+02 -0.99014520964E+02  0.14325815971E+03  0.47000000000E+01 0. -1.
        -11    1    4    4    0    0  0.69183927894E+00 -0.42792899287E+02 -0.10696912765E+03  0.11521330280E+03  0.00000000000E+00 0.  1.
         12    1    4    4    0    0 -0.29988182684E+02  0.23888929550E+02 -0.63851853571E+02  0.74478394587E+02  0.00000000000E+00 0. -1.
         -5    1    5    5    0  502 -0.49110451992E+02 -0.29310325654E+02  0.84355299253E+02  0.10202371389E+03  0.47000000000E+01 0.  1.
         11    1    6    6    0    0  0.26610296152E+02  0.70898830812E+02  0.25159800208E+02  0.79798293329E+02  0.00000000000E+00 0. -1.
        -12    1    6    6    0    0 -0.41530631684E+02  0.21891036307E+02  0.62255130200E+02  0.77972508456E+02  0.00000000000E+00 0.  1.
<mgrwt>
<rscale>  2 0.19501370E+03</rscale>
<asrwt>0</asrwt>
<pdfrwt beam="1">  1       21 0.38052239E-01 0.19504976E+03</pdfrwt>
<pdfrwt beam="2">  1       21 0.53139203E-01 0.19504976E+03</pdfrwt>
<totfact> 0.22308643E+04</totfact>
</mgrwt>
</event>
<event>
12    1  0.1013215E-001  0.1825416E+03  0.7546771E-02  0.1165540E+00
         21   -1    0    0  503  502  0.00000000000E+00  0.00000000000E+00  0.86621588950E+02  0.86621588950E+02  0.00000000000E+00 0.  1.
         21   -1    0    0  501  503 -0.00000000000E+00 -0.00000000000E+00 -0.38686377466E+03  0.38686377466E+03  0.00000000000E+00 0.  1.
          6    2    1    2  501    0 -0.29840573694E+02  0.50557018936E+02 -0.12717617247E+03  0.22247518481E+03  0.17284373581E+03 0.  0.
         24    2    3    3    0    0  0.35818140691E+02  0.95724597199E+01 -0.17646895876E+02  0.88275507834E+02  0.78144616971E+02 0.  0.
         -6    2    1    2    0  502  0.29840573694E+02 -0.50557018936E+02 -0.17306601324E+03  0.25101017880E+03  0.17206915157E+03 0.  0.
        -24    2    5    5    0    0 -0.81289324784E+01  0.31396216113E+02 -0.11154526993E+03  0.14162595694E+03  0.81017050720E+02 0.  0.
          5    1    3    3  501    0 -0.65658714385E+02  0.40984559216E+02 -0.10952927659E+03  0.13419967697E+03  0.47000000000E+01 0. -1.
        -11    1    4    4    0    0  0.39212853095E+02  0.53711203245E+01 -0.45268361917E+02  0.60130868712E+02  0.00000000000E+00 0.  1.
         12    1    4    4    0    0 -0.33947124037E+01  0.42013393954E+01  0.27621466041E+02  0.28144639122E+02  0.00000000000E+00 0. -1.
         -5    1    5    5    0  502  0.37969506172E+02 -0.81953235049E+02 -0.61520743310E+02  0.10938422186E+03  0.47000000000E+01 0.  1.
         11    1    6    6    0    0 -0.15423542355E+02  0.10858822825E+02 -0.11752261705E+03  0.11902674158E+03  0.00000000000E+00 0. -1.
        -12    1    6    6    0    0  0.72946098768E+01  0.20537393288E+02  0.59773471272E+01  0.22599215362E+02  0.00000000000E+00 0.  1.
<mgrwt>
<rscale>  2 0.18235799E+03</rscale>
<asrwt>0</asrwt>
<pdfrwt beam="1">  1       21 0.13326398E-01 0.18254158E+03</pdfrwt>
<pdfrwt beam="2">  1       21 0.59517504E-01 0.18254158E+03</pdfrwt>
<totfact> 0.12860991E+05</totfact>
</mgrwt>
</event>
<event>
12    1  0.1013215E-001  0.2270648E+03  0.7546771E-02  0.1129959E+00
         21   -1    0    0  503  502  0.00000000000E+00  0.00000000000E+00  0.23249290642E+03  0.23249290642E+03  0.00000000000E+00 0.  1.
         21   -1    0    0  501  503 -0.00000000000E+00 -0.00000000000E+00 -0.34964989795E+03  0.34964989795E+03  0.00000000000E+00 0.  1.
          6    2    1    2  501    0  0.13126078490E+03 -0.66929961591E+02  0.12137294613E+03  0.25746807134E+03  0.17276979566E+03 0.  0.
         24    2    3    3    0    0  0.49621612509E+02 -0.52298605361E+02 -0.82323855972E+01  0.10352437037E+03  0.73838164506E+02 0.  0.
         -6    2    1    2    0  502 -0.13126078490E+03  0.66929961591E+02 -0.23852993766E+03  0.32467473302E+03  0.16373190798E+03 0.  0.
        -24    2    5    5    0    0 -0.54498436406E+01  0.22944195589E+02 -0.11744536828E+03  0.14454504781E+03  0.80893259360E+02 0.  0.
          5    1    3    3  501    0  0.81639172391E+02 -0.14631356230E+02  0.12960533173E+03  0.15394370097E+03  0.47000000000E+01 0. -1.
        -11    1    4    4    0    0  0.55240964074E+02 -0.65800532103E+02 -0.15325297766E+02  0.87270492657E+02  0.00000000000E+00 0.  1.
         12    1    4    4    0    0 -0.56193515647E+01  0.13501926742E+02  0.70929121688E+01  0.16253877716E+02  0.00000000000E+00 0. -1.
         -5    1    5    5    0  502 -0.12581094126E+03  0.43985766001E+02 -0.12108456938E+03  0.18012968521E+03  0.47000000000E+01 0.  1.
         11    1    6    6    0    0 -0.49929525879E+01 -0.30349372152E+02 -0.38166647336E+02  0.49017414604E+02  0.00000000000E+00 0. -1.
        -12    1    6    6    0    0 -0.45689105268E+00  0.53293567741E+02 -0.79278720945E+02  0.95527633210E+02  0.00000000000E+00 0.  1.
<mgrwt>
<rscale>  2 0.22534569E+03</rscale>
<asrwt>0</asrwt>
<pdfrwt beam="1">  1       21 0.35768139E-01 0.22706478E+03</pdfrwt>
<pdfrwt beam="2">  1       21 0.53792292E-01 0.22706478E+03</pdfrwt>
<totfact> 0.24174531E+04</totfact>
</mgrwt>
</event>
<event>
12    1  0.1013215E-001  0.2072427E+03  0.7546771E-02  0.1147955E+00
         21   -1    0    0  501  502  0.00000000000E+00  0.00000000000E+00  0.40330367053E+03  0.40330367053E+03  0.00000000000E+00 0.  1.
         21   -1    0    0  502  503 -0.00000000000E+00 -0.00000000000E+00 -0.13574377331E+03  0.13574377331E+03  0.00000000000E+00 0. -1.
         -6    2    1    2    0  503 -0.73683006895E+02  0.25419256375E+02 -0.60593057281E+01  0.20733125040E+03  0.19202658177E+03 0.  0.
        -24    2    3    3    0    0 -0.12292337551E+03  0.21009270329E+02  0.22893639070E+02  0.14984712311E+03  0.79865486340E+02 0.  0.
          6    2    1    2  501    0  0.73683006895E+02 -0.25419256375E+02  0.27361920295E+03  0.33171619344E+03  0.17056623543E+03 0.  0.
         24    2    5    5    0    0  0.52718701380E+02 -0.17595010454E+02  0.28829596133E+03  0.30454602291E+03  0.80900388672E+02 0.  0.
          5    1    5    5  501    0  0.20964305515E+02 -0.78242459205E+01 -0.14676758380E+02  0.27170170528E+02  0.47000000000E+01 0. -1.
        -13    1    6    6    0    0  0.28509069262E+02  0.31517053046E+02  0.14670732682E+03  0.15273876851E+03  0.00000000000E+00 0.  1.
         14    1    6    6    0    0  0.24209632118E+02 -0.49112063500E+02  0.14158863451E+03  0.15180725441E+03  0.00000000000E+00 0. -1.
         -5    1    3    3    0  503  0.49240368613E+02  0.44099860460E+01 -0.28952944798E+02  0.57484127292E+02  0.47000000000E+01 0.  1.
         11    1    4    4    0    0 -0.69491974910E+02 -0.27977043130E+02  0.44244890978E+01  0.75042825260E+02  0.00000000000E+00 0. -1.
        -12    1    4    4    0    0 -0.53431400598E+02  0.48986313458E+02  0.18469149972E+02  0.74804297850E+02  0.00000000000E+00 0.  1.
<mgrwt>
<rscale>  2 0.20212877E+03</rscale>
<asrwt>0</asrwt>
<pdfrwt beam="1">  1       21 0.62046718E-01 0.20724269E+03</pdfrwt>
<pdfrwt beam="2">  1       21 0.20883658E-01 0.20724269E+03</pdfrwt>
<totfact> 0.50956132E+04</totfact>
</mgrwt>
</event>
<event>
12    1  0.1013215E-001  0.2098994E+03  0.7546771E-02  0.1143150E+00
         21   -1    0    0  503  502  0.00000000000E+00  0.00000000000E+00  0.12664283233E+03  0.12664283233E+03  0.00000000000E+00 0. -1.
         21   -1    0    0  501  503 -0.00000000000E+00 -0.00000000000E+00 -0.34147967772E+03  0.34147967772E+03  0.00000000000E+00 0.  1.
          6    2    1    2  501    0 -0.10562800827E+03  0.10053130284E+02 -0.74941215687E+02  0.21587547654E+03  0.17241720913E+03 0.  0.
         24    2    3    3    0    0 -0.92893422025E+02 -0.27222246396E+02 -0.10722065016E+03  0.16473180359E+03  0.79183715104E+02 0.  0.
         -6    2    1    2    0  502  0.10562800827E+03 -0.10053130284E+02 -0.13989562970E+03  0.25224703351E+03  0.18110614883E+03 0.  0.
        -24    2    5    5    0    0  0.37563453936E+02 -0.10131351372E+02  0.36359620476E+01  0.93325047911E+02  0.84750734483E+02 0.  0.
          5    1    3    3  501    0 -0.12734586245E+02  0.37275376679E+02  0.32279434473E+02  0.51143672955E+02  0.47000000000E+01 0. -1.
        -11    1    4    4    0    0  0.39550842751E+01  0.16472843200E+02 -0.25835276283E+02  0.30894315907E+02  0.00000000000E+00 0.  1.
         12    1    4    4    0    0 -0.96848506300E+02 -0.43695089596E+02 -0.81385373877E+02  0.13383748768E+03  0.00000000000E+00 0. -1.
         -5    1    5    5    0  502  0.68064554334E+02  0.78221088342E-01 -0.14353159175E+03  0.15892198559E+03  0.47000000000E+01 0.  1.
         11    1    6    6    0    0  0.15111125664E+01 -0.43112979257E+02 -0.58985706211E+01  0.43540849521E+02  0.00000000000E+00 0. -1.
        -12    1    6    6    0    0  0.36052341369E+02  0.32981627885E+02  0.95345326687E+01  0.49784198391E+02  0.00000000000E+00 0.  1.
<mgrwt>
<rscale>  2 0.20801180E+03</rscale>
<asrwt>0</asrwt>
<pdfrwt beam="1">  1       21 0.19483513E-01 0.20989945E+03</pdfrwt>
<pdfrwt beam="2">  1       21 0.52535335E-01 0.20989945E+03</pdfrwt>
<totfact> 0.82665286E+04</totfact>
</mgrwt>
</event>
<event>
12    1  0.1013215E-001  0.3675086E+03  0.7546771E-02  0.1055667E+00
         21   -1    0    0  503  502  0.00000000000E+00  0.00000000000E+00  0.40059478810E+03  0.40059478810E+03  0.00000000000E+00 0.  1.
         21   -1    0    0  501  503 -0.00000000000E+00 -0.00000000000E+00 -0.53491119655E+03  0.53491119655E+03  0.00000000000E+00 0.  1.
          6    2    1    2  501    0 -0.29815142622E+03 -0.12939338748E+03  0.21737519100E+03  0.42683170223E+03  0.17116193116E+03 0.  0.
         24    2    3    3    0    0 -0.28361565677E+03 -0.97792027174E+02  0.23314148620E+03  0.38835312856E+03  0.80387054485E+02 0.  0.
         -6    2    1    2    0  502  0.29815142622E+03  0.12939338748E+03 -0.35169159945E+03  0.50867428243E+03  0.17153898331E+03 0.  0.
        -24    2    5    5    0    0  0.19231061670E+03  0.97197887905E+02 -0.14107292012E+03  0.27072230148E+03  0.83415783983E+02 0.  0.
          5    1    3    3  501    0 -0.14535769450E+02 -0.31601360310E+02 -0.15766295200E+02  0.38478573665E+02  0.47000000000E+01 0. -1.
        -11    1    4    4    0    0 -0.74396057620E+02 -0.54669346720E+02  0.40926782630E+02  0.10098768438E+03  0.00000000000E+00 0.  1.
         12    1    4    4    0    0 -0.20921959915E+03 -0.43122680454E+02  0.19221470357E+03  0.28736544418E+03  0.00000000000E+00 0. -1.
         -5    1    5    5    0  502  0.10584080952E+03  0.32195499579E+02 -0.21061867933E+03  0.23795198095E+03  0.47000000000E+01 0.  1.
         13    1    6    6    0    0  0.45753721026E+02  0.55212653333E+02 -0.15857019981E+02  0.73438989361E+02  0.00000000000E+00 0. -1.
        -14    1    6    6    0    0  0.14655689568E+03  0.41985234571E+02 -0.12521590014E+03  0.19728331212E+03  0.00000000000E+00 0.  1.
<mgrwt>
<rscale>  2 0.36746460E+03</rscale>
<asrwt>0</asrwt>
<pdfrwt beam="1">  1       21 0.61629967E-01 0.36750856E+03</pdfrwt>
<pdfrwt beam="2">  1       21 0.82294031E-01 0.36750856E+03</pdfrwt>
<totfact> 0.28338975E+03</totfact>
</mgrwt>
</event>
<event>
12    1  0.1013215E-001  0.2780561E+03  0.7546771E-02  0.1096957E+00
         21   -1    0    0  501  502  0.00000000000E+00  0.00000000000E+00  0.57790089103E+03  0.57790089103E+03  0.00000000000E+00 0.  1.
         21   -1    0    0  502  503 -0.00000000000E+00 -0.00000000000E+00 -0.21878739493E+03  0.21878739493E+03  0.00000000000E+00 0.  1.
         -6    2    1    2    0  503 -0.14655183296E+03  0.15781488925E+03 -0.70040410539E+02  0.28532906409E+03  0.17356277451E+03 0.  0.
        -24    2    3    3    0    0 -0.13188517268E+03  0.57346624981E+02 -0.39861325592E+01  0.16410926089E+03  0.78953315871E+02 0.  0.
          6    2    1    2  501    0  0.14655183296E+03 -0.15781488925E+03  0.42915390664E+03  0.51135922187E+03  0.17587552185E+03 0.  0.
         24    2    5    5    0    0  0.13833988099E+03 -0.72385871326E+02  0.36435891670E+03  0.40372078087E+03  0.76520661825E+02 0.  0.
          5    1    5    5  501    0  0.82119519676E+01 -0.85429017926E+02  0.64794989947E+02  0.10763844100E+03  0.47000000000E+01 0. -1.
        -13    1    6    6    0    0  0.62863704847E+02 -0.64616512508E+02  0.13669220326E+03  0.16374338920E+03  0.00000000000E+00 0.  1.
         14    1    6    6    0    0  0.75476176142E+02 -0.77693588184E+01  0.22766671344E+03  0.23997739166E+03  0.00000000000E+00 0. -1.
         -5    1    3    3    0  503 -0.14666660274E+02  0.10046826427E+03 -0.66054277980E+02  0.12121980320E+03  0.47000000000E+01 0.  1.
         13    1    4    4    0    0 -0.99019436097E+02  0.23388918105E+02  0.29797475050E+02  0.10601782744E+03  0.00000000000E+00 0. -1.
        -14    1    4    4    0    0 -0.32865736585E+02  0.33957706876E+02 -0.33783607609E+02  0.58091433453E+02  0.00000000000E+00 0.  1.
<mgrwt>
<rscale>  2 0.27769109E+03</rscale>
<asrwt>0</asrwt>
<pdfrwt beam="1">  1       21 0.88907829E-01 0.27805607E+03</pdfrwt>
<pdfrwt beam="2">  1       21 0.33659599E-01 0.27805607E+03</pdfrwt>
<totfact> 0.87214220E+03</totfact>
</mgrwt>
</event>
<event>
12    1  0.1013215E-001  0.1898591E+03  0.7546771E-02  0.1158926E+00
         21   -1    0    0  501  502  0.00000000000E+00  0.00000000000E+00  0.18175469470E+04  0.18175469470E+04  0.00000000000E+00 0. -1.
         21   -1    0    0  502  503 -0.00000000000E+00 -0.00000000000E+00 -0.22358589943E+02  0.22358589943E+02  0.00000000000E+00 0.  1.
         -6    2    1    2    0  503 -0.49125739854E+02  0.55147044442E+02  0.57588885256E+03  0.60591293126E+03  0.17328581863E+03 0.  0.
        -24    2    3    3    0    0 -0.62055482885E+02  0.22520468877E+01  0.18233535468E+03  0.20858245834E+03  0.80028155596E+02 0.  0.
          6    2    1    2  501    0  0.49125739854E+02 -0.55147044442E+02  0.12192995045E+04  0.12339926057E+04  0.17490550129E+03 0.  0.
         24    2    5    5    0    0 -0.33466030643E+02 -0.61787455478E+01  0.43017526863E+03  0.43903446559E+03  0.80884783112E+02 0.  0.
          5    1    5    5  501    0  0.82591770497E+02 -0.48968298894E+02  0.78912423587E+03  0.79495814009E+03  0.47000000000E+01 0. -1.
        -13    1    6    6    0    0  0.99680109088E+01  0.11586502949E+02  0.15700017557E+02  0.21911157965E+02  0.00000000000E+00 0.  1.
         14    1    6    6    0    0 -0.43434041552E+02 -0.17765248496E+02  0.41447525107E+03  0.41712330763E+03  0.00000000000E+00 0. -1.
         -5    1    3    3    0  503  0.12929743031E+02  0.52894997554E+02  0.39355349788E+03  0.39733047293E+03  0.47000000000E+01 0.  1.
         11    1    4    4    0    0 -0.32426617441E+02  0.10407152264E+02  0.17320902241E+03  0.17652523837E+03  0.00000000000E+00 0. -1.
        -12    1    4    4    0    0 -0.29628865443E+02 -0.81551053761E+01  0.91263322660E+01  0.32057219964E+02  0.00000000000E+00 0.  1.
<mgrwt>
<rscale>  2 0.18948521E+03</rscale>
<asrwt>0</asrwt>
<pdfrwt beam="1">  1       21 0.27962249E+00 0.18985908E+03</pdfrwt>
<pdfrwt beam="2">  1       21 0.34397845E-02 0.18985908E+03</pdfrwt>
<totfact> 0.22609356E+04</totfact>
</mgrwt>
</event>
<event>
12    1  0.1013215E-001  0.2235982E+03  0.7546771E-02  0.1131529E+00
         21   -1    0    0  501  502  0.00000000000E+00  0.00000000000E+00  0.22880083089E+04  0.22880083089E+04  0.00000000000E+00 0.  1.
         21   -1    0    0  502  503 -0.00000000000E+00 -0.00000000000E+00 -0.24914601840E+02  0.24914601840E+02  0.00000000000E+00 0.  1.
         -6    2    1    2    0  503  0.13452448908E+03 -0.40793522922E+02  0.71923039857E+03  0.75318557360E+03  0.17388269719E+03 0.  0.
        -24    2    3    3    0    0  0.83367483554E+02 -0.81701070600E+02  0.60517577018E+03  0.62157624670E+03  0.80586074432E+02 0.  0.
          6    2    1    2  501    0 -0.13452448908E+03  0.40793522922E+02  0.15438633085E+04  0.15597373371E+04  0.17177222094E+03 0.  0.
         24    2    5    5    0    0 -0.14188793950E+03  0.57142006491E+02  0.15194184088E+04  0.15290593900E+04  0.77413958597E+02 0.  0.
          5    1    5    5  501    0  0.73634504196E+01 -0.16348483569E+02  0.24444899671E+02  0.30677947080E+02  0.47000000000E+01 0. -1.
        -13    1    6    6    0    0 -0.46648674682E+02  0.15472337699E+02  0.21687261212E+03  0.22237181020E+03  0.00000000000E+00 0.  1.
         14    1    6    6    0    0 -0.95239264819E+02  0.41669668792E+02  0.13025457967E+04  0.13066875798E+04  0.00000000000E+00 0. -1.
         -5    1    3    3    0  503  0.51157005527E+02  0.40907547678E+02  0.11405462839E+03  0.13160932691E+03  0.47000000000E+01 0.  1.
         11    1    4    4    0    0  0.46042268277E+02 -0.72794530299E+02  0.53221458992E+03  0.53913941038E+03  0.00000000000E+00 0. -1.
        -12    1    4    4    0    0  0.37325215278E+02 -0.89065403012E+01  0.72961180264E+02  0.82436836312E+02  0.00000000000E+00 0.  1.
<mgrwt>
<rscale>  2 0.22318773E+03</rscale>
<asrwt>0</asrwt>
<pdfrwt beam="1">  1       21 0.35200111E+00 0.22359817E+03</pdfrwt>
<pdfrwt beam="2">  1       21 0.38330175E-02 0.22359817E+03</pdfrwt>
<totfact> 0.69092739E+03</totfact>
</mgrwt>
</event>
<event>
12    1  0.1013215E-001  0.1910711E+03  0.7546771E-02  0.1157700E+00
         21   -1    0    0  503  502  0.00000000000E+00  0.00000000000E+00  0.68222674662E+03  0.68222674662E+03  0.00000000000E+00 0. -1.
         21   -1    0    0  501  503 -0.00000000000E+00 -0.00000000000E+00 -0.85691773161E+02  0.85691773161E+02  0.00000000000E+00 0. -1.
          6    2    1    2  501    0 -0.32247367746E+02 -0.72852784197E+02  0.61630304671E+02  0.19991221538E+03  0.17268230515E+03 0.  0.
         24    2    3    3    0    0 -0.73294224525E+02 -0.34131599963E+02  0.82001812309E+02  0.13973528555E+03  0.79149499944E+02 0.  0.
         -6    2    1    2    0  502  0.32247367746E+02  0.72852784197E+02  0.53490466879E+03  0.56800630440E+03  0.17366846651E+03 0.  0.
        -24    2    5    5    0    0  0.70744610995E+02  0.14391507576E+02  0.27644201632E+03  0.30019145918E+03  0.92102162310E+02 0.  0.
          5    1    3    3  501    0  0.41046856779E+02 -0.38721184234E+02 -0.20371507637E+02  0.60176929827E+02  0.47000000000E+01 0. -1.
        -13    1    4    4    0    0 -0.52276569099E+01  0.68788455007E+01  0.55198121921E+02  0.55870202933E+02  0.00000000000E+00 0.  1.
         14    1    4    4    0    0 -0.68066567615E+02 -0.41010445464E+02  0.26803690387E+02  0.83865082617E+02  0.00000000000E+00 0. -1.
         -5    1    5    5    0  502 -0.38497243250E+02  0.58461276621E+02  0.25846265247E+03  0.26781484522E+03  0.47000000000E+01 0.  1.
         11    1    6    6    0    0  0.22415996751E+02 -0.80378978343E+01  0.22457737044E+03  0.22583640102E+03  0.00000000000E+00 0. -1.
        -12    1    6    6    0    0  0.48328614244E+02  0.22429405410E+02  0.51864645883E+02  0.74355058163E+02  0.00000000000E+00 0.  1.
<mgrwt>
<rscale>  2 0.19084671E+03</rscale>
<asrwt>0</asrwt>
<pdfrwt beam="1">  1       21 0.10495796E+00 0.19107108E+03</pdfrwt>
<pdfrwt beam="2">  1       21 0.13183350E-01 0.19107108E+03</pdfrwt>
<totfact> 0.36279462E+04</totfact>
</mgrwt>
</event>
<event>
12    1  0.1013215E-001  0.1967770E+03  0.7546771E-02  0.1152607E+00
         21   -1    0    0  503  502  0.00000000000E+00  0.00000000000E+00  0.85925352126E+03  0.85925352126E+03  0.00000000000E+00 0. -1.
         21   -1    0    0  501  503 -0.00000000000E+00 -0.00000000000E+00 -0.68611850864E+02  0.68611850864E+02  0.00000000000E+00 0. -1.
          6    2    1    2  501    0 -0.46934120749E+02 -0.81691199537E+02  0.12243238125E+03  0.23128454431E+03  0.17212375980E+03 0.  0.
         24    2    3    3    0    0  0.28270091967E+02 -0.59403199205E+01  0.77800660890E+02  0.11549184232E+03  0.80317727224E+02 0.  0.
         -6    2    1    2    0  502  0.46934120749E+02  0.81691199537E+02  0.66820928914E+03  0.69658082781E+03  0.17275685746E+03 0.  0.
        -24    2    5    5    0    0  0.80608410075E+02  0.48113792313E+02  0.27762920137E+03  0.30308839458E+03  0.77278384390E+02 0.  0.
          5    1    3    3  501    0 -0.75204212716E+02 -0.75750879616E+02  0.44631720359E+02  0.11579270199E+03  0.47000000000E+01 0.  1.
        -13    1    4    4    0    0  0.46277400009E+02 -0.67056876804E+01  0.13438115909E+02  0.48653334501E+02  0.00000000000E+00 0.  1.
         14    1    4    4    0    0 -0.18007308042E+02  0.76536775988E+00  0.64362544981E+02  0.66838507816E+02  0.00000000000E+00 0. -1.
         -5    1    5    5    0  502 -0.33674289326E+02  0.33577407224E+02  0.39058008778E+03  0.39349243323E+03  0.47000000000E+01 0.  1.
         13    1    6    6    0    0  0.14087592982E+02 -0.21228481306E+02  0.60662249571E+02  0.65795267441E+02  0.00000000000E+00 0. -1.
        -14    1    6    6    0    0  0.66520817092E+02  0.69342273619E+02  0.21696695180E+03  0.23729312714E+03  0.00000000000E+00 0.  1.
<mgrwt>
<rscale>  2 0.19663798E+03</rscale>
<asrwt>0</asrwt>
<pdfrwt beam="1">  1       21 0.13219284E+00 0.19677702E+03</pdfrwt>
<pdfrwt beam="2">  1       21 0.10555670E-01 0.19677702E+03</pdfrwt>
<totfact> 0.30478605E+04</totfact>
</mgrwt>
</event>
<event>
12    1  0.1013215E-001  0.1801104E+03  0.7546771E-02  0.1168774E+00
         21   -1    0    0  503  502  0.00000000000E+00  0.00000000000E+00  0.12150167323E+03  0.12150167323E+03  0.00000000000E+00 0. -1.
         21   -1    0    0  501  503 -0.00000000000E+00 -0.00000000000E+00 -0.30716070912E+03  0.30716070912E+03  0.00000000000E+00 0. -1.
          6    2    1    2  501    0 -0.19623020461E+02 -0.21385923662E+02 -0.10280351597E+02  0.18040353389E+03  0.17775637470E+03 0.  0.
         24    2    3    3    0    0 -0.49065999925E+02  0.17155023554E+02 -0.58561597815E+02  0.11180716089E+03  0.79809857198E+02 0.  0.
         -6    2    1    2    0  502  0.19623020461E+02  0.21385923662E+02 -0.17537868429E+03  0.24825884846E+03  0.17329844856E+03 0.  0.
        -24    2    5    5    0    0  0.78855095470E+02  0.12524836454E+02 -0.13217703000E+03  0.17426269647E+03  0.80757182413E+02 0.  0.
          5    1    3    3  501    0  0.29442979464E+02 -0.38540947216E+02  0.48281246218E+02  0.68596372997E+02  0.47000000000E+01 0. -1.
        -11    1    4    4    0    0 -0.76208730660E+01 -0.16627095671E+02 -0.55291603657E+02  0.58238298839E+02  0.00000000000E+00 0.  1.
         12    1    4    4    0    0 -0.41445126859E+02  0.33782119225E+02 -0.32699941585E+01  0.53568862051E+02  0.00000000000E+00 0. -1.
         -5    1    5    5    0  502 -0.59232075009E+02  0.88610872077E+01 -0.43201654287E+02  0.73996151991E+02  0.47000000000E+01 0.  1.
         11    1    6    6    0    0  0.39155915222E+02 -0.17685663877E+02 -0.11286859618E+03  0.12076956738E+03  0.00000000000E+00 0. -1.
        -12    1    6    6    0    0  0.39699180248E+02  0.30210500331E+02 -0.19308433827E+02  0.53493129087E+02  0.00000000000E+00 0.  1.
<mgrwt>
<rscale>  2 0.17900062E+03</rscale>
<asrwt>0</asrwt>
<pdfrwt beam="1">  1       21 0.18692565E-01 0.18011038E+03</pdfrwt>
<pdfrwt beam="2">  1       21 0.47255493E-01 0.18011038E+03</pdfrwt>
<totfact> 0.11267350E+05</totfact>
</mgrwt>
</event>
<event>
12    1  0.1013215E-001  0.1919386E+03  0.7546771E-02  0.1157324E+00
         21   -1    0    0  501  502  0.00000000000E+00  0.00000000000E+00  0.37233820403E+03  0.37233820403E+03  0.00000000000E+00 0. -1.
         21   -1    0    0  502  503 -0.00000000000E+00 -0.00000000000E+00 -0.12080306568E+03  0.12080306568E+03  0.00000000000E+00 0.  1.
         -6    2    1    2    0  503 -0.62229740648E+02 -0.37389826400E+02  0.16925423108E+02  0.19002062149E+03  0.17478794839E+03 0.  0.
        -24    2    3    3    0    0 -0.32590591771E+02 -0.92903685124E+02  0.25358495741E+01  0.12529491189E+03  0.77454135009E+02 0.  0.
          6    2    1    2  501    0  0.62229740648E+02  0.37389826400E+02  0.23460971525E+03  0.30312064823E+03  0.17767911851E+03 0.  0.
         24    2    5    5    0    0  0.91584419069E+02 -0.15507189474E+02  0.11193316600E+03  0.16625788058E+03  0.80526209786E+02 0.  0.
          5    1    5    5  501    0 -0.29354678420E+02  0.52897015874E+02  0.12267654925E+03  0.13686276765E+03  0.47000000000E+01 0. -1.
        -11    1    6    6    0    0  0.21713891047E+02 -0.18675506815E+02  0.87665209460E+02  0.92225032224E+02  0.00000000000E+00 0.  1.
         12    1    6    6    0    0  0.69870528022E+02  0.31683173401E+01  0.24267956537E+02  0.74032848353E+02  0.00000000000E+00 0. -1.
         -5    1    3    3    0  503 -0.29639148878E+02  0.55513858724E+02  0.14389573534E+02  0.64725709599E+02  0.47000000000E+01 0.  1.
         11    1    4    4    0    0  0.47070082195E+01 -0.22603090875E+02  0.32835463669E+02  0.40140046311E+02  0.00000000000E+00 0. -1.
        -12    1    4    4    0    0 -0.37297599990E+02 -0.70300594249E+02 -0.30299614095E+02  0.85154865575E+02  0.00000000000E+00 0.  1.
<mgrwt>
<rscale>  2 0.19126673E+03</rscale>
<asrwt>0</asrwt>
<pdfrwt beam="1">  1       21 0.57282800E-01 0.19193855E+03</pdfrwt>
<pdfrwt beam="2">  1       21 0.18585087E-01 0.19193855E+03</pdfrwt>
<totfact> 0.75738300E+04</totfact>
</mgrwt>
</event>
<event>
12    1  0.1013215E-001  0.1831508E+03  0.7546771E-02  0.1165000E+00
         21   -1    0    0  503  502  0.00000000000E+00  0.00000000000E+00  0.79847392298E+03  0.79847392298E+03  0.00000000000E+00 0. -1.
         21   -1    0    0  501  503 -0.00000000000E+00 -0.00000000000E+00 -0.99330800221E+02  0.99330800221E+02  0.00000000000E+00 0. -1.
          6    2    1    2  501    0 -0.44842888377E+02 -0.31294106894E+02  0.75967194007E+01  0.18241627530E+03  0.17386138612E+03 0.  0.
         24    2    3    3    0    0 -0.39747999056E+02 -0.47936468127E+01  0.69557853099E+02  0.11467039446E+03  0.81903125448E+02 0.  0.
         -6    2    1    2    0  502  0.44842888377E+02  0.31294106894E+02  0.69154640336E+03  0.71538844791E+03  0.17479701838E+03 0.  0.
        -24    2    5    5    0    0  0.88613158838E+02  0.18189395627E+02  0.60743019667E+03  0.61954901833E+03  0.81770387409E+02 0.  0.
          5    1    3    3  501    0 -0.50948893205E+01 -0.26500460081E+02 -0.61961133698E+02  0.67745880840E+02  0.47000000000E+01 0. -1.
        -11    1    4    4    0    0  0.16570093628E+02  0.21610450048E+02  0.31965014525E+02  0.41992162456E+02  0.00000000000E+00 0.  1.
         12    1    4    4    0    0 -0.56318092684E+02 -0.26404096861E+02  0.37592838573E+02  0.72678231999E+02  0.00000000000E+00 0. -1.
         -5    1    5    5    0  502 -0.43770270461E+02  0.13104711266E+02  0.84116206694E+02  0.95839429580E+02  0.47000000000E+01 0.  1.
         11    1    6    6    0    0  0.23471785270E+02 -0.31888790246E+02  0.18211069033E+03  0.18636556329E+03  0.00000000000E+00 0. -1.
        -12    1    6    6    0    0  0.65141373567E+02  0.50078185873E+02  0.42531950634E+03  0.43318345504E+03  0.00000000000E+00 0.  1.
<mgrwt>
<rscale>  2 0.18292717E+03</rscale>
<asrwt>0</asrwt>
<pdfrwt beam="1">  1       21 0.12284214E+00 0.18315077E+03</pdfrwt>
<pdfrwt beam="2">  1       21 0.15281662E-01 0.18315077E+03</pdfrwt>
<totfact> 0.19009402E+04</totfact>
</mgrwt>
</event>
<event>
12    1  0.1013215E-001  0.2307083E+03  0.7546771E-02  0.1126252E+00
         21   -1    0    0  501  502  0.00000000000E+00  0.00000000000E+00  0.17209362770E+02  0.17209362770E+02  0.00000000000E+00 0. -1.
         21   -1    0    0  502  503 -0.00000000000E+00 -0.00000000000E+00 -0.31884223032E+04  0.31884223032E+04  0.00000000000E+00 0.  1.
         -6    2    1    2    0  503 -0.85050305017E+02  0.12681324197E+03 -0.18728855905E+04  0.18869655791E+04  0.17211481298E+03 0.  0.
        -24    2    3    3    0    0 -0.32094361305E+02  0.61085870304E+02 -0.52802622838E+03  0.53945186367E+03  0.86226931888E+02 0.  0.
          6    2    1    2  501    0  0.85050305017E+02 -0.12681324197E+03 -0.12983273499E+04  0.13186660869E+04  0.17294851369E+03 0.  0.
         24    2    5    5    0    0  0.68713388627E+02 -0.10146643507E+03 -0.48266538558E+03  0.50243334706E+03  0.66756472219E+02 0.  0.
          5    1    5    5  501    0  0.16336916390E+02 -0.25346806900E+02 -0.81566196435E+03  0.81623273982E+03  0.47000000000E+01 0. -1.
        -11    1    6    6    0    0  0.63372464594E+01 -0.34413792577E+02 -0.24926598187E+03  0.25171014983E+03  0.00000000000E+00 0.  1.
         12    1    6    6    0    0  0.62376142167E+02 -0.67052642496E+02 -0.23339940371E+03  0.25072319723E+03  0.00000000000E+00 0. -1.
         -5    1    3    3    0  503 -0.52955943711E+02  0.65727371669E+02 -0.13448593621E+04  0.13475137154E+04  0.47000000000E+01 0.  1.
         13    1    4    4    0    0  0.19856422471E+02  0.53662470930E+02 -0.30644222056E+03  0.31173830826E+03  0.00000000000E+00 0. -1.
        -14    1    4    4    0    0 -0.51950783776E+02  0.74233993743E+01 -0.22158400782E+03  0.22771355540E+03  0.00000000000E+00 0.  1.
<mgrwt>
<rscale>  2 0.23055211E+03</rscale>
<asrwt>0</asrwt>
<pdfrwt beam="1">  1       21 0.26475949E-02 0.23070835E+03</pdfrwt>
<pdfrwt beam="2">  1       21 0.49052639E+00 0.23070835E+03</pdfrwt>
<totfact> 0.16250877E+03</totfact>
</mgrwt>
</event>
<event>
12    1  0.1013215E-001  0.1954028E+03  0.7546771E-02  0.1153684E+00
         21   -1    0    0  503  502  0.00000000000E+00  0.00000000000E+00  0.33661538044E+03  0.33661538044E+03  0.00000000000E+00 0.  1.
         21   -1    0    0  501  503 -0.00000000000E+00 -0.00000000000E+00 -0.12925075919E+03  0.12925075919E+03  0.00000000000E+00 0.  1.
          6    2    1    2  501    0  0.68418880965E+02 -0.59468092601E+02  0.22127332857E+02  0.19661701203E+03  0.17306366820E+03 0.  0.
         24    2    3    3    0    0  0.31082905886E+02 -0.83087489548E+02  0.63658661735E+02  0.13579931538E+03  0.80742497402E+02 0.  0.
         -6    2    1    2    0  502 -0.68418880965E+02  0.59468092601E+02  0.18523728840E+03  0.26924912760E+03  0.17310298204E+03 0.  0.
        -24    2    5    5    0    0  0.24828977344E+01  0.12431308333E+02  0.19911650950E+02  0.83254026338E+02  0.79837690660E+02 0.  0.
          5    1    3    3  501    0  0.37335975079E+02  0.23619396948E+02 -0.41531328878E+02  0.60817696649E+02  0.47000000000E+01 0. -1.
        -13    1    4    4    0    0  0.23435858003E+02 -0.92116134547E+02  0.29305605825E+02  0.99465774098E+02  0.00000000000E+00 0.  1.
         14    1    4    4    0    0  0.76470478825E+01  0.90286449986E+01  0.34353055911E+02  0.36333541284E+02  0.00000000000E+00 0. -1.
         -5    1    5    5    0  502 -0.70901778699E+02  0.47036784268E+02  0.16532563745E+03  0.18599510126E+03  0.47000000000E+01 0.  1.
         11    1    6    6    0    0 -0.57320251815E+01  0.30205783209E+02 -0.21452433440E+02  0.37489363191E+02  0.00000000000E+00 0. -1.
        -12    1    6    6    0    0  0.82149229160E+01 -0.17774474876E+02  0.41364084390E+02  0.45764663148E+02  0.00000000000E+00 0.  1.
<mgrwt>
<rscale>  2 0.19539406E+03</rscale>
<asrwt>0</asrwt>
<pdfrwt beam="1">  1       21 0.51786981E-01 0.19540276E+03</pdfrwt>
<pdfrwt beam="2">  1       21 0.19884732E-01 0.19540276E+03</pdfrwt>
<totfact> 0.82523535E+04</totfact>
</mgrwt>
</event>
<event>
12    1  0.1013215E-001  0.2373798E+03  0.7546771E-02  0.1121651E+00
         21   -1    0    0  501  502  0.00000000000E+00  0.00000000000E+00  0.13517419535E+04  0.13517419535E+04  0.00000000000E+00 0. -1.
         21   -1    0    0  502  503 -0.00000000000E+00 -0.00000000000E+00 -0.47140011750E+02  0.47140011750E+02  0.00000000000E+00 0. -1.
         -6    2    1    2    0  503 -0.57908414096E+02  0.15187376320E+03  0.89174077435E+03  0.92264301771E+03  0.17219031661E+03 0.  0.
        -24    2    3    3    0    0 -0.13281871573E+02  0.16469988591E+03  0.77894732156E+03  0.80057545154E+03  0.82823084375E+02 0.  0.
          6    2    1    2  501    0  0.57908414096E+02 -0.15187376320E+03  0.41286116744E+03  0.47623894757E+03  0.17300337347E+03 0.  0.
         24    2    5    5    0    0  0.33568732070E+02 -0.12348998523E+02  0.11714795303E+03  0.14832436226E+03  0.83648765708E+02 0.  0.
          5    1    5    5  501    0  0.24339682026E+02 -0.13952476468E+03  0.29571321441E+03  0.32791458531E+03  0.47000000000E+01 0. -1.
        -13    1    6    6    0    0  0.97237868992E+01  0.31840457314E+02  0.77492194777E+02  0.84341016149E+02  0.00000000000E+00 0.  1.
         14    1    6    6    0    0  0.23844945171E+02 -0.44189455838E+02  0.39655758252E+02  0.63983346114E+02  0.00000000000E+00 0. -1.
         -5    1    3    3    0  503 -0.44626542522E+02 -0.12826122712E+02  0.11279345279E+03  0.12206756618E+03  0.47000000000E+01 0.  1.
         11    1    4    4    0    0 -0.34046315220E+01  0.14323759047E+03  0.48608028897E+03  0.50675698926E+03  0.00000000000E+00 0. -1.
        -12    1    4    4    0    0 -0.98772400515E+01  0.21462295448E+02  0.29286703259E+03  0.29381846227E+03  0.00000000000E+00 0.  1.
<mgrwt>
<rscale>  2 0.23723173E+03</rscale>
<asrwt>0</asrwt>
<pdfrwt beam="1">  1       21 0.20796027E+00 0.23737985E+03</pdfrwt>
<pdfrwt beam="2">  1       21 0.72523105E-02 0.23737985E+03</pdfrwt>
<totfact> 0.16449213E+04</totfact>
</mgrwt>
</event>
<event>
12    1  0.1013215E-001  0.2048013E+03  0.7546771E-02  0.1145794E+00
         21   -1    0    0  501  502  0.00000000000E+00  0.00000000000E+00  0.42667899283E+03  0.42667899283E+03  0.00000000000E+00 0.  1.
         21   -1    0    0  502  503 -0.00000000000E+00 -0.00000000000E+00 -0.36003020569E+03  0.36003020569E+03  0.00000000000E+00 0.  1.
         -6    2    1    2    0  503  0.46008445325E+02 -0.99694847471E+02 -0.30212813366E+03  0.36487986652E+03  0.17262696252E+03 0.  0.
        -24    2    3    3    0    0  0.93283057595E+02 -0.45173381735E+02 -0.18243100970E+03  0.22503362711E+03  0.81343080713E+02 0.  0.
          6    2    1    2  501    0 -0.46008445325E+02  0.99694847471E+02  0.36877692080E+03  0.42182933201E+03  0.17288067669E+03 0.  0.
         24    2    5    5    0    0 -0.83760058496E+02  0.11395794126E+03  0.30834326869E+03  0.34900806829E+03  0.82029876337E+02 0.  0.
          5    1    5    5  501    0  0.37751613171E+02 -0.14263093786E+02  0.60433652118E+02  0.72821263719E+02  0.47000000000E+01 0. -1.
        -13    1    6    6    0    0 -0.97958216560E+02  0.96816729105E+02  0.23526037316E+03  0.27261095797E+03  0.00000000000E+00 0.  1.
         14    1    6    6    0    0  0.14198158064E+02  0.17141212152E+02  0.73082895530E+02  0.76397110322E+02  0.00000000000E+00 0. -1.
         -5    1    3    3    0  503 -0.47274612270E+02 -0.54521465736E+02 -0.11969712397E+03  0.13984623941E+03  0.47000000000E+01 0.  1.
         13    1    4    4    0    0 -0.11528685273E+02  0.81851937596E+01 -0.20023400215E+02  0.24512130409E+02  0.00000000000E+00 0. -1.
        -14    1    4    4    0    0  0.10481174287E+03 -0.53358575495E+02 -0.16240760948E+03  0.20052149670E+03  0.00000000000E+00 0.  1.
<mgrwt>
<rscale>  2 0.20474774E+03</rscale>
<asrwt>0</asrwt>
<pdfrwt beam="1">  1       21 0.65642922E-01 0.20480129E+03</pdfrwt>
<pdfrwt beam="2">  1       21 0.55389262E-01 0.20480129E+03</pdfrwt>
<totfact> 0.64966222E+03</totfact>
</mgrwt>
</event>
<event>
12    1  0.1013215E-001  0.2737149E+03  0.7546771E-02  0.1099569E+00
         21   -1    0    0  501  502  0.00000000000E+00  0.00000000000E+00  0.48549151756E+03  0.48549151756E+03  0.00000000000E+00 0.  1.
         21   -1    0    0  502  503 -0.00000000000E+00 -0.00000000000E+00 -0.24945965030E+03  0.24945965030E+03  0.00000000000E+00 0. -1.
         -6    2    1    2    0  503  0.20447658590E+03  0.52896614938E+02 -0.11116975265E+03  0.29283261097E+03  0.16965700130E+03 0.  0.
        -24    2    3    3    0    0  0.82154111290E+02  0.51941537889E+02 -0.11526448956E+03  0.17034768603E+03  0.79279317753E+02 0.  0.
          6    2    1    2  501    0 -0.20447658590E+03 -0.52896614938E+02  0.34720161990E+03  0.44211855689E+03  0.17410091162E+03 0.  0.
         24    2    5    5    0    0 -0.13276214279E+03 -0.81174108940E+02  0.16724300030E+03  0.24628757673E+03  0.92045243140E+02 0.  0.
          5    1    5    5  501    0 -0.71714443110E+02  0.28277494003E+02  0.17995861960E+03  0.19583098015E+03  0.47000000000E+01 0. -1.
        -13    1    6    6    0    0 -0.92968879819E+02 -0.49302419822E+01  0.10367385039E+03  0.13934054383E+03  0.00000000000E+00 0.  1.
         14    1    6    6    0    0 -0.39793262972E+02 -0.76243866958E+02  0.63569149908E+02  0.10694703290E+03  0.00000000000E+00 0. -1.
         -5    1    3    3    0  503  0.12232247461E+03  0.95507704832E+00  0.40947369088E+01  0.12248492494E+03  0.47000000000E+01 0.  1.
         11    1    4    4    0    0  0.75445247486E+02  0.63660149328E+02 -0.64740906899E+02  0.11805077300E+03  0.00000000000E+00 0. -1.
        -12    1    4    4    0    0  0.67088638039E+01 -0.11718611439E+02 -0.50523582660E+02  0.52296913029E+02  0.00000000000E+00 0.  1.
<mgrwt>
<rscale>  2 0.27301097E+03</rscale>
<asrwt>0</asrwt>
<pdfrwt beam="1">  1       21 0.74691003E-01 0.27371491E+03</pdfrwt>
<pdfrwt beam="2">  1       21 0.38378408E-01 0.27371491E+03</pdfrwt>
<totfact> 0.10010766E+04</totfact>
</mgrwt>
</event>
<event>
12    1  0.1013215E-001  0.2430448E+03  0.7546771E-02  0.1117948E+00
         21   -1    0    0  503  502  0.00000000000E+00  0.00000000000E+00  0.69095778224E+02  0.69095778224E+02  0.00000000000E+00 0.  1.
         21   -1    0    0  501  503 -0.00000000000E+00 -0.00000000000E+00 -0.86216437395E+03  0.86216437395E+03  0.00000000000E+00 0.  1.
          6    2    1    2  501    0  0.30196889074E+02  0.16606668528E+03 -0.44787257707E+03  0.50908595218E+03  0.17346084671E+03 0.  0.
         24    2    3    3    0    0 -0.36114769687E+02  0.11901774689E+03 -0.35956239130E+03  0.38895428440E+03  0.80813497969E+02 0.  0.
         -6    2    1    2    0  502 -0.30196889074E+02 -0.16606668528E+03 -0.34519601865E+03  0.42217420000E+03  0.17487357656E+03 0.  0.
        -24    2    5    5    0    0  0.16624925389E+02 -0.10992899142E+03 -0.31459252997E+03  0.34278662855E+03  0.78571251075E+02 0.  0.
          5    1    3    3  501    0  0.66311658761E+02  0.47048938390E+02 -0.88310185775E+02  0.12013166778E+03  0.47000000000E+01 0. -1.
        -13    1    4    4    0    0 -0.30714010264E+02  0.62374811490E+02 -0.91493179352E+02  0.11491287745E+03  0.00000000000E+00 0.  1.
         14    1    4    4    0    0 -0.54007594232E+01  0.56642935400E+02 -0.26806921194E+03  0.27404140695E+03  0.00000000000E+00 0. -1.
         -5    1    5    5    0  502 -0.46821814463E+02 -0.56137693859E+02 -0.30603488680E+02  0.79387571451E+02  0.47000000000E+01 0.  1.
         13    1    6    6    0    0  0.38927066875E+02 -0.20892063641E+02 -0.94250768107E+02  0.10409131639E+03  0.00000000000E+00 0. -1.
        -14    1    6    6    0    0 -0.22302141486E+02 -0.89036927780E+02 -0.22034176187E+03  0.23869531216E+03  0.00000000000E+00 0.  1.
<mgrwt>
<rscale>  2 0.24279076E+03</rscale>
<asrwt>0</asrwt>
<pdfrwt beam="1">  1       21 0.10630121E-01 0.24304478E+03</pdfrwt>
<pdfrwt beam="2">  1       21 0.13264066E+00 0.24304478E+03</pdfrwt>
<totfact> 0.29084147E+04</totfact>
</mgrwt>
</event>
<event>
12    1  0.1013215E-001  0.1790173E+03  0.7546771E-02  0.1168861E+00
         21   -1    0    0  501  502  0.00000000000E+00  0.00000000000E+00  0.60829983482E+02  0.60829983482E+02  0.00000000000E+00 0. -1.
         21   -1    0    0  502  503 -0.00000000000E+00 -0.00000000000E+00 -0.52599742129E+03  0.52599742129E+03  0.00000000000E+00 0. -1.
         -6    2    1    2    0  503  0.46822620999E+02  0.86013346124E+00 -0.24056151947E+03  0.29960798326E+03  0.17234268572E+03 0.  0.
        -24    2    3    3    0    0  0.97401845381E+01 -0.49017817134E+02 -0.70028171933E+02  0.11804083406E+03  0.80821259886E+02 0.  0.
          6    2    1    2  501    0 -0.46822620999E+02 -0.86013346124E+00 -0.22460591834E+03  0.28721942151E+03  0.17278333216E+03 0.  0.
         24    2    5    5    0    0 -0.69567055703E+02  0.54403298444E+02 -0.17025748635E+03  0.20630466219E+03  0.75991498618E+02 0.  0.
          5    1    5    5  501    0  0.22744434704E+02 -0.55263431905E+02 -0.54348431993E+02  0.80914759321E+02  0.47000000000E+01 0. -1.
        -13    1    6    6    0    0 -0.17749988131E+01  0.77514023672E+01  0.71792374570E+01  0.10713370614E+02  0.00000000000E+00 0.  1.
         14    1    6    6    0    0 -0.67792056889E+02  0.46651896077E+02 -0.17743672381E+03  0.19559129158E+03  0.00000000000E+00 0. -1.
         -5    1    3    3    0  503  0.37082436461E+02  0.49877950595E+02 -0.17053334753E+03  0.18156714920E+03  0.47000000000E+01 0.  1.
         11    1    4    4    0    0  0.29675383460E+02 -0.26220341760E+02  0.22612551671E+01  0.39664190152E+02  0.00000000000E+00 0. -1.
        -12    1    4    4    0    0 -0.19935198922E+02 -0.22797475374E+02 -0.72289427101E+02  0.78376643906E+02  0.00000000000E+00 0.  1.
<mgrwt>
<rscale>  2 0.17891084E+03</rscale>
<asrwt>0</asrwt>
<pdfrwt beam="1">  1       21 0.93584589E-02 0.17901725E+03</pdfrwt>
<pdfrwt beam="2">  1       21 0.80922681E-01 0.17901725E+03</pdfrwt>
<totfact> 0.12284379E+05</totfact>
</mgrwt>
</event>
<event>
12    1  0.1013215E-001  0.2389950E+03  0.7546771E-02  0.1121915E+00
         21   -1    0    0  501  502  0.00000000000E+00  0.00000000000E+00  0.25192809396E+02  0.25192809396E+02  0.00000000000E+00 0. -1.
         21   -1    0    0  502  503 -0.00000000000E+00 -0.00000000000E+00 -0.21970623899E+04  0.21970623899E+04  0.00000000000E+00 0.  1.
         -6    2    1    2    0  503 -0.11974183886E+03  0.94312678771E+02 -0.11792990210E+04  0.12032725267E+04  0.18408042618E+03 0.  0.
        -24    2    3    3    0    0 -0.24060152483E+02  0.86279701842E+01 -0.17669744818E+03  0.19246648291E+03  0.71888984170E+02 0.  0.
          6    2    1    2  501    0  0.11974183886E+03 -0.94312678771E+02 -0.99257055947E+03  0.10189826725E+04  0.17290570275E+03 0.  0.
         24    2    5    5    0    0  0.14892004072E+03 -0.10025280589E+03 -0.89963727724E+03  0.92128242934E+03  0.84771931640E+02 0.  0.
          5    1    5    5  501    0 -0.29178201858E+02  0.59401271214E+01 -0.92933282233E+02  0.97700243196E+02  0.47000000000E+01 0. -1.
        -11    1    6    6    0    0  0.42024737331E+02 -0.26536518990E+02 -0.46540594556E+03  0.46805230429E+03  0.00000000000E+00 0.  1.
         12    1    6    6    0    0  0.10689530339E+03 -0.73716286902E+02 -0.43423133168E+03  0.45323012505E+03  0.00000000000E+00 0. -1.
         -5    1    3    3    0  503 -0.95681686376E+02  0.85684708587E+02 -0.10026015728E+04  0.10108060438E+04  0.47000000000E+01 0.  1.
         11    1    4    4    0    0 -0.43775593093E+02  0.25197754939E+02 -0.11426991478E+03  0.12493535460E+03  0.00000000000E+00 0. -1.
        -12    1    4    4    0    0  0.19715440610E+02 -0.16569784755E+02 -0.62427533402E+02  0.67531128319E+02  0.00000000000E+00 0.  1.
<mgrwt>
<rscale>  2 0.23684182E+03</rscale>
<asrwt>0</asrwt>
<pdfrwt beam="1">  1       21 0.38758152E-02 0.23899496E+03</pdfrwt>
<pdfrwt beam="2">  1       21 0.33800974E+00 0.23899496E+03</pdfrwt>
<totfact> 0.80814076E+03</totfact>
</mgrwt>
</event>
<event>
12    1  0.1013215E-001  0.1945801E+03  0.7546771E-02  0.1155193E+00
         21   -1    0    0  503  502  0.00000000000E+00  0.00000000000E+00  0.61766547442E+03  0.61766547442E+03  0.00000000000E+00 0. -1.
         21   -1    0    0  501  503 -0.00000000000E+00 -0.00000000000E+00 -0.74147028666E+02  0.74147028666E+02  0.00000000000E+00 0. -1.
          6    2    1    2  501    0 -0.33104117145E+02  0.74199031098E+02  0.11947326980E+03  0.22525517164E+03  0.17281392122E+03 0.  0.
         24    2    3    3    0    0  0.33170643419E+02  0.16447723003E+02  0.15474358644E+02  0.89000186429E+02  0.79440280916E+02 0.  0.
         -6    2    1    2    0  502  0.33104117145E+02 -0.74199031098E+02  0.42404517596E+03  0.46655733145E+03  0.17680512856E+03 0.  0.
        -24    2    5    5    0    0  0.36468713247E+02 -0.10694340856E+03  0.40511180216E+03  0.42829406700E+03  0.80952923953E+02 0.  0.
          5    1    3    3  501    0 -0.66274760564E+02  0.57751308094E+02  0.10399891115E+03  0.13625498521E+03  0.47000000000E+01 0. -1.
        -13    1    4    4    0    0  0.29870019928E+02  0.47586695696E+02  0.12395901527E+02  0.57535815562E+02  0.00000000000E+00 0.  1.
         14    1    4    4    0    0  0.33006234904E+01 -0.31138972693E+02  0.30784571174E+01  0.31464370866E+02  0.00000000000E+00 0. -1.
         -5    1    5    5    0  502 -0.33645961019E+01  0.32744377466E+02  0.18933373796E+02  0.38263264443E+02  0.47000000000E+01 0.  1.
         13    1    6    6    0    0  0.25144093870E+02 -0.13654270009E+02  0.20763895300E+03  0.20960104807E+03  0.00000000000E+00 0. -1.
        -14    1    6    6    0    0  0.11324619378E+02 -0.93289138554E+02  0.19747284916E+03  0.21869301894E+03  0.00000000000E+00 0.  1.
<mgrwt>
<rscale>  2 0.19366893E+03</rscale>
<asrwt>0</asrwt>
<pdfrwt beam="1">  1       21 0.95025454E-01 0.19458014E+03</pdfrwt>
<pdfrwt beam="2">  1       21 0.11407236E-01 0.19458014E+03</pdfrwt>
<totfact> 0.59416316E+04</totfact>
</mgrwt>
</event>
<event>
12    1  0.1013215E-001  0.2000290E+03  0.7546771E-02  0.1149889E+00
         21   -1    0    0  503  502  0.00000000000E+00  0.00000000000E+00  0.46828654855E+03  0.46828654855E+03  0.00000000000E+00 0. -1.
         21   -1    0    0  501  503 -0.00000000000E+00 -0.00000000000E+00 -0.88325482035E+02  0.88325482035E+02  0.00000000000E+00 0. -1.
          6    2    1    2  501    0  0.59570266327E+02 -0.79101043361E+02  0.13710035064E+03  0.24250382381E+03  0.17379875352E+03 0.  0.
         24    2    3    3    0    0 -0.19131596954E+02 -0.63423346767E+00  0.87755592754E+02  0.12081562114E+03  0.80801918274E+02 0.  0.
         -6    2    1    2    0  502 -0.59570266327E+02  0.79101043361E+02  0.24286071588E+03  0.31410820678E+03  0.17284978032E+03 0.  0.
        -24    2    5    5    0    0 -0.26775634380E+02  0.75430573687E+02  0.57564137343E+02  0.12583746490E+03  0.78196749422E+02 0.  0.
          5    1    3    3  501    0  0.78701863281E+02 -0.78466809893E+02  0.49344757884E+02  0.12168820267E+03  0.47000000000E+01 0. -1.
        -11    1    4    4    0    0  0.67545716194E+01 -0.27493397340E+00  0.93952684150E+02  0.94195576783E+02  0.00000000000E+00 0.  1.
         12    1    4    4    0    0 -0.25886168573E+02 -0.35929949427E+00 -0.61970913966E+01  0.26620044352E+02  0.00000000000E+00 0. -1.
         -5    1    5    5    0  502 -0.32794631947E+02  0.36704696737E+01  0.18529657854E+03  0.18827074189E+03  0.47000000000E+01 0.  1.
         11    1    6    6    0    0 -0.40365944434E+02  0.52381158339E+02  0.70029347953E+02  0.96318766571E+02  0.00000000000E+00 0. -1.
        -12    1    6    6    0    0  0.13590310054E+02  0.23049415348E+02 -0.12465210610E+02  0.29518698325E+02  0.00000000000E+00 0.  1.
<mgrwt>
<rscale>  2 0.19982268E+03</rscale>
<asrwt>0</asrwt>
<pdfrwt beam="1">  1       21 0.72044083E-01 0.20002899E+03</pdfrwt>
<pdfrwt beam="2">  1       21 0.13588536E-01 0.20002899E+03</pdfrwt>
<totfact> 0.81332089E+04</totfact>
</mgrwt>
</event>
<event>
12    1  0.1013215E-001  0.3996684E+03  0.7546771E-02  0.1043925E+00
         21   -1    0    0  503  502  0.00000000000E+00  0.00000000000E+00  0.36911546962E+03  0.36911546962E+03  0.00000000000E+00 0. -1.
         21   -1    0    0  501  503 -0.00000000000E+00 -0.00000000000E+00 -0.44392793839E+03  0.44392793839E+03  0.00000000000E+00 0. -1.
          6    2    1    2  501    0  0.22516177766E+03  0.28068545593E+03 -0.10300175875E+03  0.41238210211E+03  0.17311119128E+03 0.  0.
         24    2    3    3    0    0  0.20308740580E+03  0.27990914869E+03 -0.51618839533E+02  0.35625568291E+03  0.68264054170E+02 0.  0.
         -6    2    1    2    0  502 -0.22516177766E+03 -0.28068545593E+03  0.28189289974E+02  0.40066130590E+03  0.17393301783E+03 0.  0.
        -24    2    5    5    0    0 -0.15302202319E+03 -0.15807408251E+03 -0.47377555585E+02  0.23950879673E+03  0.81955328037E+02 0.  0.
          5    1    3    3  501    0  0.22074371858E+02  0.77630723772E+00 -0.51382919213E+02  0.56126419205E+02  0.47000000000E+01 0. -1.
        -11    1    4    4    0    0  0.36946446881E+02  0.29778903334E+02  0.12787972131E+02  0.49146263868E+02  0.00000000000E+00 0.  1.
         12    1    4    4    0    0  0.16614095892E+03  0.25013024536E+03 -0.64406811664E+02  0.30710941904E+03  0.00000000000E+00 0. -1.
         -5    1    5    5    0  502 -0.72139754475E+02 -0.12261137342E+03  0.75566845559E+02  0.16115250918E+03  0.47000000000E+01 0.  1.
         11    1    6    6    0    0 -0.11114551198E+03 -0.15437745921E+03 -0.52030255290E+02  0.19721275874E+03  0.00000000000E+00 0. -1.
        -12    1    6    6    0    0 -0.41876511204E+02 -0.36966233036E+01  0.46526997053E+01  0.42296037983E+02  0.00000000000E+00 0.  1.
<mgrwt>
<rscale>  2 0.39957915E+03</rscale>
<asrwt>0</asrwt>
<pdfrwt beam="1">  1       21 0.56786995E-01 0.39966842E+03</pdfrwt>
<pdfrwt beam="2">  1       21 0.68296606E-01 0.39966842E+03</pdfrwt>
<totfact> 0.51067308E+03</totfact>
</mgrwt>
</event>
<event>
12    1  0.1013215E-001  0.1960399E+03  0.7546771E-02  0.1153745E+00
         21   -1    0    0  503  502  0.00000000000E+00  0.00000000000E+00  0.35891169658E+03  0.35891169658E+03  0.00000000000E+00 0.  1.
         21   -1    0    0  501  503 -0.00000000000E+00 -0.00000000000E+00 -0.32515778909E+03  0.32515778909E+03  0.00000000000E+00 0.  1.
          6    2    1    2  501    0  0.62499106803E+02  0.67104414773E+02 -0.26418504996E+03  0.32897627512E+03  0.17327004396E+03 0.  0.
         24    2    3    3    0    0 -0.24831270992E+02  0.24643509283E+02 -0.18164250811E+03  0.20144241845E+03  0.79756834384E+02 0.  0.
         -6    2    1    2    0  502 -0.62499106803E+02 -0.67104414773E+02  0.29793895745E+03  0.35509321055E+03  0.17004242111E+03 0.  0.
        -24    2    5    5    0    0  0.11079768371E+01  0.24520814184E+02  0.81302580452E+02  0.11138343743E+03  0.72067070190E+02 0.  0.
          5    1    3    3  501    0  0.87330377795E+02  0.42460905490E+02 -0.82542541854E+02  0.12753385667E+03  0.47000000000E+01 0. -1.
        -13    1    4    4    0    0  0.92529359266E+01  0.45339467498E+02 -0.11216059104E+03  0.12133129159E+03  0.00000000000E+00 0.  1.
         14    1    4    4    0    0 -0.34084206918E+02 -0.20695958215E+02 -0.69481917071E+02  0.80111126865E+02  0.00000000000E+00 0. -1.
         -5    1    5    5    0  502 -0.63607083640E+02 -0.91625228957E+02  0.21663637700E+03  0.24370977311E+03  0.47000000000E+01 0.  1.
         13    1    6    6    0    0  0.36378934032E+01  0.35926772818E+02  0.77808984629E+01  0.36939269815E+02  0.00000000000E+00 0. -1.
        -14    1    6    6    0    0 -0.25299165660E+01 -0.11405958634E+02  0.73521681989E+02  0.74444167620E+02  0.00000000000E+00 0.  1.
<mgrwt>
<rscale>  2 0.19532430E+03</rscale>
<asrwt>0</asrwt>
<pdfrwt beam="1">  1       21 0.55217184E-01 0.19603992E+03</pdfrwt>
<pdfrwt beam="2">  1       21 0.50024275E-01 0.19603992E+03</pdfrwt>
<totfact> 0.11748359E+04</totfact>
</mgrwt>
</event>
<event>
12    1  0.1013215E-001  0.1823844E+03  0.7546771E-02  0.1165712E+00
         21   -1    0    0  501  502  0.00000000000E+00  0.00000000000E+00  0.11650668312E+03  0.11650668312E+03  0.00000000000E+00 0. -1.
         21   -1    0    0  502  503 -0.00000000000E+00 -0.00000000000E+00 -0.72815203499E+03  0.72815203499E+03  0.00000000000E+00 0. -1.
         -6    2    1    2    0  503 -0.55862277373E+02  0.11264745720E+02 -0.63585495650E+03  0.66149497382E+03  0.17325295425E+03 0.  0.
        -24    2    3    3    0    0 -0.63804637831E+01 -0.56209306193E+02 -0.36223739280E+03  0.37533093219E+03  0.80356602063E+02 0.  0.
          6    2    1    2  501    0  0.55862277373E+02 -0.11264745720E+02  0.24209604626E+02  0.18316374430E+03  0.17238144836E+03 0.  0.
         24    2    5    5    0    0  0.20611475565E+02 -0.39027849092E+02 -0.44302406167E+02  0.10113085724E+03  0.79477928781E+02 0.  0.
          5    1    5    5  501    0  0.35250801808E+02  0.27763103372E+02  0.68512010793E+02  0.82032887063E+02  0.47000000000E+01 0. -1.
        -13    1    6    6    0    0 -0.26394847286E+02 -0.97881253248E+01 -0.35129623418E+02  0.45017616576E+02  0.00000000000E+00 0.  1.
         14    1    6    6    0    0  0.47006322851E+02 -0.29239723767E+02 -0.91727827485E+01  0.56113240660E+02  0.00000000000E+00 0. -1.
         -5    1    3    3    0  503 -0.49481813590E+02  0.67474051913E+02 -0.27361756370E+03  0.28616404163E+03  0.47000000000E+01 0.  1.
         13    1    4    4    0    0 -0.37374036160E+02 -0.13801285802E+02 -0.95609450633E+02  0.10357828498E+03  0.00000000000E+00 0. -1.
        -14    1    4    4    0    0  0.30993572377E+02 -0.42408020390E+02 -0.26662794216E+03  0.27175264721E+03  0.00000000000E+00 0.  1.
<mgrwt>
<rscale>  2 0.18217714E+03</rscale>
<asrwt>0</asrwt>
<pdfrwt beam="1">  1       21 0.17924105E-01 0.18238441E+03</pdfrwt>
<pdfrwt beam="2">  1       21 0.11202339E+00 0.18238441E+03</pdfrwt>
<totfact> 0.17798563E+04</totfact>
</mgrwt>
</event>
<event>
12    1  0.1013215E-001  0.2008376E+03  0.7546771E-02  0.1149425E+00
         21   -1    0    0  503  502  0.00000000000E+00  0.00000000000E+00  0.39894631248E+03  0.39894631248E+03  0.00000000000E+00 0.  1.
         21   -1    0    0  501  503 -0.00000000000E+00 -0.00000000000E+00 -0.10410616937E+03  0.10410616937E+03  0.00000000000E+00 0.  1.
          6    2    1    2  501    0 -0.49124380147E+02 -0.83623698769E+02  0.19695236753E+03  0.28129340492E+03  0.17586818034E+03 0.  0.
         24    2    3    3    0    0 -0.53236589264E+02 -0.42103206891E+02  0.33070478840E+02  0.11211827392E+03  0.82885682168E+02 0.  0.
         -6    2    1    2    0  502  0.49124380147E+02  0.83623698769E+02  0.97887775575E+02  0.22175907693E+03  0.17374965863E+03 0.  0.
        -24    2    5    5    0    0  0.48397422371E+02 -0.18436340550E+02  0.59520197405E+02  0.11262181863E+03  0.80366728118E+02 0.  0.
          5    1    3    3  501    0  0.41122091172E+01 -0.41520491879E+02  0.16388188869E+03  0.16917513101E+03  0.47000000000E+01 0. -1.
        -13    1    4    4    0    0  0.19493759283E+02 -0.20688173882E+02 -0.21754056226E+01  0.28508587814E+02  0.00000000000E+00 0.  1.
         14    1    4    4    0    0 -0.72730348547E+02 -0.21415033009E+02  0.35245884462E+02  0.83609686102E+02  0.00000000000E+00 0. -1.
         -5    1    5    5    0  502  0.72695777502E+00  0.10206003932E+03  0.38367578170E+02  0.10913725829E+03  0.47000000000E+01 0.  1.
         11    1    6    6    0    0 -0.17482262432E+02 -0.72778142113E+01 -0.51591623839E+01  0.19626844778E+02  0.00000000000E+00 0. -1.
        -12    1    6    6    0    0  0.65879684804E+02 -0.11158526338E+02  0.64679359789E+02  0.92994973857E+02  0.00000000000E+00 0.  1.
<mgrwt>
<rscale>  2 0.20037287E+03</rscale>
<asrwt>0</asrwt>
<pdfrwt beam="1">  1       21 0.61376355E-01 0.20083761E+03</pdfrwt>
<pdfrwt beam="2">  1       21 0.16016334E-01 0.20083761E+03</pdfrwt>
<totfact> 0.85587044E+04</totfact>
</mgrwt>
</event>
<event>
12    1  0.1013215E-001  0.2316387E+03  0.7546771E-02  0.1125595E+00
         21   -1    0    0  501  502  0.00000000000E+00  0.00000000000E+00  0.17105048270E+03  0.17105048270E+03  0.00000000000E+00 0. -1.
         21   -1    0    0  502  503 -0.00000000000E+00 -0.00000000000E+00 -0.31449037475E+03  0.31449037475E+03  0.00000000000E+00 0. -1.
         -6    2    1    2    0  503  0.35909861082E+02  0.15013475997E+03 -0.54495728906E+02  0.23796274219E+03  0.17270355505E+03 0.  0.
        -24    2    3    3    0    0  0.23991388322E+00  0.15888683668E+03 -0.77699207819E+02  0.19426565517E+03  0.80354797334E+02 0.  0.
          6    2    1    2  501    0 -0.35909861082E+02 -0.15013475997E+03 -0.88944163141E+02  0.24757811526E+03  0.17191246239E+03 0.  0.
         24    2    5    5    0    0 -0.26983932864E+02 -0.12453607521E+02 -0.53403775932E+01  0.86185876003E+02  0.80723358555E+02 0.  0.
          5    1    5    5  501    0 -0.89259282180E+01 -0.13768115245E+03 -0.83603785548E+02  0.16139223926E+03  0.47000000000E+01 0. -1.
        -13    1    6    6    0    0  0.13373179309E+02  0.25856429742E+02 -0.88634545205E+01  0.30429553231E+02  0.00000000000E+00 0.  1.
         14    1    6    6    0    0 -0.40357112173E+02 -0.38310037262E+02  0.35230769274E+01  0.55756322772E+02  0.00000000000E+00 0. -1.
         -5    1    3    3    0  503  0.35669947199E+02 -0.87520767085E+01  0.23203478914E+02  0.43697087015E+02  0.47000000000E+01 0.  1.
         11    1    4    4    0    0  0.33824313716E+02  0.12788004345E+03 -0.59999541900E+02  0.14524921597E+03  0.00000000000E+00 0. -1.
        -12    1    4    4    0    0 -0.33584399832E+02  0.31006793229E+02 -0.17699665920E+02  0.49016439203E+02  0.00000000000E+00 0.  1.
<mgrwt>
<rscale>  2 0.23149124E+03</rscale>
<asrwt>0</asrwt>
<pdfrwt beam="1">  1       21 0.26315459E-01 0.23163869E+03</pdfrwt>
<pdfrwt beam="2">  1       21 0.48383134E-01 0.23163869E+03</pdfrwt>
<totfact> 0.55043516E+04</totfact>
</mgrwt>
</event>
<event>
12    1  0.1013215E-001  0.1806707E+03  0.7546771E-02  0.1167349E+00
         21   -1    0    0  501  502  0.00000000000E+00  0.00000000000E+00  0.20901498947E+03  0.20901498947E+03  0.00000000000E+00 0.  1.
         21   -1    0    0  502  503 -0.00000000000E+00 -0.00000000000E+00 -0.24445280463E+03  0.24445280463E+03  0.00000000000E+00 0.  1.
         -6    2    1    2    0  503 -0.35690434717E+02  0.34664549076E+02 -0.15448405907E+03  0.23710260805E+03  0.17284931052E+03 0.  0.
        -24    2    3    3    0    0 -0.28686740172E+02  0.57831977575E+02 -0.27596834492E+02  0.10784225357E+03  0.81859023258E+02 0.  0.
          6    2    1    2  501    0  0.35690434717E+02 -0.34664549076E+02  0.11904624392E+03  0.21636518604E+03  0.17368490852E+03 0.  0.
         24    2    5    5    0    0  0.66982205780E+02 -0.74201560278E+02  0.91257504464E+02  0.15860140646E+03  0.82667929528E+02 0.  0.
          5    1    5    5  501    0 -0.31291771063E+02  0.39537011202E+02  0.27788739452E+02  0.57763779580E+02  0.47000000000E+01 0. -1.
        -13    1    6    6    0    0 -0.16836356114E+02 -0.20196440516E+02  0.36073637602E+02  0.44639292407E+02  0.00000000000E+00 0.  1.
         14    1    6    6    0    0  0.83818561894E+02 -0.54005119761E+02  0.55183866862E+02  0.11396211406E+03  0.00000000000E+00 0. -1.
         -5    1    3    3    0  503 -0.70036945451E+01 -0.23167428499E+02 -0.12688722458E+03  0.12926035449E+03  0.47000000000E+01 0.  1.
         11    1    4    4    0    0 -0.26412376785E+02 -0.14154561675E+02  0.18713949691E+01  0.30024446419E+02  0.00000000000E+00 0. -1.
        -12    1    4    4    0    0 -0.22743633876E+01  0.71986539250E+02 -0.29468229461E+02  0.77817807150E+02  0.00000000000E+00 0.  1.
<mgrwt>
<rscale>  2 0.18046953E+03</rscale>
<asrwt>0</asrwt>
<pdfrwt beam="1">  1       21 0.32156152E-01 0.18067065E+03</pdfrwt>
<pdfrwt beam="2">  1       21 0.37608124E-01 0.18067065E+03</pdfrwt>
<totfact> 0.63766876E+04</totfact>
</mgrwt>
</event>
<event>
12    1  0.1013215E-001  0.1826758E+03  0.7546771E-02  0.1165587E+00
         21   -1    0    0  503  502  0.00000000000E+00  0.00000000000E+00  0.23393223971E+02  0.23393223971E+02  0.00000000000E+00 0.  1.
         21   -1    0    0  501  503 -0.00000000000E+00 -0.00000000000E+00 -0.14239581116E+04  0.14239581116E+04  0.00000000000E+00 0.  1.
          6    2    1    2  501    0  0.48151541465E+02  0.34044563530E+02 -0.64044555828E+03  0.66558933071E+03  0.17135063693E+03 0.  0.
         24    2    3    3    0    0  0.11384564494E+02 -0.46080908906E+02 -0.35317407926E+03  0.36505830970E+03  0.79262732384E+02 0.  0.
         -6    2    1    2    0  502 -0.48151541465E+02 -0.34044563530E+02 -0.76011932939E+03  0.78176200491E+03  0.17289544283E+03 0.  0.
        -24    2    5    5    0    0  0.28722537656E+02 -0.53817882241E+02 -0.49948647883E+03  0.50926947113E+03  0.78404738836E+02 0.  0.
          5    1    3    3  501    0  0.36766976971E+02  0.80125472436E+02 -0.28727147902E+03  0.30053102101E+03  0.47000000000E+01 0. -1.
        -11    1    4    4    0    0 -0.32513251733E+02 -0.33577074688E+02 -0.17665840287E+03  0.18273675817E+03  0.00000000000E+00 0.  1.
         12    1    4    4    0    0  0.43897816227E+02 -0.12503834218E+02 -0.17651567639E+03  0.18232155153E+03  0.00000000000E+00 0. -1.
         -5    1    5    5    0  502 -0.76874079121E+02  0.19773318712E+02 -0.26063285056E+03  0.27249253378E+03  0.47000000000E+01 0.  1.
         13    1    6    6    0    0 -0.98457113502E+01 -0.51525739430E+02 -0.18101498541E+03  0.18846290032E+03  0.00000000000E+00 0. -1.
        -14    1    6    6    0    0  0.38568249006E+02 -0.22921428112E+01 -0.31847149343E+03  0.32080657081E+03  0.00000000000E+00 0.  1.
<mgrwt>
<rscale>  2 0.18230932E+03</rscale>
<asrwt>0</asrwt>
<pdfrwt beam="1">  1       21 0.35989572E-02 0.18267577E+03</pdfrwt>
<pdfrwt beam="2">  1       21 0.21907050E+00 0.18267577E+03</pdfrwt>
<totfact> 0.47997150E+04</totfact>
</mgrwt>
</event>
<event>
12    1  0.1013215E-001  0.1927023E+03  0.7546771E-02  0.1156160E+00
         21   -1    0    0  501  502  0.00000000000E+00  0.00000000000E+00  0.13240458015E+03  0.13240458015E+03  0.00000000000E+00 0.  1.
         21   -1    0    0  502  503 -0.00000000000E+00 -0.00000000000E+00 -0.42898522013E+03  0.42898522013E+03  0.00000000000E+00 0. -1.
         -6    2    1    2    0  503 -0.34866250496E+02  0.77106132684E+02 -0.31373881193E+03  0.36792517272E+03  0.17255688769E+03 0.  0.
        -24    2    3    3    0    0 -0.11110623145E+01 -0.19726480835E+02 -0.14941908898E+03  0.17417525887E+03  0.87295980105E+02 0.  0.
          6    2    1    2  501    0  0.34866250496E+02 -0.77106132684E+02  0.17158171942E+02  0.19346462756E+03  0.17312754874E+03 0.  0.
         24    2    5    5    0    0 -0.25496892430E+02  0.38564733735E+01  0.28765719707E+02  0.91702759611E+02  0.83168296721E+02 0.  0.
          5    1    5    5  501    0  0.60363142926E+02 -0.80962606057E+02 -0.11607547764E+02  0.10176186795E+03  0.47000000000E+01 0. -1.
        -11    1    6    6    0    0 -0.55067480683E+02 -0.17520256916E+01  0.93424135286E+01  0.55881819167E+02  0.00000000000E+00 0.  1.
         12    1    6    6    0    0  0.29570588253E+02  0.56084990651E+01  0.19423306178E+02  0.35820940444E+02  0.00000000000E+00 0. -1.
         -5    1    3    3    0  503 -0.33755188182E+02  0.96832613519E+02 -0.16431972294E+03  0.19374991385E+03  0.47000000000E+01 0.  1.
         11    1    4    4    0    0  0.72579596263E+01  0.11656570271E+02 -0.13955744264E+03  0.14023135671E+03  0.00000000000E+00 0. -1.
        -12    1    4    4    0    0 -0.83690219408E+01 -0.31383051106E+02 -0.98616463446E+01  0.33943902156E+02  0.00000000000E+00 0.  1.
<mgrwt>
<rscale>  2 0.19257399E+03</rscale>
<asrwt>0</asrwt>
<pdfrwt beam="1">  1       21 0.20369936E-01 0.19270226E+03</pdfrwt>
<pdfrwt beam="2">  1       21 0.65997724E-01 0.19270226E+03</pdfrwt>
<totfact> 0.47029330E+04</totfact>
</mgrwt>
</event>
<event>
12    1  0.1013215E-001  0.1917547E+03  0.7546771E-02  0.1156890E+00
         21   -1    0    0  503  502  0.00000000000E+00  0.00000000000E+00  0.62251306716E+02  0.62251306716E+02  0.00000000000E+00 0. -1.
         21   -1    0    0  501  503 -0.00000000000E+00 -0.00000000000E+00 -0.61135620488E+03  0.61135620488E+03  0.00000000000E+00 0. -1.
          6    2    1    2  501    0 -0.55028080291E+02 -0.58704836436E+02 -0.21255524388E+03  0.28626841157E+03  0.17405609532E+03 0.  0.
         24    2    3    3    0    0 -0.80637975826E+02 -0.10689996716E+01 -0.77836238661E+02  0.13744281969E+03  0.79551384218E+02 0.  0.
         -6    2    1    2    0  502  0.55028080291E+02  0.58704836436E+02 -0.33654965428E+03  0.38733910003E+03  0.17404471027E+03 0.  0.
        -24    2    5    5    0    0  0.33069511134E+02 -0.49519085268E+01 -0.29656629793E+03  0.30888453532E+03  0.79623948202E+02 0.  0.
          5    1    3    3  501    0  0.25609895535E+02 -0.57635836765E+02 -0.13471900522E+03  0.14882559187E+03  0.47000000000E+01 0. -1.
        -11    1    4    4    0    0 -0.37417532085E+02  0.36974191585E+02 -0.21313695811E+02  0.56757697098E+02  0.00000000000E+00 0.  1.
         12    1    4    4    0    0 -0.43220443741E+02 -0.38043191257E+02 -0.56522542850E+02  0.80685122597E+02  0.00000000000E+00 0. -1.
         -5    1    5    5    0  502  0.21958569157E+02  0.63656744963E+02 -0.39983356359E+02  0.78454564714E+02  0.47000000000E+01 0.  1.
         13    1    6    6    0    0  0.27203096258E+02  0.71750320820E+01 -0.27037957370E+02  0.39019747182E+02  0.00000000000E+00 0. -1.
        -14    1    6    6    0    0  0.58664148758E+01 -0.12126940609E+02 -0.26952834056E+03  0.26986478813E+03  0.00000000000E+00 0.  1.
<mgrwt>
<rscale>  2 0.19175213E+03</rscale>
<asrwt>0</asrwt>
<pdfrwt beam="1">  1       21 0.95771242E-02 0.19175472E+03</pdfrwt>
<pdfrwt beam="2">  1       21 0.94054800E-01 0.19175472E+03</pdfrwt>
<totfact> 0.83076721E+04</totfact>
</mgrwt>
</event>
<event>
12    1  0.1013215E-001  0.2059276E+03  0.7546771E-02  0.1146448E+00
         21   -1    0    0  501  502  0.00000000000E+00  0.00000000000E+00  0.78496670873E+03  0.78496670873E+03  0.00000000000E+00 0. -1.
         21   -1    0    0  502  503 -0.00000000000E+00 -0.00000000000E+00 -0.55069285643E+02  0.55069285643E+02  0.00000000000E+00 0.  1.
         -6    2    1    2    0  503 -0.45281147232E+02  0.82729131464E+02  0.25911247616E+03  0.32618323673E+03  0.17424619691E+03 0.  0.
        -24    2    3    3    0    0  0.25307238953E+02  0.16424699935E+02  0.60205771594E+02  0.10490295061E+03  0.80434240236E+02 0.  0.
          6    2    1    2  501    0  0.45281147232E+02 -0.82729131464E+02  0.47078494692E+03  0.51385275764E+03  0.18306200806E+03 0.  0.
         24    2    5    5    0    0  0.25986071486E+01 -0.14287963021E+02  0.91110343404E+02  0.12567639653E+03  0.85337936013E+02 0.  0.
          5    1    5    5  501    0  0.42682540083E+02 -0.68441168444E+02  0.37967460352E+03  0.38817636111E+03  0.47000000000E+01 0. -1.
        -13    1    6    6    0    0  0.27572703213E+02 -0.39238252170E+02  0.68975387722E+02  0.84008919212E+02  0.00000000000E+00 0.  1.
         14    1    6    6    0    0 -0.24974096065E+02  0.24950289149E+02  0.22134955682E+02  0.41667477316E+02  0.00000000000E+00 0. -1.
         -5    1    3    3    0  503 -0.70588386185E+02  0.66304431529E+02  0.19890670457E+03  0.22128028612E+03  0.47000000000E+01 0.  1.
         13    1    4    4    0    0  0.55248896978E+01  0.10564271326E+01  0.75396790882E+02  0.75606325925E+02  0.00000000000E+00 0. -1.
        -14    1    4    4    0    0  0.19782349255E+02  0.15368272802E+02 -0.15191019288E+02  0.29296624686E+02  0.00000000000E+00 0.  1.
<mgrwt>
<rscale>  2 0.20395039E+03</rscale>
<asrwt>0</asrwt>
<pdfrwt beam="1">  1       21 0.12076410E+00 0.20592763E+03</pdfrwt>
<pdfrwt beam="2">  1       21 0.84721984E-02 0.20592763E+03</pdfrwt>
<totfact> 0.56059485E+04</totfact>
</mgrwt>
</event>
<event>
12    1  0.1013215E-001  0.1809485E+03  0.7546771E-02  0.1167091E+00
         21   -1    0    0  503  502  0.00000000000E+00  0.00000000000E+00  0.22445854325E+03  0.22445854325E+03  0.00000000000E+00 0.  1.
         21   -1    0    0  501  503 -0.00000000000E+00 -0.00000000000E+00 -0.23214433933E+03  0.23214433933E+03  0.00000000000E+00 0.  1.
          6    2    1    2  501    0  0.33230777278E+02  0.37683427938E+02 -0.14355908124E+03  0.23032004536E+03  0.17295602963E+03 0.  0.
         24    2    3    3    0    0  0.58164158498E+02 -0.23465772774E+02 -0.12610223451E+03  0.16185304787E+03  0.79755399387E+02 0.  0.
         -6    2    1    2    0  502 -0.33230777278E+02 -0.37683427938E+02  0.13587328517E+03  0.22628283722E+03  0.17383339006E+03 0.  0.
        -24    2    5    5    0    0 -0.47700112686E+01  0.32698638744E+01  0.15300565445E+03  0.17334140364E+03  0.81259257342E+02 0.  0.
          5    1    3    3  501    0 -0.24933381220E+02  0.61149200711E+02 -0.17456846736E+02  0.68466997485E+02  0.47000000000E+01 0. -1.
        -13    1    4    4    0    0  0.54190632113E+02  0.19564617629E+02 -0.62997230219E+02  0.85370076064E+02  0.00000000000E+00 0.  1.
         14    1    4    4    0    0  0.39735263843E+01 -0.43030390403E+02 -0.63105004288E+02  0.76482971806E+02  0.00000000000E+00 0. -1.
         -5    1    5    5    0  502 -0.28460766010E+02 -0.40953291812E+02 -0.17132369287E+02  0.52941433580E+02  0.47000000000E+01 0.  1.
         13    1    6    6    0    0  0.19681882137E+02 -0.60953979741E+01  0.27095784945E+01  0.20781534508E+02  0.00000000000E+00 0. -1.
        -14    1    6    6    0    0 -0.24451893405E+02  0.93652618485E+01  0.15029607596E+03  0.15255986913E+03  0.00000000000E+00 0.  1.
<mgrwt>
<rscale>  2 0.18073749E+03</rscale>
<asrwt>0</asrwt>
<pdfrwt beam="1">  1       21 0.34532084E-01 0.18094854E+03</pdfrwt>
<pdfrwt beam="2">  1       21 0.35714514E-01 0.18094854E+03</pdfrwt>
<totfact> 0.61414781E+04</totfact>
</mgrwt>
</event>
<event>
12    1  0.1013215E-001  0.3735631E+03  0.7546771E-02  0.1053362E+00
         21   -1    0    0  501  502  0.00000000000E+00  0.00000000000E+00  0.10669030622E+04  0.10669030622E+04  0.00000000000E+00 0.  1.
         21   -1    0    0  502  503 -0.00000000000E+00 -0.00000000000E+00 -0.23048970215E+03  0.23048970215E+03  0.00000000000E+00 0.  1.
         -6    2    1    2    0  503 -0.95683547230E+02  0.31710391216E+03 -0.85204504980E+01  0.37366028252E+03  0.17274019896E+03 0.  0.
        -24    2    3    3    0    0 -0.94674467349E+02  0.33371745803E+03 -0.70783237793E+01  0.35630522913E+03  0.81072295379E+02 0.  0.
          6    2    1    2  501    0  0.95683547230E+02 -0.31710391216E+03  0.84493381056E+03  0.92373248184E+03  0.17221591522E+03 0.  0.
         24    2    5    5    0    0  0.16924335932E+02 -0.11758793237E+03  0.22081227726E+03  0.26376322658E+03  0.81851224312E+02 0.  0.
          5    1    5    5  501    0  0.78759211298E+02 -0.19951597979E+03  0.62412153330E+03  0.65996925526E+03  0.47000000000E+01 0. -1.
        -13    1    6    6    0    0  0.10832875846E+01 -0.10486405565E+03  0.21966327361E+03  0.24341240201E+03  0.00000000000E+00 0.  1.
         14    1    6    6    0    0  0.15841048347E+02 -0.12723876717E+02  0.11490036566E+01  0.20350824574E+02  0.00000000000E+00 0. -1.
         -5    1    3    3    0  503 -0.10090798808E+01 -0.16613545870E+02 -0.14421267187E+01  0.17355053386E+02  0.47000000000E+01 0.  1.
         11    1    4    4    0    0 -0.25636915887E+02  0.58174586350E+02  0.29162584968E+02  0.69942764567E+02  0.00000000000E+00 0. -1.
        -12    1    4    4    0    0 -0.69037551462E+02  0.27554287168E+03 -0.36240908748E+02  0.28636246457E+03  0.00000000000E+00 0.  1.
<mgrwt>
<rscale>  2 0.37350257E+03</rscale>
<asrwt>0</asrwt>
<pdfrwt beam="1">  1       21 0.16413893E+00 0.37356313E+03</pdfrwt>
<pdfrwt beam="2">  1       21 0.35459955E-01 0.37356313E+03</pdfrwt>
<totfact> 0.15839831E+03</totfact>
</mgrwt>
</event>
<event>
12    1  0.1013215E-001  0.1996763E+03  0.7546771E-02  0.1150054E+00
         21   -1    0    0  501  502  0.00000000000E+00  0.00000000000E+00  0.12278928057E+03  0.12278928057E+03  0.00000000000E+00 0. -1.
         21   -1    0    0  502  503 -0.00000000000E+00 -0.00000000000E+00 -0.18213986154E+04  0.18213986154E+04  0.00000000000E+00 0. -1.
         -6    2    1    2    0  503  0.91358310909E+02 -0.41371437446E+02 -0.17306682188E+04  0.17421489889E+04  0.17266348554E+03 0.  0.
        -24    2    3    3    0    0  0.39506968133E+02 -0.53390580655E+02 -0.15575396643E+04  0.15609623229E+04  0.79134146276E+02 0.  0.
          6    2    1    2  501    0 -0.91358310909E+02  0.41371437446E+02  0.32058883944E+02  0.20203890707E+03  0.17243552743E+03 0.  0.
         24    2    5    5    0    0 -0.99064531667E+02  0.94036759862E+01 -0.37591881651E+02  0.12487257530E+03  0.65404892318E+02 0.  0.
          5    1    5    5  501    0  0.77062207580E+01  0.31967761459E+02  0.69650765594E+02  0.77166331771E+02  0.47000000000E+01 0. -1.
        -13    1    6    6    0    0 -0.60969856964E+02 -0.22315526571E+02 -0.41141710626E+01  0.65055611502E+02  0.00000000000E+00 0.  1.
         14    1    6    6    0    0 -0.38094674703E+02  0.31719202557E+02 -0.33477710588E+02  0.59816963796E+02  0.00000000000E+00 0. -1.
         -5    1    3    3    0  503  0.51851342776E+02  0.12019143209E+02 -0.17312855453E+03  0.18118666602E+03  0.47000000000E+01 0.  1.
         13    1    4    4    0    0  0.32176388149E+02 -0.64232842555E+02 -0.77729567561E+03  0.78060857370E+03  0.00000000000E+00 0. -1.
        -14    1    4    4    0    0  0.73305799842E+01  0.10842261900E+02 -0.78024398869E+03  0.78035374923E+03  0.00000000000E+00 0.  1.
<mgrwt>
<rscale>  2 0.19962699E+03</rscale>
<asrwt>0</asrwt>
<pdfrwt beam="1">  1       21 0.18890659E-01 0.19967628E+03</pdfrwt>
<pdfrwt beam="2">  1       21 0.28021517E+00 0.19967628E+03</pdfrwt>
<totfact> 0.11290572E+03</totfact>
</mgrwt>
</event>
<event>
12    1  0.1013215E-001  0.2537984E+03  0.7546771E-02  0.1112760E+00
         21   -1    0    0  503  502  0.00000000000E+00  0.00000000000E+00  0.68966941320E+03  0.68966941320E+03  0.00000000000E+00 0. -1.
         21   -1    0    0  501  503 -0.00000000000E+00 -0.00000000000E+00 -0.10288874927E+03  0.10288874927E+03  0.00000000000E+00 0.  1.
          6    2    1    2  501    0  0.16081520018E+03  0.54471412106E+02  0.15479894905E+03  0.29728156306E+03  0.18863973538E+03 0.  0.
         24    2    3    3    0    0  0.17107535045E+03  0.82887824644E+02  0.86605883203E+02  0.22254771922E+03  0.76744650097E+02 0.  0.
         -6    2    1    2    0  502 -0.16081520018E+03 -0.54471412106E+02  0.43198171487E+03  0.49527659941E+03  0.17280637891E+03 0.  0.
        -24    2    5    5    0    0 -0.63699298791E+02  0.30966833342E+02  0.24976104046E+03  0.27176450517E+03  0.80366805993E+02 0.  0.
          5    1    3    3  501    0 -0.10260150277E+02 -0.28416412538E+02  0.68193065849E+02  0.74733843840E+02  0.47000000000E+01 0. -1.
        -13    1    4    4    0    0  0.16401344971E+03  0.51247822401E+02  0.79627561141E+02  0.18938664019E+03  0.00000000000E+00 0.  1.
         14    1    4    4    0    0  0.70619007401E+01  0.31640002243E+02  0.69783220617E+01  0.33161079036E+02  0.00000000000E+00 0. -1.
         -5    1    5    5    0  502 -0.97115901385E+02 -0.85438245448E+02  0.18222067441E+03  0.22351209423E+03  0.47000000000E+01 0.  1.
         11    1    6    6    0    0 -0.39483992435E+02  0.37030110593E+02  0.61808355655E+02  0.82161350877E+02  0.00000000000E+00 0. -1.
        -12    1    6    6    0    0 -0.24215306356E+02 -0.60632772506E+01  0.18795268481E+03  0.18960315430E+03  0.00000000000E+00 0.  1.
<mgrwt>
<rscale>  2 0.25086368E+03</rscale>
<asrwt>0</asrwt>
<pdfrwt beam="1">  1       21 0.10610298E+00 0.25379837E+03</pdfrwt>
<pdfrwt beam="2">  1       21 0.15829039E-01 0.25379837E+03</pdfrwt>
<totfact> 0.24510003E+04</totfact>
</mgrwt>
</event>
<event>
12    1  0.1013215E-001  0.1902543E+03  0.7546771E-02  0.1158362E+00
         21   -1    0    0  503  502  0.00000000000E+00  0.00000000000E+00  0.10846103868E+03  0.10846103868E+03  0.00000000000E+00 0. -1.
         21   -1    0    0  501  503 -0.00000000000E+00 -0.00000000000E+00 -0.35977487165E+03  0.35977487165E+03  0.00000000000E+00 0. -1.
          6    2    1    2  501    0 -0.76741419353E+02 -0.18677175821E+02 -0.61636468241E+02  0.19998934159E+03  0.17308552854E+03 0.  0.
         24    2    3    3    0    0 -0.36917431101E+02 -0.87438209680E+00  0.33064156915E+02  0.95618905591E+02  0.81768425267E+02 0.  0.
         -6    2    1    2    0  502  0.76741419353E+02  0.18677175821E+02 -0.18967736473E+03  0.26824656875E+03  0.17245473788E+03 0.  0.
        -24    2    5    5    0    0 -0.14197089461E+02 -0.73508328293E+01 -0.39439305342E+02  0.90649175451E+02  0.80038878750E+02 0.  0.
          5    1    3    3  501    0 -0.39823988252E+02 -0.17802793724E+02 -0.94700625156E+02  0.10437043599E+03  0.47000000000E+01 0. -1.
        -11    1    4    4    0    0  0.21102074652E+02 -0.11685390235E+02 -0.59836753932E+01  0.24852570708E+02  0.00000000000E+00 0.  1.
         12    1    4    4    0    0 -0.58019505753E+02  0.10811008138E+02  0.39047832309E+02  0.70766334883E+02  0.00000000000E+00 0. -1.
         -5    1    5    5    0  502  0.90938508814E+02  0.26028008651E+02 -0.15023805938E+03  0.17759739330E+03  0.47000000000E+01 0.  1.
         13    1    6    6    0    0  0.43758097594E-01  0.16322441506E+02  0.19575690252E+02  0.25487872809E+02  0.00000000000E+00 0. -1.
        -14    1    6    6    0    0 -0.14240847558E+02 -0.23673274335E+02 -0.59014995594E+02  0.65161302642E+02  0.00000000000E+00 0.  1.
<mgrwt>
<rscale>  2 0.19011067E+03</rscale>
<asrwt>0</asrwt>
<pdfrwt beam="1">  1       21 0.16686314E-01 0.19025426E+03</pdfrwt>
<pdfrwt beam="2">  1       21 0.55349981E-01 0.19025426E+03</pdfrwt>
<totfact> 0.99449053E+04</totfact>
</mgrwt>
</event>
<event>
12    1  0.1013215E-001  0.1804825E+03  0.7546771E-02  0.1167982E+00
         21   -1    0    0  503  502  0.00000000000E+00  0.00000000000E+00  0.39634152953E+03  0.39634152953E+03  0.00000000000E+00 0. -1.
         21   -1    0    0  501  503 -0.00000000000E+00 -0.00000000000E+00 -0.29971819519E+03  0.29971819519E+03  0.00000000000E+00 0. -1.
          6    2    1    2  501    0 -0.34151111408E+02 -0.29905175460E+02 -0.24909990999E+03  0.30606166228E+03  0.17193707578E+03 0.  0.
         24    2    3    3    0    0 -0.58615678069E+01  0.26275184690E+02 -0.51723216568E+02  0.98851188961E+02  0.79821821072E+02 0.  0.
         -6    2    1    2    0  502  0.34151111408E+02  0.29905175460E+02  0.34572324434E+03  0.38999806244E+03  0.17468059165E+03 0.  0.
        -24    2    5    5    0    0 -0.19971255147E+02  0.49732607496E+02  0.10682999255E+03  0.14420458536E+03  0.80685388091E+02 0.  0.
          5    1    3    3  501    0 -0.28289543601E+02 -0.56180360150E+02 -0.19737669343E+03  0.20721047332E+03  0.47000000000E+01 0. -1.
        -11    1    4    4    0    0  0.44648096846E+01 -0.21978166884E+01  0.20203636780E+02  0.20807495352E+02  0.00000000000E+00 0.  1.
         12    1    4    4    0    0 -0.10326377492E+02  0.28473001379E+02 -0.71926853347E+02  0.78043693609E+02  0.00000000000E+00 0. -1.
         -5    1    5    5    0  502  0.54122366555E+02 -0.19827432036E+02  0.23889325179E+03  0.24579347707E+03  0.47000000000E+01 0.  1.
         13    1    6    6    0    0 -0.27838152416E+02 -0.12702249095E+02  0.53881143066E+02  0.61963597701E+02  0.00000000000E+00 0. -1.
        -14    1    6    6    0    0  0.78668972694E+01  0.62434856590E+02  0.52948849485E+02  0.82240987664E+02  0.00000000000E+00 0.  1.
<mgrwt>
<rscale>  2 0.17981530E+03</rscale>
<asrwt>0</asrwt>
<pdfrwt beam="1">  1       21 0.60975620E-01 0.18048248E+03</pdfrwt>
<pdfrwt beam="2">  1       21 0.46110491E-01 0.18048248E+03</pdfrwt>
<totfact> 0.11373208E+04</totfact>
</mgrwt>
</event>
<event>
12    1  0.1013215E-001  0.1831976E+03  0.7546771E-02  0.1164915E+00
         21   -1    0    0  503  502  0.00000000000E+00  0.00000000000E+00  0.30630145618E+03  0.30630145618E+03  0.00000000000E+00 0. -1.
         21   -1    0    0  501  503 -0.00000000000E+00 -0.00000000000E+00 -0.54438502523E+03  0.54438502523E+03  0.00000000000E+00 0. -1.
          6    2    1    2  501    0  0.59698446744E+02 -0.35490721970E+02 -0.49931863348E+03  0.53161731316E+03  0.16874351549E+03 0.  0.
         24    2    3    3    0    0  0.22174902226E+02 -0.13621128715E+02 -0.47274316292E+03  0.48048375140E+03  0.81861320754E+02 0.  0.
         -6    2    1    2    0  502 -0.59698446744E+02  0.35490721970E+02  0.26123506443E+03  0.31906916825E+03  0.16952250397E+03 0.  0.
        -24    2    5    5    0    0 -0.60799542610E+02 -0.18535042377E+02  0.23957951004E+03  0.26066498466E+03  0.80670691204E+02 0.  0.
          5    1    3    3  501    0  0.37523544518E+02 -0.21869593255E+02 -0.26575470556E+02  0.51133561753E+02  0.47000000000E+01 0. -1.
        -13    1    4    4    0    0 -0.16962312656E+02  0.10911420860E+02 -0.35674385583E+02  0.40980982694E+02  0.00000000000E+00 0.  1.
         14    1    4    4    0    0  0.39137214883E+02 -0.24532549575E+02 -0.43706877734E+03  0.43950276871E+03  0.00000000000E+00 0. -1.
         -5    1    5    5    0  502  0.11010958658E+01  0.54025764347E+02  0.21655554391E+02  0.58404183595E+02  0.47000000000E+01 0.  1.
         11    1    6    6    0    0  0.50308314603E+01 -0.31503201113E+02  0.11281314525E+03  0.11723722398E+03  0.00000000000E+00 0. -1.
        -12    1    6    6    0    0 -0.65830374070E+02  0.12968158736E+02  0.12676636478E+03  0.14342776067E+03  0.00000000000E+00 0.  1.
<mgrwt>
<rscale>  2 0.18301722E+03</rscale>
<asrwt>0</asrwt>
<pdfrwt beam="1">  1       21 0.47123301E-01 0.18319764E+03</pdfrwt>
<pdfrwt beam="2">  1       21 0.83751542E-01 0.18319764E+03</pdfrwt>
<totfact> 0.53806902E+03</totfact>
</mgrwt>
</event>
<event>
12    1  0.1013215E-001  0.1856017E+03  0.7546771E-02  0.1162500E+00
         21   -1    0    0  501  502  0.00000000000E+00  0.00000000000E+00  0.44129794088E+02  0.44129794088E+02  0.00000000000E+00 0. -1.
         21   -1    0    0  502  503 -0.00000000000E+00 -0.00000000000E+00 -0.11170392022E+04  0.11170392022E+04  0.00000000000E+00 0. -1.
         -6    2    1    2    0  503  0.47011831608E+02 -0.40794171845E+02 -0.85512783689E+03  0.87502778486E+03  0.17480197390E+03 0.  0.
        -24    2    3    3    0    0  0.38610690864E+02 -0.22335736337E+01 -0.80962888749E+03  0.81461467952E+03  0.81254946487E+02 0.  0.
          6    2    1    2  501    0 -0.47011831608E+02  0.40794171845E+02 -0.21778157126E+03  0.28614121147E+03  0.17485337673E+03 0.  0.
         24    2    5    5    0    0 -0.28721200474E+02 -0.44560625179E+02 -0.13450956307E+03  0.16540883839E+03  0.80353622109E+02 0.  0.
          5    1    5    5  501    0 -0.18290631134E+02  0.85354797024E+02 -0.83272008183E+02  0.12073237308E+03  0.47000000000E+01 0. -1.
        -13    1    6    6    0    0 -0.23298632120E+02  0.14397070845E+02 -0.81358660856E+02  0.85844822813E+02  0.00000000000E+00 0.  1.
         14    1    6    6    0    0 -0.54225683548E+01 -0.58957696024E+02 -0.53150902217E+02  0.79564015575E+02  0.00000000000E+00 0. -1.
         -5    1    3    3    0  503  0.84011407449E+01 -0.38560598211E+02 -0.45498949406E+02  0.60413105344E+02  0.47000000000E+01 0.  1.
         11    1    4    4    0    0 -0.18173862200E+02 -0.22994733837E+02 -0.23835957764E+03  0.24015481528E+03  0.00000000000E+00 0. -1.
        -12    1    4    4    0    0  0.56784553063E+02  0.20761160203E+02 -0.57126930985E+03  0.57445986423E+03  0.00000000000E+00 0.  1.
<mgrwt>
<rscale>  2 0.18558956E+03</rscale>
<asrwt>0</asrwt>
<pdfrwt beam="1">  1       21 0.67891994E-02 0.18560167E+03</pdfrwt>
<pdfrwt beam="2">  1       21 0.17185218E+00 0.18560167E+03</pdfrwt>
<totfact> 0.33175364E+04</totfact>
</mgrwt>
</event>
<event>
12    1  0.1013215E-001  0.2011506E+03  0.7546771E-02  0.1148792E+00
         21   -1    0    0  501  502  0.00000000000E+00  0.00000000000E+00  0.53256071825E+03  0.53256071825E+03  0.00000000000E+00 0. -1.
         21   -1    0    0  502  503 -0.00000000000E+00 -0.00000000000E+00 -0.91782054110E+02  0.91782054110E+02  0.00000000000E+00 0.  1.
         -6    2    1    2    0  503 -0.15457737053E+02 -0.10072421623E+03  0.90734103651E+02  0.22066772871E+03  0.17342796648E+03 0.  0.
        -24    2    3    3    0    0 -0.58622514818E+02 -0.11620983316E+03  0.81579401926E+02  0.17366878260E+03  0.81020507670E+02 0.  0.
          6    2    1    2  501    0  0.15457737053E+02  0.10072421623E+03  0.35004456049E+03  0.40367504365E+03  0.17331484983E+03 0.  0.
         24    2    5    5    0    0 -0.10485159709E+02  0.76752413745E+02  0.35085165373E+03  0.36803205548E+03  0.79685879205E+02 0.  0.
          5    1    5    5  501    0  0.25942896761E+02  0.23971802482E+02 -0.80709324201E+00  0.35642988176E+02  0.47000000000E+01 0. -1.
        -11    1    6    6    0    0 -0.23681086157E+01 -0.16684576599E+02  0.67013131488E+02  0.69099513938E+02  0.00000000000E+00 0.  1.
         12    1    6    6    0    0 -0.81170510930E+01  0.93436990344E+02  0.28383852224E+03  0.29893254154E+03  0.00000000000E+00 0. -1.
         -5    1    3    3    0  503  0.43164777766E+02  0.15485616937E+02  0.91547017244E+01  0.46998946107E+02  0.47000000000E+01 0.  1.
         11    1    4    4    0    0 -0.58608420711E+02 -0.27789266029E+02  0.36278900504E+02  0.74319236449E+02  0.00000000000E+00 0. -1.
        -12    1    4    4    0    0 -0.14094107448E-01 -0.88420567134E+02  0.45300501422E+02  0.99349546149E+02  0.00000000000E+00 0.  1.
<mgrwt>
<rscale>  2 0.20112623E+03</rscale>
<asrwt>0</asrwt>
<pdfrwt beam="1">  1       21 0.81932417E-01 0.20115061E+03</pdfrwt>
<pdfrwt beam="2">  1       21 0.14120316E-01 0.20115061E+03</pdfrwt>
<totfact> 0.56808685E+04</totfact>
</mgrwt>
</event>
<event>
12    1  0.1013215E-001  0.2106956E+03  0.7546771E-02  0.1141541E+00
         21   -1    0    0  503  502  0.00000000000E+00  0.00000000000E+00  0.10440409828E+04  0.10440409828E+04  0.00000000000E+00 0. -1.
         21   -1    0    0  501  503 -0.00000000000E+00 -0.00000000000E+00 -0.46785797794E+02  0.46785797794E+02  0.00000000000E+00 0. -1.
          6    2    1    2  501    0  0.87069744206E+02  0.81026251809E+02  0.32679637060E+03  0.38882964248E+03  0.17391443067E+03 0.  0.
         24    2    3    3    0    0  0.99553290453E+02  0.46735140498E+01  0.16694386464E+03  0.21117691058E+03  0.82418045638E+02 0.  0.
         -6    2    1    2    0  502 -0.87069744206E+02 -0.81026251809E+02  0.67045881442E+03  0.70199713812E+03  0.17070022340E+03 0.  0.
        -24    2    5    5    0    0 -0.12024559026E+03 -0.82668700152E+02  0.47474125835E+03  0.50342527166E+03  0.82247345291E+02 0.  0.
          5    1    3    3  501    0 -0.12483546248E+02  0.76352737759E+02  0.15985250597E+03  0.17765273191E+03  0.47000000000E+01 0. -1.
        -11    1    4    4    0    0  0.47637182636E+01  0.30654374084E+02  0.41605719305E+02  0.51898165103E+02  0.00000000000E+00 0.  1.
         12    1    4    4    0    0  0.94789572190E+02 -0.25980860035E+02  0.12533814533E+03  0.15927874547E+03  0.00000000000E+00 0. -1.
         -5    1    5    5    0  502  0.33175846052E+02  0.16424483430E+01  0.19571755607E+03  0.19857186646E+03  0.47000000000E+01 0.  1.
         11    1    6    6    0    0 -0.28232459440E+02 -0.32479242595E+02  0.50123514761E+02  0.66063149316E+02  0.00000000000E+00 0. -1.
        -12    1    6    6    0    0 -0.92013130818E+02 -0.50189457558E+02  0.42461774359E+03  0.43736212235E+03  0.00000000000E+00 0.  1.
<mgrwt>
<rscale>  2 0.21003114E+03</rscale>
<asrwt>0</asrwt>
<pdfrwt beam="1">  1       21 0.16062167E+00 0.21069557E+03</pdfrwt>
<pdfrwt beam="2">  1       21 0.71978158E-02 0.21069557E+03</pdfrwt>
<totfact> 0.35508177E+04</totfact>
</mgrwt>
</event>
<event>
12    1  0.1013215E-001  0.2175682E+03  0.7546771E-02  0.1136629E+00
         21   -1    0    0  501  502  0.00000000000E+00  0.00000000000E+00  0.20824103346E+03  0.20824103346E+03  0.00000000000E+00 0.  1.
         21   -1    0    0  502  503 -0.00000000000E+00 -0.00000000000E+00 -0.22290940486E+03  0.22290940486E+03  0.00000000000E+00 0. -1.
         -6    2    1    2    0  503 -0.12990632229E+03 -0.33916049621E+02 -0.18536160558E+02  0.21835637953E+03  0.17120154275E+03 0.  0.
        -24    2    3    3    0    0 -0.36358662990E+01  0.12043693620E+02  0.57928180618E+01  0.81716285652E+02  0.80533996051E+02 0.  0.
          6    2    1    2  501    0  0.12990632229E+03  0.33916049621E+02  0.38677891655E+01  0.21279405879E+03  0.16504666210E+03 0.  0.
         24    2    5    5    0    0  0.15341880116E+03  0.53124625499E+02 -0.77490141727E+01  0.17994826500E+03  0.77212540892E+02 0.  0.
          5    1    5    5  501    0 -0.23512478874E+02 -0.19208575878E+02  0.11616803338E+02  0.32845793793E+02  0.47000000000E+01 0. -1.
        -11    1    6    6    0    0  0.86548291838E+02 -0.97675713928E+01  0.51369201209E+01  0.87249070019E+02  0.00000000000E+00 0.  1.
         12    1    6    6    0    0  0.66870509324E+02  0.62892196892E+02 -0.12885934294E+02  0.92699194979E+02  0.00000000000E+00 0. -1.
         -5    1    3    3    0  503 -0.12627045599E+03 -0.45959743241E+02 -0.24328978620E+02  0.13664009388E+03  0.47000000000E+01 0.  1.
         13    1    4    4    0    0  0.22709695510E+02 -0.16073259124E+02  0.26111365810E+02  0.38156039541E+02  0.00000000000E+00 0. -1.
        -14    1    4    4    0    0 -0.26345561809E+02  0.28116952744E+02 -0.20318547748E+02  0.43560246111E+02  0.00000000000E+00 0.  1.
<mgrwt>
<rscale>  2 0.21635578E+03</rscale>
<asrwt>0</asrwt>
<pdfrwt beam="1">  1       21 0.32037082E-01 0.21756819E+03</pdfrwt>
<pdfrwt beam="2">  1       21 0.34293754E-01 0.21756819E+03</pdfrwt>
<totfact> 0.75974279E+04</totfact>
</mgrwt>
</event>
<event>
12    1  0.1013215E-001  0.3009765E+03  0.7546771E-02  0.1084789E+00
         21   -1    0    0  503  502  0.00000000000E+00  0.00000000000E+00  0.25517167653E+03  0.25517167653E+03  0.00000000000E+00 0. -1.
         21   -1    0    0  501  503 -0.00000000000E+00 -0.00000000000E+00 -0.50647690737E+03  0.50647690737E+03  0.00000000000E+00 0. -1.
          6    2    1    2  501    0  0.12939039430E+03  0.20941695592E+03 -0.33418896684E+03  0.44974341159E+03  0.17317486868E+03 0.  0.
         24    2    3    3    0    0  0.24916015037E+01  0.12193224586E+03 -0.14664199065E+03  0.20694135972E+03  0.80294285512E+02 0.  0.
         -6    2    1    2    0  502 -0.12939039430E+03 -0.20941695592E+03  0.82883736003E+02  0.31190517231E+03  0.17267827673E+03 0.  0.
        -24    2    5    5    0    0 -0.23526360429E+02 -0.42367923849E+02 -0.99111224038E+01  0.93397624313E+02  0.79223451539E+02 0.  0.
          5    1    3    3  501    0  0.12689879280E+03  0.87484710058E+02 -0.18754697620E+03  0.24280205186E+03  0.47000000000E+01 0. -1.
        -11    1    4    4    0    0 -0.98780607389E+01 -0.87975622310E+01 -0.59948763788E+01  0.14522800280E+02  0.00000000000E+00 0.  1.
         12    1    4    4    0    0  0.12369662243E+02  0.13072980809E+03 -0.14064711427E+03  0.19241855944E+03  0.00000000000E+00 0. -1.
         -5    1    5    5    0  502 -0.10586403387E+03 -0.16704903207E+03  0.92794858407E+02  0.21850754799E+03  0.47000000000E+01 0.  1.
         13    1    6    6    0    0 -0.28010046781E+01 -0.39176638647E+02  0.29252693217E+02  0.48973203932E+02  0.00000000000E+00 0. -1.
        -14    1    6    6    0    0 -0.20725355751E+02 -0.31912852017E+01 -0.39163815621E+02  0.44424420382E+02  0.00000000000E+00 0.  1.
<mgrwt>
<rscale>  2 0.30090514E+03</rscale>
<asrwt>0</asrwt>
<pdfrwt beam="1">  1       21 0.39257181E-01 0.30097653E+03</pdfrwt>
<pdfrwt beam="2">  1       21 0.77919524E-01 0.30097653E+03</pdfrwt>
<totfact> 0.85745587E+03</totfact>
</mgrwt>
</event>
<event>
12    1  0.1013215E-001  0.1864620E+03  0.7546771E-02  0.1164302E+00
         21   -1    0    0  503  502  0.00000000000E+00  0.00000000000E+00  0.79329342647E+03  0.79329342647E+03  0.00000000000E+00 0. -1.
         21   -1    0    0  501  503 -0.00000000000E+00 -0.00000000000E+00 -0.47154666773E+02  0.47154666773E+02  0.00000000000E+00 0. -1.
          6    2    1    2  501    0 -0.34104711727E+02 -0.56569567648E+02  0.23485949496E+03  0.29987838210E+03  0.17436976325E+03 0.  0.
         24    2    3    3    0    0  0.44721785112E+02 -0.13436799745E+02  0.14043952402E+03  0.16945111048E+03  0.82521714023E+02 0.  0.
         -6    2    1    2    0  502  0.34104711727E+02  0.56569567648E+02  0.51127926474E+03  0.54056971114E+03  0.16262188876E+03 0.  0.
        -24    2    5    5    0    0  0.72809299413E+02  0.20881465151E+01  0.30218399108E+03  0.32100378978E+03  0.80141837702E+02 0.  0.
          5    1    3    3  501    0 -0.78826496840E+02 -0.43132767903E+02  0.94419970937E+02  0.13042727162E+03  0.47000000000E+01 0. -1.
        -11    1    4    4    0    0  0.58976028276E+02  0.32882325100E+01  0.13417375420E+03  0.14660007060E+03  0.00000000000E+00 0.  1.
         12    1    4    4    0    0 -0.14254243164E+02 -0.16725032255E+02  0.62657698195E+01  0.22851039879E+02  0.00000000000E+00 0. -1.
         -5    1    5    5    0  502 -0.38704587686E+02  0.54481421133E+02  0.20909527366E+03  0.21956592136E+03  0.47000000000E+01 0.  1.
         11    1    6    6    0    0  0.42396431695E+02  0.34586926808E+02  0.10011580926E+03  0.11409157809E+03  0.00000000000E+00 0. -1.
        -12    1    6    6    0    0  0.30412867718E+02 -0.32498780293E+02  0.20206818182E+03  0.20691221169E+03  0.00000000000E+00 0.  1.
<mgrwt>
<rscale>  2 0.18366551E+03</rscale>
<asrwt>0</asrwt>
<pdfrwt beam="1">  1       21 0.12204513E+00 0.18646196E+03</pdfrwt>
<pdfrwt beam="2">  1       21 0.72545647E-02 0.18646196E+03</pdfrwt>
<totfact> 0.72221758E+04</totfact>
</mgrwt>
</event>
<event>
12    1  0.1013215E-001  0.1810269E+03  0.7546771E-02  0.1167216E+00
         21   -1    0    0  503  502  0.00000000000E+00  0.00000000000E+00  0.98685630228E+02  0.98685630228E+02  0.00000000000E+00 0.  1.
         21   -1    0    0  501  503 -0.00000000000E+00 -0.00000000000E+00 -0.34362879589E+03  0.34362879589E+03  0.00000000000E+00 0.  1.
          6    2    1    2  501    0 -0.44149284166E+02  0.28234758422E+02 -0.16753680316E+03  0.24543254596E+03  0.17152898684E+03 0.  0.
         24    2    3    3    0    0 -0.61682495223E+02  0.35994706747E+02 -0.18824599382E+03  0.21682151896E+03  0.80465320239E+02 0.  0.
         -6    2    1    2    0  502  0.44149284166E+02 -0.28234758422E+02 -0.77406362508E+02  0.19688188017E+03  0.17327541345E+03 0.  0.
        -24    2    5    5    0    0  0.42900650576E+02 -0.78981907909E+02 -0.81524044196E+02  0.14573622962E+03  0.80711035468E+02 0.  0.
          5    1    3    3  501    0  0.17533211058E+02 -0.77599483247E+01  0.20709190665E+02  0.28611027000E+02  0.47000000000E+01 0. -1.
        -13    1    4    4    0    0 -0.56470816760E+02  0.48339601970E+02 -0.85882356360E+02  0.11358454736E+03  0.00000000000E+00 0.  1.
         14    1    4    4    0    0 -0.52116784638E+01 -0.12344895223E+02 -0.10236363746E+03  0.10323697160E+03  0.00000000000E+00 0. -1.
         -5    1    5    5    0  502  0.12486335892E+01  0.50747149486E+02  0.41176816881E+01  0.51145650541E+02  0.47000000000E+01 0.  1.
         11    1    6    6    0    0  0.53601883965E+01  0.15974177512E+02 -0.34471593339E+01  0.17198513724E+02  0.00000000000E+00 0. -1.
        -12    1    6    6    0    0  0.37540462180E+02 -0.94956085421E+02 -0.78076884862E+02  0.12853771590E+03  0.00000000000E+00 0.  1.
<mgrwt>
<rscale>  2 0.18060769E+03</rscale>
<asrwt>0</asrwt>
<pdfrwt beam="1">  1       21 0.15182404E-01 0.18102688E+03</pdfrwt>
<pdfrwt beam="2">  1       21 0.52865969E-01 0.18102688E+03</pdfrwt>
<totfact> 0.13063632E+05</totfact>
</mgrwt>
</event>
<event>
12    1  0.1013215E-001  0.1840285E+03  0.7546771E-02  0.1164174E+00
         21   -1    0    0  503  502  0.00000000000E+00  0.00000000000E+00  0.95399720472E+03  0.95399720472E+03  0.00000000000E+00 0. -1.
         21   -1    0    0  501  503 -0.00000000000E+00 -0.00000000000E+00 -0.51318697236E+02  0.51318697236E+02  0.00000000000E+00 0. -1.
          6    2    1    2  501    0  0.16612831255E+02  0.56837095916E+02  0.16995700316E+03  0.24983771406E+03  0.17328317520E+03 0.  0.
         24    2    3    3    0    0  0.77545397242E+01  0.33418910321E+02  0.19437764468E+03  0.21454836046E+03  0.84091460749E+02 0.  0.
         -6    2    1    2    0  502 -0.16612831255E+02 -0.56837095916E+02  0.73272150432E+03  0.75547818790E+03  0.17424134945E+03 0.  0.
        -24    2    5    5    0    0 -0.34034096502E+02 -0.85868449136E+02  0.34067139748E+03  0.36194077389E+03  0.80077540287E+02 0.  0.
          5    1    3    3  501    0  0.88582915312E+01  0.23418185596E+02 -0.24420641517E+02  0.35289353601E+02  0.47000000000E+01 0. -1.
        -13    1    4    4    0    0 -0.81124806993E+00 -0.59631176374E+01  0.16392189557E+03  0.16403232834E+03  0.00000000000E+00 0.  1.
         14    1    4    4    0    0  0.85657877941E+01  0.39382027958E+02  0.30455749111E+02  0.50516032114E+02  0.00000000000E+00 0. -1.
         -5    1    5    5    0  502  0.17421265247E+02  0.29031353220E+02  0.39205010684E+03  0.39353741401E+03  0.47000000000E+01 0.  1.
         13    1    6    6    0    0 -0.12149764275E+02 -0.67509230843E+02  0.31843951652E+03  0.32574351675E+03  0.00000000000E+00 0. -1.
        -14    1    6    6    0    0 -0.21884332227E+02 -0.18359218293E+02  0.22231880959E+02  0.36197257138E+02  0.00000000000E+00 0.  1.
<mgrwt>
<rscale>  2 0.18380134E+03</rscale>
<asrwt>0</asrwt>
<pdfrwt beam="1">  1       21 0.14676879E+00 0.18402850E+03</pdfrwt>
<pdfrwt beam="2">  1       21 0.78951849E-02 0.18402850E+03</pdfrwt>
<totfact> 0.39056346E+04</totfact>
</mgrwt>
</event>
<event>
12    1  0.1013215E-001  0.2887902E+03  0.7546771E-02  0.1090987E+00
         21   -1    0    0  501  502  0.00000000000E+00  0.00000000000E+00  0.19303458730E+03  0.19303458730E+03  0.00000000000E+00 0. -1.
         21   -1    0    0  502  503 -0.00000000000E+00 -0.00000000000E+00 -0.44247057675E+03  0.44247057675E+03  0.00000000000E+00 0.  1.
         -6    2    1    2    0  503  0.12104124171E+03 -0.19649206073E+03 -0.75806427341E+02  0.29853778948E+03  0.17354562857E+03 0.  0.
        -24    2    3    3    0    0  0.13022265693E+03 -0.98391783101E+02 -0.14952741931E+02  0.18263600397E+03  0.80581896824E+02 0.  0.
          6    2    1    2  501    0 -0.12104124171E+03  0.19649206073E+03 -0.17362956211E+03  0.33696737457E+03  0.17360781826E+03 0.  0.
         24    2    5    5    0    0  0.32630277503E+00  0.42679929989E+02 -0.62577043279E+02  0.11170529530E+03  0.82100570981E+02 0.  0.
          5    1    5    5  501    0 -0.12136754449E+03  0.15381213074E+03 -0.11105251883E+03  0.22526207927E+03  0.47000000000E+01 0. -1.
        -11    1    6    6    0    0  0.63436487024E+01 -0.11096369253E+02  0.13341345010E+02  0.18476005416E+02  0.00000000000E+00 0.  1.
         12    1    6    6    0    0 -0.60173459274E+01  0.53776299242E+02 -0.75918388289E+02  0.93229289885E+02  0.00000000000E+00 0. -1.
         -5    1    3    3    0  503 -0.91814152186E+01 -0.98100277629E+02 -0.60853685410E+02  0.11590178551E+03  0.47000000000E+01 0.  1.
         13    1    4    4    0    0  0.11217798497E+02 -0.51405628983E+02  0.61107004193E+01  0.52969032027E+02  0.00000000000E+00 0. -1.
        -14    1    4    4    0    0  0.11900485843E+03 -0.46986154117E+02 -0.21063442350E+02  0.12966697195E+03  0.00000000000E+00 0.  1.
<mgrwt>
<rscale>  2 0.28878087E+03</rscale>
<asrwt>0</asrwt>
<pdfrwt beam="1">  1       21 0.29697629E-01 0.28879021E+03</pdfrwt>
<pdfrwt beam="2">  1       21 0.68072396E-01 0.28879021E+03</pdfrwt>
<totfact> 0.20399729E+04</totfact>
</mgrwt>
</event>
<event>
12    1  0.1013215E-001  0.2048386E+03  0.7546771E-02  0.1146038E+00
         21   -1    0    0  501  502  0.00000000000E+00  0.00000000000E+00  0.86233872990E+03  0.86233872990E+03  0.00000000000E+00 0. -1.
         21   -1    0    0  502  503 -0.00000000000E+00 -0.00000000000E+00 -0.48289760575E+02  0.48289760575E+02  0.00000000000E+00 0. -1.
         -6    2    1    2    0  503 -0.10194012300E+03  0.32855366112E+02  0.40700785778E+03  0.45495174232E+03  0.17278433893E+03 0.  0.
        -24    2    3    3    0    0 -0.52167833349E+02 -0.39476577603E+02  0.29205094930E+03  0.31022312833E+03  0.81637916110E+02 0.  0.
          6    2    1    2  501    0  0.10194012300E+03 -0.32855366112E+02  0.40704111154E+03  0.45567674816E+03  0.17460689725E+03 0.  0.
         24    2    5    5    0    0  0.99805611311E+02  0.39501253643E+02  0.26227306609E+03  0.29375110613E+03  0.77337197183E+02 0.  0.
          5    1    5    5  501    0  0.21345116906E+01 -0.72356619755E+02  0.14476804545E+03  0.16192564203E+03  0.47000000000E+01 0. -1.
        -13    1    6    6    0    0  0.42903124693E+02  0.33987246325E+02  0.50760745497E+02  0.74648940411E+02  0.00000000000E+00 0.  1.
         14    1    6    6    0    0  0.56902486618E+02  0.55140073184E+01  0.21151232059E+03  0.21910216572E+03  0.00000000000E+00 0. -1.
         -5    1    3    3    0  503 -0.49772289652E+02  0.72331943715E+02  0.11495690849E+03  0.14472861399E+03  0.47000000000E+01 0.  1.
         13    1    4    4    0    0 -0.25822894516E+02  0.13545858071E+02  0.19013070690E+03  0.19235383505E+03  0.00000000000E+00 0. -1.
        -14    1    4    4    0    0 -0.26344938833E+02 -0.53022435674E+02  0.10192024240E+03  0.11786929328E+03  0.00000000000E+00 0.  1.
<mgrwt>
<rscale>  2 0.20444961E+03</rscale>
<asrwt>0</asrwt>
<pdfrwt beam="1">  1       21 0.13266749E+00 0.20483855E+03</pdfrwt>
<pdfrwt beam="2">  1       21 0.74291946E-02 0.20483855E+03</pdfrwt>
<totfact> 0.55672873E+04</totfact>
</mgrwt>
</event>
<event>
12    1  0.1013215E-001  0.2050043E+03  0.7546771E-02  0.1145880E+00
         21   -1    0    0  501  502  0.00000000000E+00  0.00000000000E+00  0.39973277816E+02  0.39973277816E+02  0.00000000000E+00 0. -1.
         21   -1    0    0  502  503 -0.00000000000E+00 -0.00000000000E+00 -0.10845777818E+04  0.10845777818E+04  0.00000000000E+00 0.  1.
         -6    2    1    2    0  503 -0.10296904020E+03 -0.33790553182E+02 -0.62931140569E+03  0.66141487146E+03  0.17231471825E+03 0.  0.
        -24    2    3    3    0    0 -0.81185175898E+02  0.33211636788E+02 -0.43182882600E+03  0.45168816956E+03  0.99257352151E+02 0.  0.
          6    2    1    2  501    0  0.10296904020E+03  0.33790553182E+02 -0.41529309831E+03  0.46313618818E+03  0.17401823632E+03 0.  0.
         24    2    5    5    0    0  0.19591979767E+02  0.76588457694E+02 -0.15890512026E+03  0.19011552939E+03  0.68142789393E+02 0.  0.
          5    1    5    5  501    0  0.83377060436E+02 -0.42797904512E+02 -0.25638797805E+03  0.27302065879E+03  0.47000000000E+01 0. -1.
        -13    1    6    6    0    0 -0.20431458811E+02  0.32070875238E+02 -0.96102959622E+02  0.10335262162E+03  0.00000000000E+00 0.  1.
         14    1    6    6    0    0  0.40023438578E+02  0.44517582456E+02 -0.62802160636E+02  0.86762907765E+02  0.00000000000E+00 0. -1.
         -5    1    3    3    0  503 -0.21783864305E+02 -0.67002189970E+02 -0.19748257969E+03  0.20972670189E+03  0.47000000000E+01 0.  1.
         13    1    4    4    0    0 -0.34849418164E+02 -0.11831926991E+02 -0.39169473216E+02  0.53746851765E+02  0.00000000000E+00 0. -1.
        -14    1    4    4    0    0 -0.46335757734E+02  0.45043563778E+02 -0.39265935278E+03  0.39794131780E+03  0.00000000000E+00 0.  1.
<mgrwt>
<rscale>  2 0.20464235E+03</rscale>
<asrwt>0</asrwt>
<pdfrwt beam="1">  1       21 0.61497344E-02 0.20500432E+03</pdfrwt>
<pdfrwt beam="2">  1       21 0.16685814E+00 0.20500432E+03</pdfrwt>
<totfact> 0.42132556E+04</totfact>
</mgrwt>
</event>
<event>
12    1  0.1013215E-001  0.1892008E+03  0.7546771E-02  0.1161663E+00
         21   -1    0    0  503  502  0.00000000000E+00  0.00000000000E+00  0.33307566168E+02  0.33307566168E+02  0.00000000000E+00 0.  1.
         21   -1    0    0  501  503 -0.00000000000E+00 -0.00000000000E+00 -0.11255075630E+04  0.11255075630E+04  0.00000000000E+00 0.  1.
          6    2    1    2  501    0 -0.44461442163E+02 -0.61081257503E+02 -0.71309011051E+03  0.73511564415E+03  0.16183252055E+03 0.  0.
         24    2    3    3    0    0  0.34213184641E+02 -0.26486564321E+02 -0.33123772683E+03  0.34368260694E+03  0.80791228131E+02 0.  0.
         -6    2    1    2    0  502  0.44461442163E+02  0.61081257503E+02 -0.37910988627E+03  0.42369948497E+03  0.17346241044E+03 0.  0.
        -24    2    5    5    0    0  0.72263501843E+02  0.29283825879E+02 -0.13925611816E+03  0.18010976585E+03  0.83472780920E+02 0.  0.
          5    1    3    3  501    0 -0.78674626805E+02 -0.34594693182E+02 -0.38185238368E+03  0.39143303721E+03  0.47000000000E+01 0. -1.
        -11    1    4    4    0    0  0.20929642272E+02 -0.43626434288E+02 -0.30846492001E+03  0.31223696541E+03  0.00000000000E+00 0.  1.
         12    1    4    4    0    0  0.13283542370E+02  0.17139869968E+02 -0.22772806824E+02  0.31445641527E+02  0.00000000000E+00 0. -1.
         -5    1    5    5    0  502 -0.27802059679E+02  0.31797431624E+02 -0.23985376811E+03  0.24358971911E+03  0.47000000000E+01 0.  1.
         13    1    6    6    0    0  0.28209334410E+02 -0.17466911703E+02 -0.98733289950E+02  0.10415911912E+03  0.00000000000E+00 0. -1.
        -14    1    6    6    0    0  0.44054167433E+02  0.46750737582E+02 -0.40522828209E+02  0.75950646730E+02  0.00000000000E+00 0.  1.
<mgrwt>
<rscale>  2 0.18649270E+03</rscale>
<asrwt>0</asrwt>
<pdfrwt beam="1">  1       21 0.51242409E-02 0.18920081E+03</pdfrwt>
<pdfrwt beam="2">  1       21 0.17315501E+00 0.18920081E+03</pdfrwt>
<totfact> 0.52438524E+04</totfact>
</mgrwt>
</event>
<event>
12    1  0.1013215E-001  0.2141674E+03  0.7546771E-02  0.1139044E+00
         21   -1    0    0  503  502  0.00000000000E+00  0.00000000000E+00  0.77062176886E+03  0.77062176886E+03  0.00000000000E+00 0.  1.
         21   -1    0    0  501  503 -0.00000000000E+00 -0.00000000000E+00 -0.77306967536E+02  0.77306967536E+02  0.00000000000E+00 0.  1.
          6    2    1    2  501    0  0.10063768350E+03 -0.64201729432E+02  0.13507728483E+03  0.25001836979E+03  0.17324406758E+03 0.  0.
         24    2    3    3    0    0  0.13766878780E+03 -0.59509978501E+02  0.93888345053E+02  0.19423365886E+03  0.80109676213E+02 0.  0.
         -6    2    1    2    0  502 -0.10063768350E+03  0.64201729432E+02  0.55823751649E+03  0.59791036660E+03  0.17781416218E+03 0.  0.
        -24    2    5    5    0    0  0.82635094800E+01  0.26622846878E+02  0.14366296527E+03  0.16760141856E+03  0.81695326359E+02 0.  0.
          5    1    3    3  501    0 -0.37031104306E+02 -0.46917509315E+01  0.41188939781E+02  0.55784710927E+02  0.47000000000E+01 0. -1.
        -13    1    4    4    0    0  0.91163348526E+02 -0.74172461919E+00  0.71971316556E+02  0.11615152464E+03  0.00000000000E+00 0.  1.
         14    1    4    4    0    0  0.46505439277E+02 -0.58768253881E+02  0.21917028496E+02  0.78082134222E+02  0.00000000000E+00 0. -1.
         -5    1    5    5    0  502 -0.10890119298E+03  0.37578882554E+02  0.41457455122E+03  0.43030894804E+03  0.47000000000E+01 0.  1.
         13    1    6    6    0    0  0.17302262571E+00  0.14086870912E+01 -0.10796055578E+02  0.10888946331E+02  0.00000000000E+00 0. -1.
        -14    1    6    6    0    0  0.80904868543E+01  0.25214159787E+02  0.15445902085E+03  0.15671247223E+03  0.00000000000E+00 0.  1.
<mgrwt>
<rscale>  2 0.21321636E+03</rscale>
<asrwt>0</asrwt>
<pdfrwt beam="1">  1       21 0.11855719E+00 0.21416742E+03</pdfrwt>
<pdfrwt beam="2">  1       21 0.11893380E-01 0.21416742E+03</pdfrwt>
<totfact> 0.32050416E+04</totfact>
</mgrwt>
</event>
<event>
12    1  0.1013215E-001  0.1769343E+03  0.7546771E-02  0.1171202E+00
         21   -1    0    0  501  502  0.00000000000E+00  0.00000000000E+00  0.36913394002E+03  0.36913394002E+03  0.00000000000E+00 0. -1.
         21   -1    0    0  502  503 -0.00000000000E+00 -0.00000000000E+00 -0.91326352754E+02  0.91326352754E+02  0.00000000000E+00 0. -1.
         -6    2    1    2    0  503  0.29493536715E+02 -0.11110058345E+02  0.74461936483E+02  0.19196439708E+03  0.17410470315E+03 0.  0.
        -24    2    3    3    0    0  0.84543884604E+02 -0.20123596057E+02  0.64991122383E+02  0.13518789680E+03  0.80618198378E+02 0.  0.
          6    2    1    2  501    0 -0.29493536715E+02  0.11110058345E+02  0.20334565078E+03  0.26849589569E+03  0.17247402763E+03 0.  0.
         24    2    5    5    0    0  0.34125053254E+02 -0.28779227857E+02  0.15255468735E+03  0.17771984098E+03  0.79489911493E+02 0.  0.
          5    1    5    5  501    0 -0.63618589969E+02  0.39889286202E+02  0.50790963435E+02  0.90776054717E+02  0.47000000000E+01 0. -1.
        -11    1    6    6    0    0  0.19906322432E+02 -0.47270050734E+02  0.46832444392E+02  0.69455001382E+02  0.00000000000E+00 0.  1.
         12    1    6    6    0    0  0.14218730821E+02  0.18490822877E+02  0.10572224296E+03  0.10826483960E+03  0.00000000000E+00 0. -1.
         -5    1    3    3    0  503 -0.55050347889E+02  0.90135377120E+01  0.94708141006E+01  0.56776500284E+02  0.47000000000E+01 0.  1.
         13    1    4    4    0    0  0.39294186381E+01 -0.34570256966E+02  0.30697376916E+02  0.46399051143E+02  0.00000000000E+00 0. -1.
        -14    1    4    4    0    0  0.80614465966E+02  0.14446660909E+02  0.34293745467E+02  0.88788845653E+02  0.00000000000E+00 0.  1.
<mgrwt>
<rscale>  2 0.17653185E+03</rscale>
<asrwt>0</asrwt>
<pdfrwt beam="1">  1       21 0.56789836E-01 0.17693431E+03</pdfrwt>
<pdfrwt beam="2">  1       21 0.14050208E-01 0.17693431E+03</pdfrwt>
<totfact> 0.12945602E+05</totfact>
</mgrwt>
</event>
<event>
12    1  0.1013215E-001  0.1934188E+03  0.7546771E-02  0.1155679E+00
         21   -1    0    0  503  502  0.00000000000E+00  0.00000000000E+00  0.55781702946E+02  0.55781702946E+02  0.00000000000E+00 0.  1.
         21   -1    0    0  501  503 -0.00000000000E+00 -0.00000000000E+00 -0.71447050638E+03  0.71447050638E+03  0.00000000000E+00 0. -1.
          6    2    1    2  501    0 -0.88841652961E+01 -0.84998016940E+02 -0.23051362759E+03  0.30091091063E+03  0.17351441542E+03 0.  0.
         24    2    3    3    0    0  0.37384212029E+02 -0.96503162049E+02 -0.10879949987E+03  0.17010743212E+03  0.79929767274E+02 0.  0.
         -6    2    1    2    0  502  0.88841652961E+01  0.84998016940E+02 -0.42817517585E+03  0.46934129870E+03  0.17217340727E+03 0.  0.
        -24    2    5    5    0    0 -0.55936978240E+01 -0.32646638207E+01 -0.31525519932E+03  0.32521315975E+03  0.79597808351E+02 0.  0.
          5    1    3    3  501    0 -0.46268377325E+02  0.11505145109E+02 -0.12171412772E+03  0.13080347851E+03  0.47000000000E+01 0. -1.
        -13    1    4    4    0    0 -0.68594754034E+01 -0.59400768979E+02 -0.92438596972E+02  0.11009267899E+03  0.00000000000E+00 0.  1.
         14    1    4    4    0    0  0.44243687432E+02 -0.37102393069E+02 -0.16360902896E+02  0.60014753125E+02  0.00000000000E+00 0. -1.
         -5    1    5    5    0  502  0.14477863120E+02  0.88262680761E+02 -0.11291997653E+03  0.14412813894E+03  0.47000000000E+01 0.  1.
         13    1    6    6    0    0 -0.14622608086E+01  0.15876320088E+02 -0.89522572033E+01  0.18284929730E+02  0.00000000000E+00 0. -1.
        -14    1    6    6    0    0 -0.41314370155E+01 -0.19140983909E+02 -0.30630294211E+03  0.30692823002E+03  0.00000000000E+00 0.  1.
<mgrwt>
<rscale>  2 0.19311760E+03</rscale>
<asrwt>0</asrwt>
<pdfrwt beam="1">  1       21 0.85818005E-02 0.19341883E+03</pdfrwt>
<pdfrwt beam="2">  1       21 0.10991854E+00 0.19341883E+03</pdfrwt>
<totfact> 0.69443071E+04</totfact>
</mgrwt>
</event>
<event>
12    1  0.1013215E-001  0.2121236E+03  0.7546771E-02  0.1139920E+00
         21   -1    0    0  501  502  0.00000000000E+00  0.00000000000E+00  0.52399933848E+02  0.52399933848E+02  0.00000000000E+00 0. -1.
         21   -1    0    0  502  503 -0.00000000000E+00 -0.00000000000E+00 -0.86878134924E+03  0.86878134924E+03  0.00000000000E+00 0.  1.
         -6    2    1    2    0  503  0.12236178805E+03  0.58744124003E+01 -0.35747109230E+03  0.41567054156E+03  0.17317477126E+03 0.  0.
        -24    2    3    3    0    0  0.47450004064E+02 -0.26409176295E+02 -0.77131748211E+02  0.12366670029E+03  0.79969986239E+02 0.  0.
          6    2    1    2  501    0 -0.12236178805E+03 -0.58744124003E+01 -0.45891032310E+03  0.50551074152E+03  0.17301881186E+03 0.  0.
         24    2    5    5    0    0 -0.10773119026E+03  0.21759658225E+02 -0.45387097125E+03  0.47349228875E+03  0.78208675222E+02 0.  0.
          5    1    5    5  501    0 -0.14630597792E+02 -0.27634070626E+02 -0.50393518452E+01  0.32018452775E+02  0.47000000000E+01 0. -1.
        -11    1    6    6    0    0 -0.72233612977E+02 -0.13967419158E+02 -0.17073457258E+03  0.18591147871E+03  0.00000000000E+00 0.  1.
         12    1    6    6    0    0 -0.35497577282E+02  0.35727077383E+02 -0.28313639867E+03  0.28758081004E+03  0.00000000000E+00 0. -1.
         -5    1    3    3    0  503  0.74911783987E+02  0.32283588696E+02 -0.28033934408E+03  0.29200384128E+03  0.47000000000E+01 0.  1.
         13    1    4    4    0    0  0.47163348440E+02 -0.28313659841E+02 -0.92789690364E+01  0.55786593695E+02  0.00000000000E+00 0. -1.
        -14    1    4    4    0    0  0.28665562440E+00  0.19044835459E+01 -0.67852779175E+02  0.67880106591E+02  0.00000000000E+00 0.  1.
<mgrwt>
<rscale>  2 0.21209176E+03</rscale>
<asrwt>0</asrwt>
<pdfrwt beam="1">  1       21 0.80615286E-02 0.21212359E+03</pdfrwt>
<pdfrwt beam="2">  1       21 0.13365866E+00 0.21212359E+03</pdfrwt>
<totfact> 0.47208066E+04</totfact>
</mgrwt>
</event>
<event>
12    1  0.1013215E-001  0.1835698E+03  0.7546771E-02  0.1164700E+00
         21   -1    0    0  501  502  0.00000000000E+00  0.00000000000E+00  0.87582059115E+03  0.87582059115E+03  0.00000000000E+00 0.  1.
         21   -1    0    0  502  503 -0.00000000000E+00 -0.00000000000E+00 -0.20094452045E+03  0.20094452045E+03  0.00000000000E+00 0.  1.
         -6    2    1    2    0  503 -0.31876733454E+02 -0.47649660611E+02 -0.14684139547E+03  0.23507498883E+03  0.17438818382E+03 0.  0.
        -24    2    3    3    0    0 -0.54501516999E+02  0.20924245977E+02 -0.45278437525E+02  0.11036979278E+03  0.81994602431E+02 0.  0.
          6    2    1    2  501    0  0.31876733454E+02  0.47649660611E+02  0.82171746617E+03  0.84169012277E+03  0.17302038105E+03 0.  0.
         24    2    5    5    0    0  0.29908744599E+02 -0.37386034092E+02  0.51777442250E+03  0.52603460460E+03  0.79560065936E+02 0.  0.
          5    1    5    5  501    0  0.19679888553E+01  0.85035694703E+02  0.30394304367E+03  0.31565551817E+03  0.47000000000E+01 0. -1.
        -13    1    6    6    0    0  0.54007882221E+02 -0.14806079078E+02  0.24787064556E+03  0.25411794161E+03  0.00000000000E+00 0.  1.
         14    1    6    6    0    0 -0.24099137622E+02 -0.22579955014E+02  0.26990377694E+03  0.27191666299E+03  0.00000000000E+00 0. -1.
         -5    1    3    3    0  503  0.22624783545E+02 -0.68573906589E+02 -0.10156295795E+03  0.12470519605E+03  0.47000000000E+01 0.  1.
         11    1    4    4    0    0  0.60162107248E+01 -0.24332533844E+02 -0.12258681144E+02  0.27902370117E+02  0.00000000000E+00 0. -1.
        -12    1    4    4    0    0 -0.60517727724E+02  0.45256779821E+02 -0.33019756381E+02  0.82467422660E+02  0.00000000000E+00 0.  1.
<mgrwt>
<rscale>  2 0.18324417E+03</rscale>
<asrwt>0</asrwt>
<pdfrwt beam="1">  1       21 0.13474163E+00 0.18356975E+03</pdfrwt>
<pdfrwt beam="2">  1       21 0.30914542E-01 0.18356975E+03</pdfrwt>
<totfact> 0.39982890E+03</totfact>
</mgrwt>
</event>
<event>
12    1  0.1013215E-001  0.1909321E+03  0.7546771E-02  0.1158754E+00
         21   -1    0    0  501  502  0.00000000000E+00  0.00000000000E+00  0.93159309365E+02  0.93159309365E+02  0.00000000000E+00 0.  1.
         21   -1    0    0  502  503 -0.00000000000E+00 -0.00000000000E+00 -0.98240278533E+03  0.98240278533E+03  0.00000000000E+00 0.  1.
         -6    2    1    2    0  503 -0.57987256363E+02  0.32502441681E+02 -0.86758786384E+03  0.88834889650E+03  0.17898639563E+03 0.  0.
        -24    2    3    3    0    0 -0.88045412223E+02  0.29293653280E+02 -0.38266189046E+03  0.40245891028E+03  0.83264273942E+02 0.  0.
          6    2    1    2  501    0  0.57987256363E+02 -0.32502441681E+02 -0.21655612128E+02  0.18721319820E+03  0.17366889597E+03 0.  0.
         24    2    5    5    0    0  0.51954303696E+02 -0.44783090128E+02  0.47957739492E+02  0.11611242768E+03  0.80482148643E+02 0.  0.
          5    1    5    5  501    0  0.60329526676E+01  0.12280648448E+02 -0.69613351621E+02  0.71100770517E+02  0.47000000000E+01 0. -1.
        -11    1    6    6    0    0  0.69745167297E+02 -0.42695272710E+02  0.22195067365E+02  0.84734265138E+02  0.00000000000E+00 0.  1.
         12    1    6    6    0    0 -0.17790863602E+02 -0.20878174183E+01  0.25762672128E+02  0.31378162541E+02  0.00000000000E+00 0. -1.
         -5    1    3    3    0  503  0.30058155860E+02  0.32087884010E+01 -0.48492597338E+03  0.48588998623E+03  0.47000000000E+01 0.  1.
         11    1    4    4    0    0 -0.90756617938E+02 -0.39641840675E+01 -0.26387748935E+03  0.27907670601E+03  0.00000000000E+00 0. -1.
        -12    1    4    4    0    0  0.27112057145E+01  0.33257837347E+02 -0.11878440111E+03  0.12338220426E+03  0.00000000000E+00 0.  1.
<mgrwt>
<rscale>  2 0.18967584E+03</rscale>
<asrwt>0</asrwt>
<pdfrwt beam="1">  1       21 0.14332202E-01 0.19093208E+03</pdfrwt>
<pdfrwt beam="2">  1       21 0.15113888E+00 0.19093208E+03</pdfrwt>
<totfact> 0.12501957E+04</totfact>
</mgrwt>
</event>
<event>
12    1  0.1013215E-001  0.2280661E+03  0.7546771E-02  0.1128312E+00
         21   -1    0    0  501  502  0.00000000000E+00  0.00000000000E+00  0.14588321082E+03  0.14588321082E+03  0.00000000000E+00 0.  1.
         21   -1    0    0  502  503 -0.00000000000E+00 -0.00000000000E+00 -0.38031635874E+03  0.38031635874E+03  0.00000000000E+00 0.  1.
         -6    2    1    2    0  503  0.21238796744E+02 -0.14826593488E+03 -0.18697334767E+03  0.29491213324E+03  0.17198912658E+03 0.  0.
        -24    2    3    3    0    0  0.56766095951E+02 -0.94903000976E+02 -0.18584034130E+03  0.23062243417E+03  0.80131800438E+02 0.  0.
          6    2    1    2  501    0 -0.21238796744E+02  0.14826593488E+03 -0.47459800259E+02  0.23128743632E+03  0.16972793414E+03 0.  0.
         24    2    5    5    0    0  0.14505129882E+02  0.12299411438E+02  0.56659671855E+00  0.82649794407E+02  0.80430051405E+02 0.  0.
          5    1    5    5  501    0 -0.35743926625E+02  0.13596652344E+03 -0.48026396978E+02  0.14863764191E+03  0.47000000000E+01 0. -1.
        -11    1    6    6    0    0  0.32845014496E+02  0.34550980825E+01 -0.30862246905E+02  0.45201891156E+02  0.00000000000E+00 0.  1.
         12    1    6    6    0    0 -0.18339884615E+02  0.88443133557E+01  0.31428843624E+02  0.37447903251E+02  0.00000000000E+00 0. -1.
         -5    1    3    3    0  503 -0.35527299207E+02 -0.53362933900E+02 -0.11330063654E+01  0.64289699072E+02  0.47000000000E+01 0.  1.
         13    1    4    4    0    0  0.14154058725E+02  0.72347877384E+01 -0.64339771228E+02  0.66274321526E+02  0.00000000000E+00 0. -1.
        -14    1    4    4    0    0  0.42612037225E+02 -0.10213778871E+03 -0.12150057007E+03  0.16434811264E+03  0.00000000000E+00 0.  1.
<mgrwt>
<rscale>  2 0.22763979E+03</rscale>
<asrwt>0</asrwt>
<pdfrwt beam="1">  1       21 0.22443571E-01 0.22806607E+03</pdfrwt>
<pdfrwt beam="2">  1       21 0.58510209E-01 0.22806607E+03</pdfrwt>
<totfact> 0.49999294E+04</totfact>
</mgrwt>
</event>
<event>
12    1  0.1013215E-001  0.1812321E+03  0.7546771E-02  0.1167249E+00
         21   -1    0    0  501  502  0.00000000000E+00  0.00000000000E+00  0.22007601004E+03  0.22007601004E+03  0.00000000000E+00 0.  1.
         21   -1    0    0  502  503 -0.00000000000E+00 -0.00000000000E+00 -0.16275777321E+03  0.16275777321E+03  0.00000000000E+00 0. -1.
         -6    2    1    2    0  503  0.48361655175E+02 -0.14074207618E+02  0.88228347462E+02  0.20156710508E+03  0.17409228456E+03 0.  0.
        -24    2    3    3    0    0  0.62045956420E+02 -0.14079048906E+02 -0.99597631873E+01  0.10231865322E+03  0.79510940047E+02 0.  0.
          6    2    1    2  501    0 -0.48361655175E+02  0.14074207618E+02 -0.30910110631E+02  0.18126667817E+03  0.17136289174E+03 0.  0.
         24    2    5    5    0    0 -0.22189471193E+02  0.28434534402E+02  0.45608836446E+02  0.98996139935E+02  0.80119750259E+02 0.  0.
          5    1    5    5  501    0 -0.26172183981E+02 -0.14360326784E+02 -0.76518947077E+02  0.82270538235E+02  0.47000000000E+01 0. -1.
        -11    1    6    6    0    0  0.68135339758E+01  0.35632533397E+02 -0.84304470200E+01  0.37244786461E+02  0.00000000000E+00 0.  1.
         12    1    6    6    0    0 -0.29003005169E+02 -0.71979989950E+01  0.54039283466E+02  0.61751353474E+02  0.00000000000E+00 0. -1.
         -5    1    3    3    0  503 -0.13684301245E+02  0.48412878994E-02  0.98188110650E+02  0.99248451862E+02  0.47000000000E+01 0.  1.
         13    1    4    4    0    0 -0.42672200377E+01  0.22204258740E+02 -0.14045387008E+02  0.26617873117E+02  0.00000000000E+00 0. -1.
        -14    1    4    4    0    0  0.66313176458E+02 -0.36283307647E+02  0.40856238207E+01  0.75700780100E+02  0.00000000000E+00 0.  1.
<mgrwt>
<rscale>  2 0.18057341E+03</rscale>
<asrwt>0</asrwt>
<pdfrwt beam="1">  1       21 0.33857848E-01 0.18123205E+03</pdfrwt>
<pdfrwt beam="2">  1       21 0.25039657E-01 0.18123205E+03</pdfrwt>
<totfact> 0.12740461E+05</totfact>
</mgrwt>
</event>
<event>
12    1  0.1013215E-001  0.1867615E+03  0.7546771E-02  0.1161718E+00
         21   -1    0    0  501  502  0.00000000000E+00  0.00000000000E+00  0.42364875895E+03  0.42364875895E+03  0.00000000000E+00 0. -1.
         21   -1    0    0  502  503 -0.00000000000E+00 -0.00000000000E+00 -0.12803782002E+03  0.12803782002E+03  0.00000000000E+00 0.  1.
         -6    2    1    2    0  503 -0.25490267331E+02 -0.62988623362E+02 -0.18369215025E+02  0.18636015489E+03  0.17255537913E+03 0.  0.
        -24    2    3    3    0    0 -0.69356861441E+02 -0.75308614388E+02 -0.40281532476E+02  0.13558319245E+03  0.79236598787E+02 0.  0.
          6    2    1    2  501    0  0.25490267331E+02  0.62988623362E+02  0.31398015396E+03  0.36532642408E+03  0.17396131366E+03 0.  0.
         24    2    5    5    0    0 -0.13748419971E+02  0.71669533395E+02  0.30623811660E+03  0.32413101266E+03  0.77159498701E+02 0.  0.
          5    1    5    5  501    0  0.39238687302E+02 -0.86809100337E+01  0.77420373651E+01  0.41195411428E+02  0.47000000000E+01 0. -1.
        -13    1    6    6    0    0 -0.48509708048E+01  0.93791587863E+01 -0.91509167695E+00  0.10598958914E+02  0.00000000000E+00 0.  1.
         14    1    6    6    0    0 -0.88974491662E+01  0.62290374609E+02  0.30715320827E+03  0.31353205374E+03  0.00000000000E+00 0. -1.
         -5    1    3    3    0  503  0.43866594110E+02  0.12319991026E+02  0.21912317451E+02  0.50776962432E+02  0.47000000000E+01 0.  1.
         13    1    4    4    0    0 -0.52405344544E+00  0.15219096088E+02 -0.98110105142E+00  0.15259687972E+02  0.00000000000E+00 0. -1.
        -14    1    4    4    0    0 -0.68832807996E+02 -0.90527710475E+02 -0.39300431425E+02  0.12032350448E+03  0.00000000000E+00 0.  1.
<mgrwt>
<rscale>  2 0.18643342E+03</rscale>
<asrwt>0</asrwt>
<pdfrwt beam="1">  1       21 0.65176732E-01 0.18676150E+03</pdfrwt>
<pdfrwt beam="2">  1       21 0.19698126E-01 0.18676150E+03</pdfrwt>
<totfact> 0.51595566E+04</totfact>
</mgrwt>
</event>
<event>
12    1  0.1013215E-001  0.1735820E+03  0.7546771E-02  0.1174706E+00
         21   -1    0    0  503  502  0.00000000000E+00  0.00000000000E+00  0.10372118367E+04  0.10372118367E+04  0.00000000000E+00 0.  1.
         21   -1    0    0  501  503 -0.00000000000E+00 -0.00000000000E+00 -0.34522065988E+02  0.34522065988E+02  0.00000000000E+00 0.  1.
          6    2    1    2  501    0  0.24103327551E+01  0.11098419590E+02  0.72406369246E+03  0.74457969772E+03  0.17321001962E+03 0.  0.
         24    2    3    3    0    0  0.52067022267E+01 -0.60517145746E+02  0.46758949523E+03  0.47823835146E+03  0.79890863590E+02 0.  0.
         -6    2    1    2    0  502 -0.24103327551E+01 -0.11098419590E+02  0.27862607829E+03  0.32715420501E+03  0.17108009156E+03 0.  0.
        -24    2    5    5    0    0  0.52628593494E+02  0.25276201717E+02  0.12004348252E+03  0.15533183696E+03  0.79428500255E+02 0.  0.
          5    1    3    3  501    0 -0.27963694716E+01  0.71615565335E+02  0.25647419724E+03  0.26634134626E+03  0.47000000000E+01 0. -1.
        -11    1    4    4    0    0 -0.18762380811E+02 -0.23150470723E+01  0.27446008058E+03  0.27511038186E+03  0.00000000000E+00 0.  1.
         12    1    4    4    0    0  0.23969083038E+02 -0.58202098673E+02  0.19312941465E+03  0.20312796960E+03  0.00000000000E+00 0. -1.
         -5    1    5    5    0  502 -0.55038926249E+02 -0.36374621307E+02  0.15858259577E+03  0.17182236804E+03  0.47000000000E+01 0.  1.
         11    1    6    6    0    0 -0.15141795431E+02  0.23331705527E+02  0.53688468662E+02  0.60465644121E+02  0.00000000000E+00 0. -1.
        -12    1    6    6    0    0  0.67770388925E+02  0.19444961898E+01  0.66355013857E+02  0.94866192842E+02  0.00000000000E+00 0.  1.
<mgrwt>
<rscale>  2 0.17304817E+03</rscale>
<asrwt>0</asrwt>
<pdfrwt beam="1">  1       21 0.15957103E+00 0.17358196E+03</pdfrwt>
<pdfrwt beam="2">  1       21 0.53110879E-02 0.17358196E+03</pdfrwt>
<totfact> 0.62211398E+04</totfact>
</mgrwt>
</event>
<event>
12    1  0.1013215E-001  0.2427226E+03  0.7546771E-02  0.1118243E+00
         21   -1    0    0  501  502  0.00000000000E+00  0.00000000000E+00  0.28252054475E+02  0.28252054475E+02  0.00000000000E+00 0. -1.
         21   -1    0    0  502  503 -0.00000000000E+00 -0.00000000000E+00 -0.22726723576E+04  0.22726723576E+04  0.00000000000E+00 0.  1.
         -6    2    1    2    0  503 -0.12192623302E+03  0.11511323743E+03 -0.14606418084E+04  0.14804227427E+04  0.17337802897E+03 0.  0.
        -24    2    3    3    0    0  0.84737880676E+00  0.72353031941E+02 -0.77989510719E+03  0.78735712089E+03  0.80369013349E+02 0.  0.
          6    2    1    2  501    0  0.12192623302E+03 -0.11511323743E+03 -0.78377849473E+03  0.82050166938E+03  0.17549130156E+03 0.  0.
         24    2    5    5    0    0  0.56324742774E+02 -0.67532136738E+01 -0.50179041057E+03  0.51133372169E+03  0.80314856995E+02 0.  0.
          5    1    5    5  501    0  0.65601490247E+02 -0.10836002375E+03 -0.28198808416E+03  0.30916794769E+03  0.47000000000E+01 0. -1.
        -13    1    6    6    0    0  0.27074273938E+02 -0.40205365475E+02 -0.17697919045E+03  0.18349692525E+03  0.00000000000E+00 0.  1.
         14    1    6    6    0    0  0.29250468836E+02  0.33452151801E+02 -0.32481122012E+03  0.32783679645E+03  0.00000000000E+00 0. -1.
         -5    1    3    3    0  503 -0.12277361183E+03  0.42760205484E+02 -0.68074670122E+03  0.69306562182E+03  0.47000000000E+01 0.  1.
         13    1    4    4    0    0  0.13162148557E+02  0.20181781209E+02 -0.50066828834E+02  0.55562881467E+02  0.00000000000E+00 0. -1.
        -14    1    4    4    0    0 -0.12314769750E+02  0.52171250732E+02 -0.72982827836E+03  0.73179423942E+03  0.00000000000E+00 0.  1.
<mgrwt>
<rscale>  2 0.24234082E+03</rscale>
<asrwt>0</asrwt>
<pdfrwt beam="1">  1       21 0.43464683E-02 0.24272260E+03</pdfrwt>
<pdfrwt beam="2">  1       21 0.34964203E+00 0.24272260E+03</pdfrwt>
<totfact> 0.56607884E+03</totfact>
</mgrwt>
</event>
<event>
12    1  0.1013215E-001  0.1961300E+03  0.7546771E-02  0.1153155E+00
         21   -1    0    0  503  502  0.00000000000E+00  0.00000000000E+00  0.61170996075E+02  0.61170996075E+02  0.00000000000E+00 0.  1.
         21   -1    0    0  501  503 -0.00000000000E+00 -0.00000000000E+00 -0.77271447853E+03  0.77271447853E+03  0.00000000000E+00 0.  1.
          6    2    1    2  501    0  0.13988126813E+02 -0.89214308934E+02 -0.17522982590E+03  0.26300661359E+03  0.17410378024E+03 0.  0.
         24    2    3    3    0    0  0.53084720296E+02 -0.70953249542E+01 -0.12769910098E+03  0.16027720707E+03  0.80705585615E+02 0.  0.
         -6    2    1    2    0  502 -0.13988126813E+02  0.89214308934E+02 -0.53631365656E+03  0.57087886102E+03  0.17353810861E+03 0.  0.
        -24    2    5    5    0    0 -0.35668455490E+02  0.32736134911E+02 -0.10638756951E+03  0.13669186085E+03  0.70869292579E+02 0.  0.
          5    1    3    3  501    0 -0.39096593483E+02 -0.82118983980E+02 -0.47530724919E+02  0.10272940652E+03  0.47000000000E+01 0. -1.
        -13    1    4    4    0    0 -0.68835330354E+01  0.23292270431E+02 -0.13576454254E+02  0.27825042659E+02  0.00000000000E+00 0.  1.
         14    1    4    4    0    0  0.59968253331E+02 -0.30387595385E+02 -0.11412264673E+03  0.13245216441E+03  0.00000000000E+00 0. -1.
         -5    1    5    5    0  502  0.21680328677E+02  0.56478174023E+02 -0.42992608706E+03  0.43418700018E+03  0.47000000000E+01 0.  1.
         13    1    6    6    0    0  0.46237549315E+01 -0.17712600770E+02 -0.10530490033E+02  0.21118867300E+02  0.00000000000E+00 0. -1.
        -14    1    6    6    0    0 -0.40292210421E+02  0.50448735681E+02 -0.95857079472E+02  0.11557299355E+03  0.00000000000E+00 0.  1.
<mgrwt>
<rscale>  2 0.19600441E+03</rscale>
<asrwt>0</asrwt>
<pdfrwt beam="1">  1       21 0.94109218E-02 0.19613003E+03</pdfrwt>
<pdfrwt beam="2">  1       21 0.11887916E+00 0.19613003E+03</pdfrwt>
<totfact> 0.48726681E+04</totfact>
</mgrwt>
</event>
<event>
12    1  0.1013215E-001  0.2645843E+03  0.7546771E-02  0.1104549E+00
         21   -1    0    0  503  502  0.00000000000E+00  0.00000000000E+00  0.36992385088E+03  0.36992385088E+03  0.00000000000E+00 0. -1.
         21   -1    0    0  501  503 -0.00000000000E+00 -0.00000000000E+00 -0.36134667163E+03  0.36134667163E+03  0.00000000000E+00 0.  1.
          6    2    1    2  501    0  0.86295824685E+02  0.17973210221E+03 -0.24851402664E+03  0.36235220019E+03  0.17259576364E+03 0.  0.
         24    2    3    3    0    0  0.50917818125E+02  0.19374269173E+03 -0.17001598355E+03  0.27499126651E+03  0.81153602451E+02 0.  0.
         -6    2    1    2    0  502 -0.86295824685E+02 -0.17973210221E+03  0.25709120589E+03  0.36891832232E+03  0.17393746714E+03 0.  0.
        -24    2    5    5    0    0  0.11284511974E+02 -0.13404490460E+03  0.15377393190E+03  0.21956708787E+03  0.80423300624E+02 0.  0.
          5    1    3    3  501    0  0.35378006560E+02 -0.14010589517E+02 -0.78498043084E+02  0.87360933688E+02  0.47000000000E+01 0. -1.
        -13    1    4    4    0    0 -0.17155877078E+01  0.12430136523E+03 -0.71254759826E+02  0.14328647332E+03  0.00000000000E+00 0.  1.
         14    1    4    4    0    0  0.52633405833E+02  0.69441326494E+02 -0.98761223728E+02  0.13170479318E+03  0.00000000000E+00 0. -1.
         -5    1    5    5    0  502 -0.97580336659E+02 -0.45687197612E+02  0.10331727399E+03  0.14935123445E+03  0.47000000000E+01 0.  1.
         11    1    6    6    0    0 -0.10160142340E+02  0.48952916979E+01  0.30753703155E+02  0.32756413585E+02  0.00000000000E+00 0. -1.
        -12    1    6    6    0    0  0.21444654314E+02 -0.13894019630E+03  0.12302022874E+03  0.18681067428E+03  0.00000000000E+00 0.  1.
<mgrwt>
<rscale>  2 0.26436398E+03</rscale>
<asrwt>0</asrwt>
<pdfrwt beam="1">  1       21 0.56911362E-01 0.26458428E+03</pdfrwt>
<pdfrwt beam="2">  1       21 0.55591796E-01 0.26458428E+03</pdfrwt>
<totfact> 0.84595879E+03</totfact>
</mgrwt>
</event>
<event>
12    1  0.1013215E-001  0.1956026E+03  0.7546771E-02  0.1153613E+00
         21   -1    0    0  503  502  0.00000000000E+00  0.00000000000E+00  0.91152769682E+02  0.91152769682E+02  0.00000000000E+00 0.  1.
         21   -1    0    0  501  503 -0.00000000000E+00 -0.00000000000E+00 -0.43988595634E+03  0.43988595634E+03  0.00000000000E+00 0.  1.
          6    2    1    2  501    0 -0.55177363013E+02 -0.77064121014E+02 -0.23291270551E+03  0.30415241944E+03  0.17110507218E+03 0.  0.
         24    2    3    3    0    0  0.90170715534E+01  0.12132091281E+02 -0.72619928012E+02  0.10974883348E+03  0.80886694127E+02 0.  0.
         -6    2    1    2    0  502  0.55177363013E+02  0.77064121014E+02 -0.11582048114E+03  0.22688630658E+03  0.17052739406E+03 0.  0.
        -24    2    5    5    0    0  0.10069409501E+03  0.62792547795E+02 -0.67609103394E+02  0.15890191397E+03  0.81219594749E+02 0.  0.
          5    1    3    3  501    0 -0.64194434566E+02 -0.89196212295E+02 -0.16029277750E+03  0.19440358597E+03  0.47000000000E+01 0. -1.
        -13    1    4    4    0    0 -0.38207909440E+01 -0.15997651891E+02 -0.76804799613E+02  0.78546168290E+02  0.00000000000E+00 0.  1.
         14    1    4    4    0    0  0.12837862497E+02  0.28129743172E+02  0.41848716011E+01  0.31202665187E+02  0.00000000000E+00 0. -1.
         -5    1    5    5    0  502 -0.45516732001E+02  0.14271573218E+02 -0.48211377750E+02  0.67984392612E+02  0.47000000000E+01 0.  1.
         13    1    6    6    0    0  0.33204202353E+02 -0.18351027238E+02 -0.13262969773E+02  0.40189372001E+02  0.00000000000E+00 0. -1.
        -14    1    6    6    0    0  0.67489892661E+02  0.81143575033E+02 -0.54346133621E+02  0.11871254197E+03  0.00000000000E+00 0.  1.
<mgrwt>
<rscale>  2 0.19547617E+03</rscale>
<asrwt>0</asrwt>
<pdfrwt beam="1">  1       21 0.14023503E-01 0.19560257E+03</pdfrwt>
<pdfrwt beam="2">  1       21 0.67674763E-01 0.19560257E+03</pdfrwt>
<totfact> 0.88362123E+04</totfact>
</mgrwt>
</event>
<event>
12    1  0.1013215E-001  0.1908490E+03  0.7546771E-02  0.1157816E+00
         21   -1    0    0  501  502  0.00000000000E+00  0.00000000000E+00  0.26255933453E+03  0.26255933453E+03  0.00000000000E+00 0. -1.
         21   -1    0    0  502  503 -0.00000000000E+00 -0.00000000000E+00 -0.35316662888E+03  0.35316662888E+03  0.00000000000E+00 0. -1.
         -6    2    1    2    0  503 -0.44287858559E+02  0.66556728696E+02 -0.28538826385E+03  0.34303019562E+03  0.17271954554E+03 0.  0.
        -24    2    3    3    0    0 -0.21983360232E+02  0.89542807366E+02 -0.28548232496E+03  0.31065815049E+03  0.80666883660E+02 0.  0.
          6    2    1    2  501    0  0.44287858559E+02 -0.66556728696E+02  0.19478096949E+03  0.27269576780E+03  0.17329784519E+03 0.  0.
         24    2    5    5    0    0  0.42655286455E+02 -0.10502446806E+03  0.10175198296E+03  0.17190432670E+03  0.79674457314E+02 0.  0.
          5    1    5    5  501    0  0.16325721041E+01  0.38467739362E+02  0.93028986533E+02  0.10079144110E+03  0.47000000000E+01 0. -1.
        -13    1    6    6    0    0 -0.17262277154E+02 -0.15868962857E+02 -0.70440896970E+00  0.23458610076E+02  0.00000000000E+00 0.  1.
         14    1    6    6    0    0  0.59917563610E+02 -0.89155505201E+02  0.10245639193E+03  0.14844571662E+03  0.00000000000E+00 0. -1.
         -5    1    3    3    0  503 -0.22304498327E+02 -0.22986078671E+02  0.94061118750E-01  0.32372045128E+02  0.47000000000E+01 0.  1.
         13    1    4    4    0    0 -0.50213355951E+02  0.35400875169E+02 -0.14109739433E+03  0.15389307250E+03  0.00000000000E+00 0. -1.
        -14    1    4    4    0    0  0.28229995719E+02  0.54141932197E+02 -0.14438493064E+03  0.15676507798E+03  0.00000000000E+00 0.  1.
<mgrwt>
<rscale>  2 0.19071766E+03</rscale>
<asrwt>0</asrwt>
<pdfrwt beam="1">  1       21 0.40393744E-01 0.19084904E+03</pdfrwt>
<pdfrwt beam="2">  1       21 0.54333328E-01 0.19084904E+03</pdfrwt>
<totfact> 0.18922043E+04</totfact>
</mgrwt>
</event>
<event>
12    1  0.1013215E-001  0.2078965E+03  0.7546771E-02  0.1143391E+00
         21   -1    0    0  501  502  0.00000000000E+00  0.00000000000E+00  0.10478789149E+04  0.10478789149E+04  0.00000000000E+00 0.  1.
         21   -1    0    0  502  503 -0.00000000000E+00 -0.00000000000E+00 -0.11846580809E+03  0.11846580809E+03  0.00000000000E+00 0.  1.
         -6    2    1    2    0  503 -0.41052221789E+02  0.10642810690E+03 -0.62830409030E+01  0.20799139063E+03  0.17380654511E+03 0.  0.
        -24    2    3    3    0    0 -0.50168446477E+02  0.13990711806E+03 -0.21512820006E+02  0.16980780892E+03  0.79252860136E+02 0.  0.
          6    2    1    2  501    0  0.41052221789E+02 -0.10642810690E+03  0.93569614768E+03  0.95835333232E+03  0.17292079670E+03 0.  0.
         24    2    5    5    0    0  0.85760282774E+02 -0.51200262771E+02  0.72167352446E+03  0.73279469530E+03  0.78734341579E+02 0.  0.
          5    1    5    5  501    0 -0.44708060985E+02 -0.55227844124E+02  0.21402262322E+03  0.22555863702E+03  0.47000000000E+01 0. -1.
        -13    1    6    6    0    0  0.40096142115E+02 -0.50957717300E+02  0.58741240466E+03  0.59098030654E+03  0.00000000000E+00 0.  1.
         14    1    6    6    0    0  0.45664140659E+02 -0.24254547089E+00  0.13426111979E+03  0.14181438876E+03  0.00000000000E+00 0. -1.
         -5    1    3    3    0  503  0.91162246881E+01 -0.33479011162E+02  0.15229779103E+02  0.38183581713E+02  0.47000000000E+01 0.  1.
         13    1    4    4    0    0 -0.24201524919E+02  0.85282115040E+02  0.26564979547E+02  0.92544319612E+02  0.00000000000E+00 0. -1.
        -14    1    4    4    0    0 -0.25966921558E+02  0.54625003017E+02 -0.48077799553E+02  0.77263489305E+02  0.00000000000E+00 0.  1.
<mgrwt>
<rscale>  2 0.20771124E+03</rscale>
<asrwt>0</asrwt>
<pdfrwt beam="1">  1       21 0.16121213E+00 0.20789647E+03</pdfrwt>
<pdfrwt beam="2">  1       21 0.18225510E-01 0.20789647E+03</pdfrwt>
<totfact> 0.66831006E+03</totfact>
</mgrwt>
</event>
<event>
12    1  0.1013215E-001  0.4701793E+03  0.7546771E-02  0.1021885E+00
         21   -1    0    0  503  502  0.00000000000E+00  0.00000000000E+00  0.14413652735E+04  0.14413652735E+04  0.00000000000E+00 0.  1.
         21   -1    0    0  501  503 -0.00000000000E+00 -0.00000000000E+00 -0.18820935751E+03  0.18820935751E+03  0.00000000000E+00 0. -1.
          6    2    1    2  501    0  0.12315880722E+03  0.41948015457E+03  0.27557625195E+03  0.54480248046E+03  0.17244065705E+03 0.  0.
         24    2    3    3    0    0  0.87691241186E+02  0.11873865368E+03  0.10480268165E+03  0.19711138061E+03  0.77978667776E+02 0.  0.
         -6    2    1    2    0  502 -0.12315880722E+03 -0.41948015457E+03  0.97757966401E+03  0.10847721505E+04  0.17302290948E+03 0.  0.
        -24    2    5    5    0    0  0.91442192973E+00 -0.99781358150E+02  0.25543796937E+03  0.28532721574E+03  0.78777587194E+02 0.  0.
          5    1    3    3  501    0  0.35467566031E+02  0.30074150089E+03  0.17077357030E+03  0.34769109985E+03  0.47000000000E+01 0. -1.
        -11    1    4    4    0    0  0.97674438282E+02  0.12122554848E+03  0.10299575309E+03  0.18666562258E+03  0.00000000000E+00 0.  1.
         12    1    4    4    0    0 -0.99831970959E+01 -0.24868948062E+01  0.18069285585E+01  0.10445758031E+02  0.00000000000E+00 0. -1.
         -5    1    5    5    0  502 -0.12407322915E+03 -0.31969879642E+03  0.72214169463E+03  0.79944493478E+03  0.47000000000E+01 0.  1.
         11    1    6    6    0    0  0.25186798045E+02 -0.81454810685E+02  0.12444831813E+03  0.15085305719E+03  0.00000000000E+00 0. -1.
        -12    1    6    6    0    0 -0.24272376115E+02 -0.18326547464E+02  0.13098965124E+03  0.13447415855E+03  0.00000000000E+00 0.  1.
<mgrwt>
<rscale>  2 0.47012585E+03</rscale>
<asrwt>0</asrwt>
<pdfrwt beam="1">  1       21 0.22174850E+00 0.47017935E+03</pdfrwt>
<pdfrwt beam="2">  1       21 0.28955287E-01 0.47017935E+03</pdfrwt>
<totfact> 0.91887094E+02</totfact>
</mgrwt>
</event>
<event>
11    1  0.1013215E-001  0.1822615E+03  0.7546771E-02  0.1165899E+00
         21   -1    0    0  501  502  0.00000000000E+00  0.00000000000E+00  0.61738663137E+02  0.61738663137E+02  0.00000000000E+00 0.  1.
         21   -1    0    0  502  503 -0.00000000000E+00 -0.00000000000E+00 -0.57413518194E+03  0.57413518194E+03  0.00000000000E+00 0.  1.
         -6    2    1    2    0  503 -0.59224452616E+02 -0.76890331186E+01 -0.17368084664E+03  0.25176238163E+03  0.17219931270E+03 0.  0.
          6    2    1    2  501    0  0.59224452616E+02  0.76890331186E+01 -0.33871567217E+03  0.38411146345E+03  0.17101652776E+03 0.  0.
         24    2    4    4    0    0  0.73277556630E+02 -0.51021119523E+02 -0.21742370541E+03  0.24854523257E+03  0.80801670876E+02 0.  0.
          5    1    4    4  501    0 -0.14053104015E+02  0.58710152642E+02 -0.12129196675E+03  0.13556623088E+03  0.47000000000E+01 0. -1.
        -13    1    5    5    0    0 -0.55505793637E+01 -0.40394338968E+02 -0.78721938067E+02  0.88654695786E+02  0.00000000000E+00 0.  1.
         14    1    5    5    0    0  0.78828135994E+02 -0.10626780556E+02 -0.13870176735E+03  0.15989053679E+03  0.00000000000E+00 0. -1.
         -5    1    3    3    0  503  0.17068405054E+02  0.49525975933E+02 -0.14023245520E+03  0.14977110614E+03  0.47000000000E+01 0.  1.
         11    1    3    3    0    0 -0.47879436971E+02 -0.33238921587E+02 -0.27089783347E+02  0.64273810800E+02  0.00000000000E+00 0. -1.
        -12    1    3    3    0    0 -0.28413420698E+02 -0.23976087464E+02 -0.63586080973E+01  0.37717464692E+02  0.00000000000E+00 0.  1.
<mgrwt>
<rscale>  2 0.18198160E+03</rscale>
<asrwt>0</asrwt>
<pdfrwt beam="1">  1       21 0.94982563E-02 0.18226152E+03</pdfrwt>
<pdfrwt beam="2">  1       21 0.88328486E-01 0.18226152E+03</pdfrwt>
<totfact> 0.97890728E+04</totfact>
</mgrwt>
</event>
<event>
12    1  0.1013215E-001  0.1877026E+03  0.7546771E-02  0.1160698E+00
         21   -1    0    0  501  502  0.00000000000E+00  0.00000000000E+00  0.72606872882E+03  0.72606872882E+03  0.00000000000E+00 0. -1.
         21   -1    0    0  502  503 -0.00000000000E+00 -0.00000000000E+00 -0.55262723622E+02  0.55262723622E+02  0.00000000000E+00 0. -1.
         -6    2    1    2    0  503  0.32940428332E+01  0.71281446632E+02  0.19680997511E+03  0.27152314822E+03  0.17291257435E+03 0.  0.
        -24    2    3    3    0    0  0.29097853919E+02  0.48522624020E+02  0.32354750141E+02  0.10344158561E+03  0.80325597610E+02 0.  0.
          6    2    1    2  501    0 -0.32940428332E+01 -0.71281446632E+02  0.47399603009E+03  0.50980830422E+03  0.17360983600E+03 0.  0.
         24    2    5    5    0    0  0.17486511528E+02 -0.81342489907E+02  0.16645979842E+03  0.20137082300E+03  0.76934810814E+02 0.  0.
          5    1    5    5  501    0 -0.20780554361E+02  0.10061043276E+02  0.30753623167E+03  0.30843748122E+03  0.47000000000E+01 0. -1.
        -11    1    6    6    0    0  0.38474920008E+02 -0.13268935726E+02  0.45961036278E+02  0.61390561006E+02  0.00000000000E+00 0.  1.
         12    1    6    6    0    0 -0.20988408480E+02 -0.68073554181E+02  0.12049876214E+03  0.13998026199E+03  0.00000000000E+00 0. -1.
         -5    1    3    3    0  503 -0.25803811086E+02  0.22758822612E+02  0.16445522497E+03  0.16808156262E+03  0.47000000000E+01 0.  1.
         13    1    4    4    0    0  0.26675083007E+02  0.57858949909E+02  0.51552740745E+02  0.81956715505E+02  0.00000000000E+00 0. -1.
        -14    1    4    4    0    0  0.24227709119E+01 -0.93363258895E+01 -0.19197990604E+02  0.21484870101E+02  0.00000000000E+00 0.  1.
<mgrwt>
<rscale>  2 0.18754122E+03</rscale>
<asrwt>0</asrwt>
<pdfrwt beam="1">  1       21 0.11170287E+00 0.18770261E+03</pdfrwt>
<pdfrwt beam="2">  1       21 0.85019580E-02 0.18770261E+03</pdfrwt>
<totfact> 0.68064873E+04</totfact>
</mgrwt>
</event>
<event>
12    1  0.1013215E-001  0.1955573E+03  0.7546771E-02  0.1154016E+00
         21   -1    0    0  501  502  0.00000000000E+00  0.00000000000E+00  0.32173001792E+03  0.32173001792E+03  0.00000000000E+00 0. -1.
         21   -1    0    0  502  503 -0.00000000000E+00 -0.00000000000E+00 -0.11772555017E+03  0.11772555017E+03  0.00000000000E+00 0. -1.
         -6    2    1    2    0  503 -0.84242026805E+02 -0.33067248358E+02  0.10988130284E+03  0.22242598707E+03  0.17090715905E+03 0.  0.
        -24    2    3    3    0    0 -0.26398220472E+02  0.11071611244E+02 -0.62209089412E+01  0.85327633911E+02  0.80141492257E+02 0.  0.
          6    2    1    2  501    0  0.84242026805E+02  0.33067248358E+02  0.94123164911E+02  0.21702958102E+03  0.17335658877E+03 0.  0.
         24    2    5    5    0    0  0.49390593499E+02 -0.38783114328E+02  0.91455775137E+02  0.13699020327E+03  0.80365392453E+02 0.  0.
          5    1    5    5  501    0  0.34851433307E+02  0.71850362686E+02  0.26673897738E+01  0.80039377745E+02  0.47000000000E+01 0. -1.
        -13    1    6    6    0    0 -0.16691923983E+02 -0.70037082925E+01  0.49051743374E+02  0.52285234858E+02  0.00000000000E+00 0.  1.
         14    1    6    6    0    0  0.66082517482E+02 -0.31779406035E+02  0.42404031763E+02  0.84704968417E+02  0.00000000000E+00 0. -1.
         -5    1    3    3    0  503 -0.57843806334E+02 -0.44138859602E+02  0.11610221178E+03  0.13709835316E+03  0.47000000000E+01 0.  1.
         11    1    4    4    0    0 -0.38585125046E+02 -0.25232632518E+02  0.20532054828E+01  0.46148816576E+02  0.00000000000E+00 0. -1.
        -12    1    4    4    0    0  0.12186904574E+02  0.36304243762E+02 -0.82741144240E+01  0.39178817335E+02  0.00000000000E+00 0.  1.
<mgrwt>
<rscale>  2 0.19501305E+03</rscale>
<asrwt>0</asrwt>
<pdfrwt beam="1">  1       21 0.49496925E-01 0.19555733E+03</pdfrwt>
<pdfrwt beam="2">  1       21 0.18111623E-01 0.19555733E+03</pdfrwt>
<totfact> 0.10789654E+05</totfact>
</mgrwt>
</event>
<event>
12    1  0.1013215E-001  0.1801752E+03  0.7546771E-02  0.1167922E+00
         21   -1    0    0  501  502  0.00000000000E+00  0.00000000000E+00  0.36627900951E+03  0.36627900951E+03  0.00000000000E+00 0. -1.
         21   -1    0    0  502  503 -0.00000000000E+00 -0.00000000000E+00 -0.17012569014E+03  0.17012569014E+03  0.00000000000E+00 0. -1.
         -6    2    1    2    0  503  0.14102716113E+02  0.49086556113E+02 -0.88384239915E+02  0.19961884518E+03  0.17154455075E+03 0.  0.
        -24    2    3    3    0    0  0.42080360248E+02  0.40647307745E+02 -0.11928581643E+03  0.15682904598E+03  0.83326366272E+02 0.  0.
          6    2    1    2  501    0 -0.14102716113E+02 -0.49086556113E+02  0.28453755928E+03  0.33678585447E+03  0.17278516294E+03 0.  0.
         24    2    5    5    0    0 -0.46180605021E+02 -0.76828344589E+02  0.26233412134E+03  0.28868512224E+03  0.80527422452E+02 0.  0.
          5    1    5    5  501    0  0.32077888908E+02  0.27741788477E+02  0.22203437940E+02  0.48100732230E+02  0.47000000000E+01 0. -1.
        -13    1    6    6    0    0  0.71281768537E+01  0.13571384750E+02  0.27942794076E+02  0.31871509692E+02  0.00000000000E+00 0.  1.
         14    1    6    6    0    0 -0.53308781875E+02 -0.90399729339E+02  0.23439132727E+03  0.25681361254E+03  0.00000000000E+00 0. -1.
         -5    1    3    3    0  503 -0.27977644135E+02  0.84392483673E+01  0.30901576515E+02  0.42789799198E+02  0.47000000000E+01 0.  1.
         13    1    4    4    0    0  0.46250519359E+02  0.22932218281E+02 -0.19162917526E+02  0.55065548071E+02  0.00000000000E+00 0. -1.
        -14    1    4    4    0    0 -0.41701591111E+01  0.17715089464E+02 -0.10012289890E+03  0.10176349791E+03  0.00000000000E+00 0.  1.
<mgrwt>
<rscale>  2 0.17987708E+03</rscale>
<asrwt>0</asrwt>
<pdfrwt beam="1">  1       21 0.56350617E-01 0.18017516E+03</pdfrwt>
<pdfrwt beam="2">  1       21 0.26173183E-01 0.18017516E+03</pdfrwt>
<totfact> 0.41363117E+04</totfact>
</mgrwt>
</event>
<event>
12    1  0.1013215E-001  0.1863145E+03  0.7546771E-02  0.1162342E+00
         21   -1    0    0  503  502  0.00000000000E+00  0.00000000000E+00  0.92387876388E+02  0.92387876388E+02  0.00000000000E+00 0. -1.
         21   -1    0    0  501  503 -0.00000000000E+00 -0.00000000000E+00 -0.48103519412E+03  0.48103519412E+03  0.00000000000E+00 0. -1.
          6    2    1    2  501    0  0.52240897007E+02 -0.34631496478E+02 -0.33037172741E+03  0.37820747412E+03  0.17310968586E+03 0.  0.
         24    2    3    3    0    0 -0.92178064017E+01  0.39094022020E+02 -0.14671424148E+03  0.17092798540E+03  0.77961509920E+02 0.  0.
         -6    2    1    2    0  502 -0.52240897007E+02  0.34631496478E+02 -0.58275590319E+02  0.19521559639E+03  0.17545550085E+03 0.  0.
        -24    2    5    5    0    0 -0.56246019045E+02 -0.42458876088E+02 -0.41546412223E+02  0.11608960859E+03  0.82366996043E+02 0.  0.
          5    1    3    3  501    0  0.61458703409E+02 -0.73725518498E+02 -0.18365748594E+03  0.20727948872E+03  0.47000000000E+01 0. -1.
        -13    1    4    4    0    0 -0.20859731908E+02  0.14305888741E+02 -0.39980843959E+01  0.25608036762E+02  0.00000000000E+00 0.  1.
         14    1    4    4    0    0  0.11641925507E+02  0.24788133279E+02 -0.14271615708E+03  0.14531994864E+03  0.00000000000E+00 0. -1.
         -5    1    5    5    0  502  0.40051220386E+01  0.77090372566E+02 -0.16729178096E+02  0.79125987796E+02  0.47000000000E+01 0.  1.
         13    1    6    6    0    0 -0.12841802835E+02  0.17817523515E+02  0.11522132721E+02  0.24801927076E+02  0.00000000000E+00 0. -1.
        -14    1    6    6    0    0 -0.43404216210E+02 -0.60276399603E+02 -0.53068544944E+02  0.91287681515E+02  0.00000000000E+00 0.  1.
<mgrwt>
<rscale>  2 0.18576016E+03</rscale>
<asrwt>0</asrwt>
<pdfrwt beam="1">  1       21 0.14213520E-01 0.18631448E+03</pdfrwt>
<pdfrwt beam="2">  1       21 0.74005413E-01 0.18631448E+03</pdfrwt>
<totfact> 0.71054739E+04</totfact>
</mgrwt>
</event>
<event>
12    1  0.1013215E-001  0.2226551E+03  0.7546771E-02  0.1132295E+00
         21   -1    0    0  501  502  0.00000000000E+00  0.00000000000E+00  0.27172242364E+03  0.27172242364E+03  0.00000000000E+00 0.  1.
         21   -1    0    0  502  503 -0.00000000000E+00 -0.00000000000E+00 -0.18268878591E+03  0.18268878591E+03  0.00000000000E+00 0.  1.
         -6    2    1    2    0  503 -0.12457319792E+03 -0.66194232318E+02  0.67528831583E+02  0.23072005112E+03  0.16962146345E+03 0.  0.
        -24    2    3    3    0    0 -0.12930498694E+03 -0.22440174809E+02  0.92366450091E+02  0.17996766528E+03  0.81446045643E+02 0.  0.
          6    2    1    2  501    0  0.12457319792E+03  0.66194232318E+02  0.21504806142E+02  0.22369115843E+03  0.17226467903E+03 0.  0.
         24    2    5    5    0    0  0.36467496539E+02  0.60524232882E+02  0.63518898093E+02  0.12580327649E+03  0.82454550451E+02 0.  0.
          5    1    5    5  501    0  0.88105701379E+02  0.56699994359E+01 -0.42014091951E+02  0.97887881945E+02  0.47000000000E+01 0. -1.
        -13    1    6    6    0    0  0.30467326151E+02 -0.82722613700E+01  0.43787999428E+02  0.53982193035E+02  0.00000000000E+00 0.  1.
         14    1    6    6    0    0  0.60001703884E+01  0.68796494252E+02  0.19730898665E+02  0.71821083451E+02  0.00000000000E+00 0. -1.
         -5    1    3    3    0  503  0.47317890181E+01 -0.43754057509E+02 -0.24837618508E+02  0.50752385845E+02  0.47000000000E+01 0.  1.
         11    1    4    4    0    0 -0.43784237709E+02  0.23741593041E+02  0.58986852613E+02  0.77202146946E+02  0.00000000000E+00 0. -1.
        -12    1    4    4    0    0 -0.85520749227E+02 -0.46181767850E+02  0.33379597478E+02  0.10276551833E+03  0.00000000000E+00 0.  1.
<mgrwt>
<rscale>  2 0.22214364E+03</rscale>
<asrwt>0</asrwt>
<pdfrwt beam="1">  1       21 0.41803450E-01 0.22265506E+03</pdfrwt>
<pdfrwt beam="2">  1       21 0.28105967E-01 0.22265506E+03</pdfrwt>
<totfact> 0.65753467E+04</totfact>
</mgrwt>
</event>
<event>
12    1  0.1013215E-001  0.2668681E+03  0.7546771E-02  0.1103460E+00
         21   -1    0    0  503  502  0.00000000000E+00  0.00000000000E+00  0.33312292216E+03  0.33312292216E+03  0.00000000000E+00 0.  1.
         21   -1    0    0  501  503 -0.00000000000E+00 -0.00000000000E+00 -0.21336229542E+03  0.21336229542E+03  0.00000000000E+00 0. -1.
          6    2    1    2  501    0 -0.18594406869E+03  0.77374000347E+02  0.83405359892E+02  0.27715214180E+03  0.17115759707E+03 0.  0.
         24    2    3    3    0    0 -0.41744004978E+02  0.41047426629E+02  0.25215016121E+02  0.11739769135E+03  0.98584824953E+02 0.  0.
         -6    2    1    2    0  502  0.18594406869E+03 -0.77374000347E+02  0.36355266845E+02  0.26933307578E+03  0.17509045569E+03 0.  0.
        -24    2    5    5    0    0  0.13411672016E+03  0.31655051338E+01 -0.20624521704E+02  0.15779172784E+03  0.80470761328E+02 0.  0.
          5    1    3    3  501    0 -0.14420006371E+03  0.36326573718E+02  0.58190343771E+02  0.15975445045E+03  0.47000000000E+01 0. -1.
        -11    1    4    4    0    0 -0.58341077350E+02  0.40830019803E+02  0.50395932102E+02  0.87238304637E+02  0.00000000000E+00 0.  1.
         12    1    4    4    0    0  0.16597072372E+02  0.21740682601E+00 -0.25180915981E+02  0.30159386710E+02  0.00000000000E+00 0. -1.
         -5    1    5    5    0  502  0.51827348524E+02 -0.80539505481E+02  0.56979788548E+02  0.11154134794E+03  0.47000000000E+01 0.  1.
         13    1    6    6    0    0  0.81633678956E+02 -0.37118563739E+02 -0.18685334126E+02  0.91602330895E+02  0.00000000000E+00 0. -1.
        -14    1    6    6    0    0  0.52483041205E+02  0.40284068873E+02 -0.19391875780E+01  0.66189396942E+02  0.00000000000E+00 0.  1.
<mgrwt>
<rscale>  2 0.26622490E+03</rscale>
<asrwt>0</asrwt>
<pdfrwt beam="1">  1       21 0.51249681E-01 0.26686813E+03</pdfrwt>
<pdfrwt beam="2">  1       21 0.32824968E-01 0.26686813E+03</pdfrwt>
<totfact> 0.31200589E+04</totfact>
</mgrwt>
</event>
<event>
12    1  0.1013215E-001  0.1891413E+03  0.7546771E-02  0.1159623E+00
         21   -1    0    0  501  502  0.00000000000E+00  0.00000000000E+00  0.31006521222E+02  0.31006521222E+02  0.00000000000E+00 0.  1.
         21   -1    0    0  502  503 -0.00000000000E+00 -0.00000000000E+00 -0.11519983928E+04  0.11519983928E+04  0.00000000000E+00 0.  1.
         -6    2    1    2    0  503 -0.45715199684E+02 -0.58708082899E+02 -0.61385979674E+03  0.64233814555E+03  0.17389055377E+03 0.  0.
        -24    2    3    3    0    0  0.22312587235E+02  0.19056759797E+02 -0.26675217864E+03  0.28014905253E+03  0.80409919689E+02 0.  0.
          6    2    1    2  501    0  0.45715199684E+02  0.58708082899E+02 -0.50713207481E+03  0.54066676845E+03  0.17204968679E+03 0.  0.
         24    2    5    5    0    0  0.38509515391E+02  0.28293805464E+02 -0.13879399130E+03  0.17097502669E+03  0.87665075879E+02 0.  0.
          5    1    5    5  501    0  0.72056842932E+01  0.30414277434E+02 -0.36833808351E+03  0.36969174175E+03  0.47000000000E+01 0. -1.
        -13    1    6    6    0    0  0.51863075932E+02  0.44545069030E+02 -0.13236891667E+03  0.14898178385E+03  0.00000000000E+00 0.  1.
         14    1    6    6    0    0 -0.13353560542E+02 -0.16251263566E+02 -0.64250746304E+01  0.21993242840E+02  0.00000000000E+00 0. -1.
         -5    1    3    3    0  503 -0.68027786919E+02 -0.77764842695E+02 -0.34710761811E+03  0.36218909302E+03  0.47000000000E+01 0.  1.
         13    1    4    4    0    0 -0.10218412363E+02  0.36667059494E+02 -0.67506073674E+02  0.77498123758E+02  0.00000000000E+00 0. -1.
        -14    1    4    4    0    0  0.32530999598E+02 -0.17610299697E+02 -0.19924610497E+03  0.20265092878E+03  0.00000000000E+00 0.  1.
<mgrwt>
<rscale>  2 0.18871715E+03</rscale>
<asrwt>0</asrwt>
<pdfrwt beam="1">  1       21 0.47702340E-02 0.18914133E+03</pdfrwt>
<pdfrwt beam="2">  1       21 0.17723052E+00 0.18914133E+03</pdfrwt>
<totfact> 0.55482025E+04</totfact>
</mgrwt>
</event>
<event>
12    1  0.1013215E-001  0.2065240E+03  0.7546771E-02  0.1144725E+00
         21   -1    0    0  501  502  0.00000000000E+00  0.00000000000E+00  0.18756011378E+03  0.18756011378E+03  0.00000000000E+00 0.  1.
         21   -1    0    0  502  503 -0.00000000000E+00 -0.00000000000E+00 -0.33886326308E+03  0.33886326308E+03  0.00000000000E+00 0.  1.
         -6    2    1    2    0  503  0.46808398411E+02  0.10068576504E+03 -0.22820241561E+03  0.30777996039E+03  0.17413647545E+03 0.  0.
        -24    2    3    3    0    0 -0.19195028426E+02  0.73376798455E+02 -0.20527492129E+03  0.23261353167E+03  0.78858469026E+02 0.  0.
          6    2    1    2  501    0 -0.46808398411E+02 -0.10068576504E+03  0.76899266311E+02  0.21864341647E+03  0.17193835221E+03 0.  0.
         24    2    5    5    0    0 -0.14370149509E+02 -0.27615407585E+02  0.10339404325E+03  0.13428951712E+03  0.79838801937E+02 0.  0.
          5    1    5    5  501    0 -0.32438248902E+02 -0.73070357458E+02 -0.26494776940E+02  0.84353899353E+02  0.47000000000E+01 0. -1.
        -13    1    6    6    0    0 -0.31281231711E+02 -0.47006986755E+02  0.51751842931E+02  0.76592594341E+02  0.00000000000E+00 0.  1.
         14    1    6    6    0    0  0.16911082202E+02  0.19391579170E+02  0.51642200320E+02  0.57696922776E+02  0.00000000000E+00 0. -1.
         -5    1    3    3    0  503  0.66003426837E+02  0.27308966588E+02 -0.22927494313E+02  0.75166428715E+02  0.47000000000E+01 0.  1.
         11    1    4    4    0    0 -0.19087913379E+02  0.42923547214E+02 -0.32374388110E+02  0.57051558682E+02  0.00000000000E+00 0. -1.
        -12    1    4    4    0    0 -0.10711504729E+00  0.30453251241E+02 -0.17290053318E+03  0.17556197299E+03  0.00000000000E+00 0.  1.
<mgrwt>
<rscale>  2 0.20605994E+03</rscale>
<asrwt>0</asrwt>
<pdfrwt beam="1">  1       21 0.28855402E-01 0.20652400E+03</pdfrwt>
<pdfrwt beam="2">  1       21 0.52132809E-01 0.20652400E+03</pdfrwt>
<totfact> 0.39846024E+04</totfact>
</mgrwt>
</event>
<event>
12    1  0.1013215E-001  0.2957647E+03  0.7546771E-02  0.1087413E+00
         21   -1    0    0  503  502  0.00000000000E+00  0.00000000000E+00  0.17609993135E+04  0.17609993135E+04  0.00000000000E+00 0.  1.
         21   -1    0    0  501  503 -0.00000000000E+00 -0.00000000000E+00 -0.71658514382E+02  0.71658514382E+02  0.00000000000E+00 0. -1.
          6    2    1    2  501    0 -0.13844969661E+03  0.19752207272E+03  0.13524800706E+04  0.13843812526E+04  0.17066289448E+03 0.  0.
         24    2    3    3    0    0 -0.42358191059E+02  0.30584291091E+02  0.55891630852E+03  0.56776179728E+03  0.85067051807E+02 0.  0.
         -6    2    1    2    0  502  0.13844969661E+03 -0.19752207272E+03  0.33686072854E+03  0.44827657528E+03  0.17115329330E+03 0.  0.
        -24    2    5    5    0    0  0.15758983429E+03 -0.20116752241E+03  0.27719545456E+03  0.38533478397E+03  0.79640741850E+02 0.  0.
          5    1    3    3  501    0 -0.96091505553E+02  0.16693778163E+03  0.79356376207E+03  0.81661945534E+03  0.47000000000E+01 0. -1.
        -13    1    4    4    0    0  0.21626084711E+02  0.45229000087E+01  0.57334148969E+02  0.61443867085E+02  0.00000000000E+00 0.  1.
         14    1    4    4    0    0 -0.63984275769E+02  0.26061391082E+02  0.50158215955E+03  0.50631793019E+03  0.00000000000E+00 0. -1.
         -5    1    5    5    0  502 -0.19140137681E+02  0.36454496898E+01  0.59665273986E+02  0.62941791313E+02  0.47000000000E+01 0.  1.
         13    1    6    6    0    0 -0.38065884863E+01  0.46730676838E+01  0.50090634012E+01  0.78369888119E+01  0.00000000000E+00 0. -1.
        -14    1    6    6    0    0  0.16139642278E+03 -0.20584059010E+03  0.27218639116E+03  0.37749779516E+03  0.00000000000E+00 0.  1.
<mgrwt>
<rscale>  2 0.29569376E+03</rscale>
<asrwt>0</asrwt>
<pdfrwt beam="1">  1       21 0.27092294E+00 0.29576467E+03</pdfrwt>
<pdfrwt beam="2">  1       21 0.11024388E-01 0.29576467E+03</pdfrwt>
<totfact> 0.31179032E+03</totfact>
</mgrwt>
</event>
<event>
12    1  0.1013215E-001  0.3345863E+03  0.7546771E-02  0.1070041E+00
         21   -1    0    0  503  502  0.00000000000E+00  0.00000000000E+00  0.19004441415E+03  0.19004441415E+03  0.00000000000E+00 0. -1.
         21   -1    0    0  501  503 -0.00000000000E+00 -0.00000000000E+00 -0.63040269935E+03  0.63040269935E+03  0.00000000000E+00 0.  1.
          6    2    1    2  501    0 -0.24630904630E+03 -0.12375126153E+03 -0.34484172611E+03  0.48048288302E+03  0.18964562687E+03 0.  0.
         24    2    3    3    0    0 -0.26378918075E+03 -0.94464178000E+02 -0.33843145885E+03  0.44546189091E+03  0.73431812634E+02 0.  0.
         -6    2    1    2    0  502  0.24630904630E+03  0.12375126153E+03 -0.95516559097E+02  0.33996423048E+03  0.17455584757E+03 0.  0.
        -24    2    5    5    0    0  0.78482180677E+02  0.11724462274E+03 -0.49875650297E+02  0.16585686208E+03  0.71520374453E+02 0.  0.
          5    1    3    3  501    0  0.17480134449E+02 -0.29287083534E+02 -0.64102672561E+01  0.35020992113E+02  0.47000000000E+01 0. -1.
        -13    1    4    4    0    0 -0.23818538911E+03 -0.10177351660E+03 -0.28104729712E+03  0.38220114009E+03  0.00000000000E+00 0.  1.
         14    1    4    4    0    0 -0.25603791645E+02  0.73093385990E+01 -0.57384161726E+02  0.63260750820E+02  0.00000000000E+00 0. -1.
         -5    1    5    5    0  502  0.16782686563E+03  0.65066387968E+01 -0.45640908800E+02  0.17410736840E+03  0.47000000000E+01 0.  1.
         13    1    6    6    0    0  0.52850387869E+02  0.27551224644E+02  0.98461981591E+00  0.59608748967E+02  0.00000000000E+00 0. -1.
        -14    1    6    6    0    0  0.25631792808E+02  0.89693398093E+02 -0.50860270113E+02  0.10624811311E+03  0.00000000000E+00 0.  1.
<mgrwt>
<rscale>  2 0.33248761E+03</rscale>
<asrwt>0</asrwt>
<pdfrwt beam="1">  1       21 0.29237602E-01 0.33458629E+03</pdfrwt>
<pdfrwt beam="2">  1       21 0.96985031E-01 0.33458629E+03</pdfrwt>
<totfact> 0.91475669E+03</totfact>
</mgrwt>
</event>
<event>
12    1  0.1013215E-001  0.3986628E+03  0.7546771E-02  0.1044634E+00
         21   -1    0    0  503  502  0.00000000000E+00  0.00000000000E+00  0.53191549935E+03  0.53191549935E+03  0.00000000000E+00 0. -1.
         21   -1    0    0  501  503 -0.00000000000E+00 -0.00000000000E+00 -0.32716899124E+03  0.32716899124E+03  0.00000000000E+00 0.  1.
          6    2    1    2  501    0 -0.32853684197E+03 -0.13898265225E+03  0.23661729750E+03  0.46359442693E+03  0.17798711484E+03 0.  0.
         24    2    3    3    0    0 -0.21463991903E+03 -0.14292212964E+02  0.12986906128E+03  0.26375076143E+03  0.80149416003E+02 0.  0.
         -6    2    1    2    0  502  0.32853684197E+03  0.13898265225E+03 -0.31870789398E+02  0.39549006366E+03  0.16776176286E+03 0.  0.
        -24    2    5    5    0    0  0.88557591292E+02  0.81301715224E+02  0.10196854059E+02  0.14507259646E+03  0.80558466578E+02 0.  0.
          5    1    3    3  501    0 -0.11389692294E+03 -0.12469043929E+03  0.10674823622E+03  0.19984366550E+03  0.47000000000E+01 0. -1.
        -11    1    4    4    0    0 -0.38125866437E+01  0.10375592364E+02 -0.51367909011E+01  0.12189149051E+02  0.00000000000E+00 0.  1.
         12    1    4    4    0    0 -0.21082733238E+03 -0.24667805327E+02  0.13500585218E+03  0.25156161238E+03  0.00000000000E+00 0. -1.
         -5    1    5    5    0  502  0.23997925068E+03  0.57680937025E+02 -0.42067643457E+02  0.25041746720E+03  0.47000000000E+01 0.  1.
         11    1    6    6    0    0  0.92296313641E+02  0.90839576802E+02 -0.15188185208E+01  0.12950963298E+03  0.00000000000E+00 0. -1.
        -12    1    6    6    0    0 -0.37387223493E+01 -0.95378615777E+01  0.11715672579E+02  0.15562963480E+02  0.00000000000E+00 0.  1.
<mgrwt>
<rscale>  2 0.39754336E+03</rscale>
<asrwt>0</asrwt>
<pdfrwt beam="1">  1       21 0.81833154E-01 0.39866282E+03</pdfrwt>
<pdfrwt beam="2">  1       21 0.50333691E-01 0.39866282E+03</pdfrwt>
<totfact> 0.43857843E+03</totfact>
</mgrwt>
</event>
<event>
12    1  0.1013215E-001  0.2182727E+03  0.7546771E-02  0.1135224E+00
         21   -1    0    0  501  502  0.00000000000E+00  0.00000000000E+00  0.24278154540E+03  0.24278154540E+03  0.00000000000E+00 0. -1.
         21   -1    0    0  502  503 -0.00000000000E+00 -0.00000000000E+00 -0.29254885297E+03  0.29254885297E+03  0.00000000000E+00 0.  1.
         -6    2    1    2    0  503 -0.12881313843E+03  0.33828410596E+02 -0.17864920674E+03  0.28206121103E+03  0.17293293991E+03 0.  0.
        -24    2    3    3    0    0 -0.61316341713E+02  0.86410603861E+02 -0.11824513224E+03  0.17722110978E+03  0.78733247300E+02 0.  0.
          6    2    1    2  501    0  0.12881313843E+03 -0.33828410596E+02  0.12888189917E+03  0.25326918734E+03  0.17261967248E+03 0.  0.
         24    2    5    5    0    0  0.83857123496E+02  0.14836774071E+02  0.10489245095E+02  0.11751848194E+03  0.80302069143E+02 0.  0.
          5    1    5    5  501    0  0.44956014932E+02 -0.48665184666E+02  0.11839265408E+03  0.13575070540E+03  0.47000000000E+01 0. -1.
        -11    1    6    6    0    0  0.30824479757E+01 -0.17635866268E+02 -0.18516224160E+02  0.25756083198E+02  0.00000000000E+00 0.  1.
         12    1    6    6    0    0  0.80774675520E+02  0.32472640339E+02  0.29005469254E+02  0.91762398741E+02  0.00000000000E+00 0. -1.
         -5    1    3    3    0  503 -0.67496796715E+02 -0.52582193265E+02 -0.60404074493E+02  0.10484010125E+03  0.47000000000E+01 0.  1.
         11    1    4    4    0    0 -0.65791053757E+02  0.35034253353E+02 -0.94738443606E+02  0.12054556964E+03  0.00000000000E+00 0. -1.
        -12    1    4    4    0    0  0.44747120436E+01  0.51376350507E+02 -0.23506688638E+02  0.56675540139E+02  0.00000000000E+00 0.  1.
<mgrwt>
<rscale>  2 0.21821068E+03</rscale>
<asrwt>0</asrwt>
<pdfrwt beam="1">  1       21 0.37351007E-01 0.21827274E+03</pdfrwt>
<pdfrwt beam="2">  1       21 0.45007516E-01 0.21827274E+03</pdfrwt>
<totfact> 0.32308465E+04</totfact>
</mgrwt>
</event>
<event>
12    1  0.1013215E-001  0.2553583E+03  0.7546771E-02  0.1110002E+00
         21   -1    0    0  501  502  0.00000000000E+00  0.00000000000E+00  0.69318191827E+03  0.69318191827E+03  0.00000000000E+00 0.  1.
         21   -1    0    0  502  503 -0.00000000000E+00 -0.00000000000E+00 -0.98841330158E+02  0.98841330158E+02  0.00000000000E+00 0. -1.
         -6    2    1    2    0  503  0.75471411239E+02  0.17175940120E+03  0.20948851204E+03  0.33029276742E+03  0.17323582112E+03 0.  0.
        -24    2    3    3    0    0  0.50946609526E+02  0.44740330398E+02  0.28057930083E+02  0.10741509623E+03  0.78444255820E+02 0.  0.
          6    2    1    2  501    0 -0.75471411239E+02 -0.17175940120E+03  0.38485207607E+03  0.46173048101E+03  0.17287767588E+03 0.  0.
         24    2    5    5    0    0 -0.25764083387E+01 -0.11539157312E+03  0.13928176190E+03  0.19939885369E+03  0.83896606765E+02 0.  0.
          5    1    5    5  501    0 -0.72895002901E+02 -0.56367828080E+02  0.24557031417E+03  0.26233162732E+03  0.47000000000E+01 0. -1.
        -11    1    6    6    0    0  0.29209632448E+02 -0.43562572981E+02  0.96807393198E+02  0.11010255115E+03  0.00000000000E+00 0.  1.
         12    1    6    6    0    0 -0.31786040787E+02 -0.71829000139E+02  0.42474368707E+02  0.89296302538E+02  0.00000000000E+00 0. -1.
         -5    1    3    3    0  503  0.24524801714E+02  0.12701907080E+03  0.18143058196E+03  0.22287767119E+03  0.47000000000E+01 0.  1.
         11    1    4    4    0    0 -0.29981874259E+00  0.41952413293E+02 -0.10470422777E+02  0.43240312504E+02  0.00000000000E+00 0. -1.
        -12    1    4    4    0    0  0.51246428268E+02  0.27879171054E+01  0.38528352860E+02  0.64174783725E+02  0.00000000000E+00 0.  1.
<mgrwt>
<rscale>  2 0.25529760E+03</rscale>
<asrwt>0</asrwt>
<pdfrwt beam="1">  1       21 0.10664337E+00 0.25535833E+03</pdfrwt>
<pdfrwt beam="2">  1       21 0.15206359E-01 0.25535833E+03</pdfrwt>
<totfact> 0.26043466E+04</totfact>
</mgrwt>
</event>
<event>
12    1  0.1013215E-001  0.1919230E+03  0.7546771E-02  0.1156856E+00
         21   -1    0    0  501  502  0.00000000000E+00  0.00000000000E+00  0.12385706159E+03  0.12385706159E+03  0.00000000000E+00 0.  1.
         21   -1    0    0  502  503 -0.00000000000E+00 -0.00000000000E+00 -0.13954153808E+04  0.13954153808E+04  0.00000000000E+00 0. -1.
         -6    2    1    2    0  503 -0.44146276314E+02  0.72061554736E+02 -0.13096874213E+04  0.13235985937E+04  0.17172750026E+03 0.  0.
        -24    2    3    3    0    0 -0.35674219141E+02  0.11392768261E+03 -0.10867311902E+04  0.10965388672E+04  0.84620569154E+02 0.  0.
          6    2    1    2  501    0  0.44146276314E+02 -0.72061554736E+02  0.38129102017E+02  0.19567384877E+03  0.17231559793E+03 0.  0.
         24    2    5    5    0    0  0.61332357481E+02 -0.12305427060E+02  0.72096757901E+02  0.12466647009E+03  0.80191674480E+02 0.  0.
          5    1    5    5  501    0 -0.17186081166E+02 -0.59756127676E+02 -0.33967655884E+02  0.71007378680E+02  0.47000000000E+01 0. -1.
        -11    1    6    6    0    0 -0.35481277685E+01 -0.17634559971E+02  0.54266125007E+02  0.57169740592E+02  0.00000000000E+00 0.  1.
         12    1    6    6    0    0  0.64880485249E+02  0.53291329106E+01  0.17830632894E+02  0.67496729500E+02  0.00000000000E+00 0. -1.
         -5    1    3    3    0  503 -0.84720571734E+01 -0.41866127878E+02 -0.22295623107E+03  0.22705972648E+03  0.47000000000E+01 0.  1.
         11    1    4    4    0    0  0.59683097035E+01  0.73056194259E+02 -0.83142786795E+03  0.83465269893E+03  0.00000000000E+00 0. -1.
        -12    1    4    4    0    0 -0.41642528845E+02  0.40871488354E+02 -0.25530332224E+03  0.26188616824E+03  0.00000000000E+00 0.  1.
<mgrwt>
<rscale>  2 0.19179087E+03</rscale>
<asrwt>0</asrwt>
<pdfrwt beam="1">  1       21 0.19054931E-01 0.19192297E+03</pdfrwt>
<pdfrwt beam="2">  1       21 0.21467930E+00 0.19192297E+03</pdfrwt>
<totfact> 0.27430553E+03</totfact>
</mgrwt>
</event>
<event>
12    1  0.1013215E-001  0.2003998E+03  0.7546771E-02  0.1149448E+00
         21   -1    0    0  501  502  0.00000000000E+00  0.00000000000E+00  0.15203552908E+03  0.15203552908E+03  0.00000000000E+00 0. -1.
         21   -1    0    0  502  503 -0.00000000000E+00 -0.00000000000E+00 -0.26444384210E+03  0.26444384210E+03  0.00000000000E+00 0. -1.
         -6    2    1    2    0  503 -0.98000485472E+02 -0.22752324568E+02 -0.46478979672E+02  0.20571916288E+03  0.17331565133E+03 0.  0.
        -24    2    3    3    0    0 -0.64149285195E+02 -0.13502592550E+02 -0.97014409099E+02  0.14401518464E+03  0.83851815948E+02 0.  0.
          6    2    1    2  501    0  0.98000485472E+02  0.22752324568E+02 -0.65929333339E+02  0.21076020830E+03  0.17306479996E+03 0.  0.
         24    2    5    5    0    0 -0.15113127584E+02  0.19018313522E+02 -0.12572550571E+02  0.85549711281E+02  0.81059121620E+02 0.  0.
          5    1    5    5  501    0  0.11311361306E+03  0.37340110454E+01 -0.53356782768E+02  0.12521049702E+03  0.47000000000E+01 0. -1.
        -11    1    6    6    0    0 -0.37486229573E+02  0.19627141807E+02  0.19378129500E+02  0.46539810980E+02  0.00000000000E+00 0.  1.
         12    1    6    6    0    0  0.22373101989E+02 -0.60882828506E+00 -0.31950680072E+02  0.39009900301E+02  0.00000000000E+00 0. -1.
         -5    1    3    3    0  503 -0.33851200277E+02 -0.92497320176E+01  0.50535429427E+02  0.61703978235E+02  0.47000000000E+01 0.  1.
         11    1    4    4    0    0 -0.48692512156E+02 -0.15754195646E+02 -0.58369697488E+01  0.51509471327E+02  0.00000000000E+00 0. -1.
        -12    1    4    4    0    0 -0.15456773039E+02  0.22516030962E+01 -0.91177439350E+02  0.92505713314E+02  0.00000000000E+00 0.  1.
<mgrwt>
<rscale>  2 0.20034555E+03</rscale>
<asrwt>0</asrwt>
<pdfrwt beam="1">  1       21 0.23390081E-01 0.20039980E+03</pdfrwt>
<pdfrwt beam="2">  1       21 0.40683668E-01 0.20039980E+03</pdfrwt>
<totfact> 0.99753054E+04</totfact>
</mgrwt>
</event>
<event>
12    1  0.1013215E-001  0.2046639E+03  0.7546771E-02  0.1146069E+00
         21   -1    0    0  503  502  0.00000000000E+00  0.00000000000E+00  0.16805457538E+03  0.16805457538E+03  0.00000000000E+00 0.  1.
         21   -1    0    0  501  503 -0.00000000000E+00 -0.00000000000E+00 -0.27523214512E+03  0.27523214512E+03  0.00000000000E+00 0.  1.
          6    2    1    2  501    0 -0.77199297355E+02 -0.75459927748E+02  0.16215541196E+02  0.20430309772E+03  0.17269302173E+03 0.  0.
         24    2    3    3    0    0 -0.10053351033E+03 -0.10474851781E+03  0.12534437238E+02  0.16638281911E+03  0.80292538226E+02 0.  0.
         -6    2    1    2    0  502  0.77199297355E+02  0.75459927748E+02 -0.12339311093E+03  0.23898362278E+03  0.17387748538E+03 0.  0.
        -24    2    5    5    0    0  0.55864053187E+02 -0.24452557692E+02 -0.51258641504E+02  0.11383103962E+03  0.81310129975E+02 0.  0.
          5    1    3    3  501    0  0.23334212978E+02  0.29288590064E+02  0.36811039582E+01  0.37920278607E+02  0.47000000000E+01 0. -1.
        -11    1    4    4    0    0  0.55998282901E+01 -0.32258672391E+02 -0.13206006843E+02  0.35304088121E+02  0.00000000000E+00 0.  1.
         12    1    4    4    0    0 -0.10613333862E+03 -0.72489845421E+02  0.25740444081E+02  0.13107873099E+03  0.00000000000E+00 0. -1.
         -5    1    5    5    0  502  0.21335244168E+02  0.99912485440E+02 -0.72134469429E+02  0.12515258315E+03  0.47000000000E+01 0.  1.
         11    1    6    6    0    0  0.64309749856E+02  0.14089269588E+01 -0.57091917716E+02  0.86007069885E+02  0.00000000000E+00 0. -1.
        -12    1    6    6    0    0 -0.84456966689E+01 -0.25861484651E+02  0.58332762122E+01  0.27823969737E+02  0.00000000000E+00 0.  1.
<mgrwt>
<rscale>  2 0.20441210E+03</rscale>
<asrwt>0</asrwt>
<pdfrwt beam="1">  1       21 0.25854550E-01 0.20466390E+03</pdfrwt>
<pdfrwt beam="2">  1       21 0.42343406E-01 0.20466390E+03</pdfrwt>
<totfact> 0.75826750E+04</totfact>
</mgrwt>
</event>
<event>
12    1  0.1013215E-001  0.1918703E+03  0.7546771E-02  0.1156875E+00
         21   -1    0    0  503  502  0.00000000000E+00  0.00000000000E+00  0.60156913646E+02  0.60156913646E+02  0.00000000000E+00 0. -1.
         21   -1    0    0  501  503 -0.00000000000E+00 -0.00000000000E+00 -0.71517263590E+03  0.71517263590E+03  0.00000000000E+00 0. -1.
          6    2    1    2  501    0 -0.80089257668E+02 -0.21885594781E+02 -0.47598027525E+03  0.51319725832E+03  0.17297668936E+03 0.  0.
         24    2    3    3    0    0 -0.87664742602E+02  0.19672484321E+02 -0.21540009254E+03  0.24917342695E+03  0.87281630909E+02 0.  0.
         -6    2    1    2    0  502  0.80089257668E+02  0.21885594781E+02 -0.17903544700E+03  0.26213229123E+03  0.17252935510E+03 0.  0.
        -24    2    5    5    0    0  0.53006472367E+02  0.62371630135E+01 -0.17242543957E+02  0.97276644823E+02  0.79478625999E+02 0.  0.
          5    1    3    3  501    0  0.75754849338E+01 -0.41558079102E+02 -0.26058018271E+03  0.26402383137E+03  0.47000000000E+01 0. -1.
        -13    1    4    4    0    0 -0.74932996368E+01  0.38015786948E+02 -0.10182254888E+03  0.10894577118E+03  0.00000000000E+00 0.  1.
         14    1    4    4    0    0 -0.80171442965E+02 -0.18343302627E+02 -0.11357754366E+03  0.14022765577E+03  0.00000000000E+00 0. -1.
         -5    1    5    5    0  502  0.27082785301E+02  0.15648431768E+02 -0.16179290305E+03  0.16485564641E+03  0.47000000000E+01 0.  1.
         11    1    6    6    0    0  0.35906731232E+01 -0.17872657109E+02  0.22847869372E+02  0.29229265137E+02  0.00000000000E+00 0. -1.
        -12    1    6    6    0    0  0.49415799244E+02  0.24109820122E+02 -0.40090413329E+02  0.68047379686E+02  0.00000000000E+00 0.  1.
<mgrwt>
<rscale>  2 0.19176940E+03</rscale>
<asrwt>0</asrwt>
<pdfrwt beam="1">  1       21 0.92549094E-02 0.19187028E+03</pdfrwt>
<pdfrwt beam="2">  1       21 0.11002656E+00 0.19187028E+03</pdfrwt>
<totfact> 0.60733416E+04</totfact>
</mgrwt>
</event>
<event>
12    1  0.1013215E-001  0.2145740E+03  0.7546771E-02  0.1138351E+00
         21   -1    0    0  501  502  0.00000000000E+00  0.00000000000E+00  0.60355876190E+03  0.60355876190E+03  0.00000000000E+00 0.  1.
         21   -1    0    0  502  503 -0.00000000000E+00 -0.00000000000E+00 -0.76923073454E+02  0.76923073454E+02  0.00000000000E+00 0.  1.
         -6    2    1    2    0  503 -0.62530973541E+02  0.10736716435E+03  0.30631363196E+03  0.37293701790E+03  0.17267352883E+03 0.  0.
        -24    2    3    3    0    0 -0.80466271354E+02  0.62216681149E+02  0.29592674955E+03  0.32303493009E+03  0.80207161288E+02 0.  0.
          6    2    1    2  501    0  0.62530973541E+02 -0.10736716435E+03  0.22032205648E+03  0.30754481746E+03  0.17494049142E+03 0.  0.
         24    2    5    5    0    0  0.86156940741E+02 -0.23499639077E+02  0.16239345336E+03  0.20280818976E+03  0.82366720614E+02 0.  0.
          5    1    5    5  501    0 -0.23625967200E+02 -0.83867525274E+02  0.57928603118E+02  0.10473662769E+03  0.47000000000E+01 0. -1.
        -13    1    6    6    0    0  0.79983128304E+02 -0.28849254272E+02  0.17098102630E+03  0.19095573214E+03  0.00000000000E+00 0.  1.
         14    1    6    6    0    0  0.61738124373E+01  0.53496151955E+01 -0.85875729317E+01  0.11852457619E+02  0.00000000000E+00 0. -1.
         -5    1    3    3    0  503  0.17935297813E+02  0.45150483201E+02  0.10386882413E+02  0.49902087804E+02  0.47000000000E+01 0.  1.
         13    1    4    4    0    0  0.13651401249E+02  0.43847526381E+00  0.61200698630E+02  0.62706287798E+02  0.00000000000E+00 0. -1.
        -14    1    4    4    0    0 -0.94117672602E+02  0.61778205885E+02  0.23472605092E+03  0.26032864229E+03  0.00000000000E+00 0.  1.
<mgrwt>
<rscale>  2 0.21411147E+03</rscale>
<asrwt>0</asrwt>
<pdfrwt beam="1">  1       21 0.92855191E-01 0.21457401E+03</pdfrwt>
<pdfrwt beam="2">  1       21 0.11834319E-01 0.21457401E+03</pdfrwt>
<totfact> 0.58163881E+04</totfact>
</mgrwt>
</event>
<event>
12    1  0.1013215E-001  0.1806864E+03  0.7546771E-02  0.1167413E+00
         21   -1    0    0  503  502  0.00000000000E+00  0.00000000000E+00  0.52895394535E+03  0.52895394535E+03  0.00000000000E+00 0.  1.
         21   -1    0    0  501  503 -0.00000000000E+00 -0.00000000000E+00 -0.84246053018E+02  0.84246053018E+02  0.00000000000E+00 0.  1.
          6    2    1    2  501    0  0.48462820651E+02 -0.14914044147E+02  0.62977498102E+02  0.19134721843E+03  0.17342583151E+03 0.  0.
         24    2    3    3    0    0  0.19264804103E+02 -0.70561823324E+02  0.95453983797E+01  0.10872592106E+03  0.79875576323E+02 0.  0.
         -6    2    1    2    0  502 -0.48462820651E+02  0.14914044147E+02  0.38173039423E+03  0.42185277994E+03  0.17225156129E+03 0.  0.
        -24    2    5    5    0    0 -0.21412975607E+02 -0.57602143491E+02  0.23379465421E+03  0.25482773762E+03  0.80626999600E+02 0.  0.
          5    1    3    3  501    0  0.29198016548E+02  0.55647779177E+02  0.53432099722E+02  0.82621297366E+02  0.47000000000E+01 0. -1.
        -13    1    4    4    0    0  0.41125787056E+02 -0.28330854724E+02 -0.18804636817E+02  0.53362740336E+02  0.00000000000E+00 0.  1.
         14    1    4    4    0    0 -0.21860982953E+02 -0.42230968600E+02  0.28350035196E+02  0.55363180727E+02  0.00000000000E+00 0. -1.
         -5    1    5    5    0  502 -0.27049845044E+02  0.72516187638E+02  0.14793574003E+03  0.16702504232E+03  0.47000000000E+01 0.  1.
         11    1    6    6    0    0 -0.18143691460E+02 -0.55027735454E+02  0.69518934886E+02  0.90499323294E+02  0.00000000000E+00 0. -1.
        -12    1    6    6    0    0 -0.32692841467E+01 -0.25744080365E+01  0.16427571932E+03  0.16432841433E+03  0.00000000000E+00 0.  1.
<mgrwt>
<rscale>  2 0.18040409E+03</rscale>
<asrwt>0</asrwt>
<pdfrwt beam="1">  1       21 0.81377528E-01 0.18068645E+03</pdfrwt>
<pdfrwt beam="2">  1       21 0.12960932E-01 0.18068645E+03</pdfrwt>
<totfact> 0.67986056E+04</totfact>
</mgrwt>
</event>
<event>
12    1  0.1013215E-001  0.2198455E+03  0.7546771E-02  0.1134157E+00
         21   -1    0    0  503  502  0.00000000000E+00  0.00000000000E+00  0.48571571868E+02  0.48571571868E+02  0.00000000000E+00 0.  1.
         21   -1    0    0  501  503 -0.00000000000E+00 -0.00000000000E+00 -0.15452163905E+04  0.15452163905E+04  0.00000000000E+00 0. -1.
          6    2    1    2  501    0 -0.10798452612E+03 -0.87108010320E+02 -0.12264058727E+04  0.12459548185E+04  0.17053909207E+03 0.  0.
         24    2    3    3    0    0 -0.12962566594E+03 -0.11005431093E+03 -0.10645966447E+04  0.10810330555E+04  0.79697469571E+02 0.  0.
         -6    2    1    2    0  502  0.10798452612E+03  0.87108010320E+02 -0.27023894597E+03  0.34783314386E+03  0.16944127214E+03 0.  0.
        -24    2    5    5    0    0  0.27506848785E+02 -0.14931738276E+02 -0.89029280272E+02  0.12479099586E+03  0.81651677042E+02 0.  0.
          5    1    3    3  501    0  0.21641139824E+02  0.22946300610E+02 -0.16180922804E+03  0.16492176304E+03  0.47000000000E+01 0. -1.
        -11    1    4    4    0    0 -0.81285838387E+02 -0.25843349025E+02 -0.37137631627E+03  0.38104544939E+03  0.00000000000E+00 0.  1.
         12    1    4    4    0    0 -0.48339827554E+02 -0.84210961905E+02 -0.69322032839E+03  0.69998760612E+03  0.00000000000E+00 0. -1.
         -5    1    5    5    0  502  0.80477677332E+02  0.10203974860E+03 -0.18120966570E+03  0.22304214800E+03  0.47000000000E+01 0.  1.
         13    1    6    6    0    0  0.31240192312E+02 -0.27139132859E+02 -0.99831386790E+02  0.10806844098E+03  0.00000000000E+00 0. -1.
        -14    1    6    6    0    0 -0.37333435271E+01  0.12207394583E+02  0.10802106517E+02  0.16722554877E+02  0.00000000000E+00 0.  1.
<mgrwt>
<rscale>  2 0.21963257E+03</rscale>
<asrwt>0</asrwt>
<pdfrwt beam="1">  1       21 0.74725499E-02 0.21984550E+03</pdfrwt>
<pdfrwt beam="2">  1       21 0.23772559E+00 0.21984550E+03</pdfrwt>
<totfact> 0.10367479E+04</totfact>
</mgrwt>
</event>
<event>
12    1  0.1013215E-001  0.2236602E+03  0.7546771E-02  0.1131531E+00
         21   -1    0    0  501  502  0.00000000000E+00  0.00000000000E+00  0.30280105356E+03  0.30280105356E+03  0.00000000000E+00 0.  1.
         21   -1    0    0  502  503 -0.00000000000E+00 -0.00000000000E+00 -0.16777165484E+03  0.16777165484E+03  0.00000000000E+00 0.  1.
         -6    2    1    2    0  503 -0.13985185206E+03 -0.15809777367E+02  0.31050304172E+02  0.22392405996E+03  0.17137495049E+03 0.  0.
        -24    2    3    3    0    0 -0.12497243182E+03  0.14754981448E+02 -0.35111847453E+02  0.14939136958E+03  0.72450819736E+02 0.  0.
          6    2    1    2  501    0  0.13985185206E+03  0.15809777367E+02  0.10397909455E+03  0.24664864843E+03  0.17382581536E+03 0.  0.
         24    2    5    5    0    0  0.98151686023E+02 -0.33879882916E+02  0.70643662338E+01  0.12993309355E+03  0.77788839782E+02 0.  0.
          5    1    5    5  501    0  0.41700166032E+02  0.49689660283E+02  0.96914728315E+02  0.11671555488E+03  0.47000000000E+01 0. -1.
        -11    1    6    6    0    0  0.99348104330E+02 -0.46010804477E+01  0.12142525416E+02  0.10019309706E+03  0.00000000000E+00 0.  1.
         12    1    6    6    0    0 -0.11964183065E+01 -0.29278802468E+02 -0.50781591822E+01  0.29739996493E+02  0.00000000000E+00 0. -1.
         -5    1    3    3    0  503 -0.14879420235E+02 -0.30564758815E+02  0.66162151625E+02  0.74532690382E+02  0.47000000000E+01 0.  1.
         13    1    4    4    0    0 -0.38913344469E+02 -0.27983528588E+02 -0.20780459191E+02  0.52241302952E+02  0.00000000000E+00 0. -1.
        -14    1    4    4    0    0 -0.86059087352E+02  0.42738510037E+02 -0.14331388262E+02  0.97150066627E+02  0.00000000000E+00 0.  1.
<mgrwt>
<rscale>  2 0.22318387E+03</rscale>
<asrwt>0</asrwt>
<pdfrwt beam="1">  1       21 0.46584777E-01 0.22366024E+03</pdfrwt>
<pdfrwt beam="2">  1       21 0.25811024E-01 0.22366024E+03</pdfrwt>
<totfact> 0.62017976E+04</totfact>
</mgrwt>
</event>
<event>
12    1  0.1013215E-001  0.2162248E+03  0.7546771E-02  0.1136864E+00
         21   -1    0    0  503  502  0.00000000000E+00  0.00000000000E+00  0.11056002718E+03  0.11056002718E+03  0.00000000000E+00 0.  1.
         21   -1    0    0  501  503 -0.00000000000E+00 -0.00000000000E+00 -0.44427139246E+03  0.44427139246E+03  0.00000000000E+00 0. -1.
          6    2    1    2  501    0  0.10841469496E+03  0.65230282811E+02 -0.22992084468E+03  0.31562125685E+03  0.17534094525E+03 0.  0.
         24    2    3    3    0    0  0.51641096118E+01  0.41005036509E+01 -0.15693546412E+03  0.17509905558E+03  0.77378661198E+02 0.  0.
         -6    2    1    2    0  502 -0.10841469496E+03 -0.65230282811E+02 -0.10379052060E+03  0.23921016279E+03  0.17447147027E+03 0.  0.
        -24    2    5    5    0    0 -0.34085003213E+01 -0.74915045374E+02 -0.46774944392E+02  0.11923949359E+03  0.80039237318E+02 0.  0.
          5    1    3    3  501    0  0.10325058535E+03  0.61129779160E+02 -0.72985380559E+02  0.14052220127E+03  0.47000000000E+01 0. -1.
        -13    1    4    4    0    0 -0.40790575602E+00  0.36837043839E+02 -0.11953910059E+03  0.12508689282E+03  0.00000000000E+00 0.  1.
         14    1    4    4    0    0  0.55720153678E+01 -0.32736540188E+02 -0.37396363530E+02  0.50012162761E+02  0.00000000000E+00 0. -1.
         -5    1    5    5    0  502 -0.10500619464E+03  0.96847625630E+01 -0.57015576207E+02  0.11997066920E+03  0.47000000000E+01 0.  1.
         13    1    6    6    0    0  0.17952269902E+02 -0.35799271099E+01 -0.40579754569E+02  0.44517596000E+02  0.00000000000E+00 0. -1.
        -14    1    6    6    0    0 -0.21360770223E+02 -0.71335118264E+02 -0.61951898237E+01  0.74721897588E+02  0.00000000000E+00 0.  1.
<mgrwt>
<rscale>  2 0.21604851E+03</rscale>
<asrwt>0</asrwt>
<pdfrwt beam="1">  1       21 0.17009235E-01 0.21622484E+03</pdfrwt>
<pdfrwt beam="2">  1       21 0.68349445E-01 0.21622484E+03</pdfrwt>
<totfact> 0.60200714E+04</totfact>
</mgrwt>
</event>
<event>
12    1  0.1013215E-001  0.1996944E+03  0.7546771E-02  0.1150189E+00
         21   -1    0    0  503  502  0.00000000000E+00  0.00000000000E+00  0.48013044035E+03  0.48013044035E+03  0.00000000000E+00 0.  1.
         21   -1    0    0  501  503 -0.00000000000E+00 -0.00000000000E+00 -0.83029475806E+02  0.83029475806E+02  0.00000000000E+00 0. -1.
          6    2    1    2  501    0 -0.26841282077E+02 -0.97448551472E+02  0.18073954516E+03  0.26934112836E+03  0.17222423068E+03 0.  0.
         24    2    3    3    0    0 -0.18908473517E+02  0.17374335632E+02  0.12505715380E+03  0.14139643889E+03  0.60780451685E+02 0.  0.
         -6    2    1    2    0  502  0.26841282077E+02  0.97448551472E+02  0.21636141938E+03  0.29381878779E+03  0.17117400987E+03 0.  0.
        -24    2    5    5    0    0  0.50672629962E+02  0.83901336312E+02  0.23085598995E+03  0.26245570828E+03  0.77339259458E+02 0.  0.
          5    1    3    3  501    0 -0.79328085594E+01 -0.11482288710E+03  0.55682391360E+02  0.12794468946E+03  0.47000000000E+01 0. -1.
        -11    1    4    4    0    0  0.20099710437E+02  0.17162803676E+02  0.59593916709E+02  0.65191986458E+02  0.00000000000E+00 0.  1.
         12    1    4    4    0    0 -0.39008183954E+02  0.21153195582E+00  0.65463237087E+02  0.76204452436E+02  0.00000000000E+00 0. -1.
         -5    1    5    5    0  502 -0.23831347886E+02  0.13547215160E+02 -0.14494570562E+02  0.31363079511E+02  0.47000000000E+01 0.  1.
         13    1    6    6    0    0  0.55853737092E+02  0.82779999760E+02  0.14286950837E+03  0.17430968054E+03  0.00000000000E+00 0. -1.
        -14    1    6    6    0    0 -0.51811071293E+01  0.11213365518E+01  0.87986481579E+02  0.88146027746E+02  0.00000000000E+00 0.  1.
<mgrwt>
<rscale>  2 0.19946777E+03</rscale>
<asrwt>0</asrwt>
<pdfrwt beam="1">  1       21 0.73866220E-01 0.19969442E+03</pdfrwt>
<pdfrwt beam="2">  1       21 0.12773766E-01 0.19969442E+03</pdfrwt>
<totfact> 0.86029307E+04</totfact>
</mgrwt>
</event>
<event>
12    1  0.1013215E-001  0.2540692E+03  0.7546771E-02  0.1110872E+00
         21   -1    0    0  501  502  0.00000000000E+00  0.00000000000E+00  0.37423167138E+03  0.37423167138E+03  0.00000000000E+00 0.  1.
         21   -1    0    0  502  503 -0.00000000000E+00 -0.00000000000E+00 -0.17298614328E+03  0.17298614328E+03  0.00000000000E+00 0.  1.
         -6    2    1    2    0  503 -0.17056612026E+03 -0.72281812596E+02  0.80108287275E+02  0.26639911680E+03  0.17387837682E+03 0.  0.
        -24    2    3    3    0    0 -0.17412507989E+02 -0.48615976562E+02  0.87344506785E+01  0.95716911227E+02  0.80116963588E+02 0.  0.
          6    2    1    2  501    0  0.17056612026E+03  0.72281812596E+02  0.12113724083E+03  0.28081869787E+03  0.17282201291E+03 0.  0.
         24    2    5    5    0    0  0.11381471982E+03 -0.15182477130E+02  0.49759215652E+02  0.15437647428E+03  0.90398109540E+02 0.  0.
          5    1    5    5  501    0  0.56751400445E+02  0.87464289726E+02  0.71378025174E+02  0.12644222359E+03  0.47000000000E+01 0. -1.
        -13    1    6    6    0    0  0.97776509784E+02  0.14185512908E+02  0.64311197014E+02  0.11788725420E+03  0.00000000000E+00 0.  1.
         14    1    6    6    0    0  0.16038210036E+02 -0.29367990038E+02 -0.14551981363E+02  0.36489220074E+02  0.00000000000E+00 0. -1.
         -5    1    3    3    0  503 -0.15315361228E+03 -0.23665836033E+02  0.71373836596E+02  0.17068220557E+03  0.47000000000E+01 0.  1.
         11    1    4    4    0    0  0.15231381973E+02 -0.57023236240E+02  0.16170254637E+02  0.61197398663E+02  0.00000000000E+00 0. -1.
        -12    1    4    4    0    0 -0.32643889962E+02  0.84072596775E+01 -0.74358039582E+01  0.34519512564E+02  0.00000000000E+00 0.  1.
<mgrwt>
<rscale>  2 0.25388855E+03</rscale>
<asrwt>0</asrwt>
<pdfrwt beam="1">  1       21 0.57574103E-01 0.25406919E+03</pdfrwt>
<pdfrwt beam="2">  1       21 0.26613253E-01 0.25406919E+03</pdfrwt>
<totfact> 0.36939451E+04</totfact>
</mgrwt>
</event>
<event>
12    1  0.1013215E-001  0.1930112E+03  0.7546771E-02  0.1156370E+00
         21   -1    0    0  503  502  0.00000000000E+00  0.00000000000E+00  0.66154137885E+03  0.66154137885E+03  0.00000000000E+00 0.  1.
         21   -1    0    0  501  503 -0.00000000000E+00 -0.00000000000E+00 -0.55868689271E+02  0.55868689271E+02  0.00000000000E+00 0.  1.
          6    2    1    2  501    0  0.53058310402E+01  0.83143330991E+02  0.27713544344E+03  0.33772382203E+03  0.17410445319E+03 0.  0.
         24    2    3    3    0    0  0.20251687910E+02  0.52926464663E+02  0.28697041239E+03  0.30229425440E+03  0.76278811778E+02 0.  0.
         -6    2    1    2    0  502 -0.53058310402E+01 -0.83143330991E+02  0.32853724614E+03  0.37968624610E+03  0.17112556222E+03 0.  0.
        -24    2    5    5    0    0  0.52132361887E+02 -0.51302043548E+02  0.12448984777E+03  0.16527905318E+03  0.80434820786E+02 0.  0.
          5    1    3    3  501    0 -0.14945856870E+02  0.30216866328E+02 -0.98349689502E+01  0.35429567631E+02  0.47000000000E+01 0. -1.
        -11    1    4    4    0    0  0.42573019757E+02  0.32443491824E+02  0.24346824260E+03  0.24928262540E+03  0.00000000000E+00 0.  1.
         12    1    4    4    0    0 -0.22321331847E+02  0.20482972839E+02  0.43502169797E+02  0.53011628996E+02  0.00000000000E+00 0. -1.
         -5    1    5    5    0  502 -0.57438192927E+02 -0.31841287444E+02  0.20404739837E+03  0.21440719292E+03  0.47000000000E+01 0.  1.
         13    1    6    6    0    0  0.24388486766E+02  0.97553262392E+01  0.81475351761E+02  0.85604892508E+02  0.00000000000E+00 0. -1.
        -14    1    6    6    0    0  0.27743875121E+02 -0.61057369787E+02  0.43014496004E+02  0.79674160670E+02  0.00000000000E+00 0.  1.
<mgrwt>
<rscale>  2 0.19233700E+03</rscale>
<asrwt>0</asrwt>
<pdfrwt beam="1">  1       21 0.10177559E+00 0.19301121E+03</pdfrwt>
<pdfrwt beam="2">  1       21 0.85951834E-02 0.19301121E+03</pdfrwt>
<totfact> 0.83347741E+04</totfact>
</mgrwt>
</event>
<event>
12    1  0.1013215E-001  0.2141223E+03  0.7546771E-02  0.1138598E+00
         21   -1    0    0  503  502  0.00000000000E+00  0.00000000000E+00  0.59440510646E+03  0.59440510646E+03  0.00000000000E+00 0.  1.
         21   -1    0    0  501  503 -0.00000000000E+00 -0.00000000000E+00 -0.10038936801E+03  0.10038936801E+03  0.00000000000E+00 0. -1.
          6    2    1    2  501    0  0.11104635068E+03  0.61381897137E+02  0.78690199145E+02  0.22812387891E+03  0.17247993330E+03 0.  0.
         24    2    3    3    0    0 -0.61385364908E+00  0.10830801276E+02  0.66383948251E+02  0.10484797561E+03  0.80427522226E+02 0.  0.
         -6    2    1    2    0  502 -0.11104635068E+03 -0.61381897137E+02  0.41532553931E+03  0.46667059556E+03  0.17084235970E+03 0.  0.
        -24    2    5    5    0    0 -0.62448271873E+02  0.29985565617E+02  0.25800255032E+03  0.27830287174E+03  0.78027249360E+02 0.  0.
          5    1    3    3  501    0  0.11166020433E+03  0.50551095861E+02  0.12306250894E+02  0.12327590330E+03  0.47000000000E+01 0. -1.
        -11    1    4    4    0    0 -0.10730494633E+02 -0.29480427704E+02  0.66365622494E+01  0.32066853465E+02  0.00000000000E+00 0.  1.
         12    1    4    4    0    0  0.10116640984E+02  0.40311228979E+02  0.59747386001E+02  0.72781122145E+02  0.00000000000E+00 0. -1.
         -5    1    5    5    0  502 -0.48598078803E+02 -0.91367462754E+02  0.15732298899E+03  0.18836772382E+03  0.47000000000E+01 0.  1.
         11    1    6    6    0    0 -0.74315030301E+02  0.30485439262E+02  0.15461330466E+03  0.17423363542E+03  0.00000000000E+00 0. -1.
        -12    1    6    6    0    0  0.11866758428E+02 -0.49987364527E+00  0.10338924566E+03  0.10406923632E+03  0.00000000000E+00 0.  1.
<mgrwt>
<rscale>  2 0.21379231E+03</rscale>
<asrwt>0</asrwt>
<pdfrwt beam="1">  1       21 0.91446937E-01 0.21412229E+03</pdfrwt>
<pdfrwt beam="2">  1       21 0.15444519E-01 0.21412229E+03</pdfrwt>
<totfact> 0.37229837E+04</totfact>
</mgrwt>
</event>
<event>
12    1  0.1013215E-001  0.2242007E+03  0.7546771E-02  0.1131611E+00
         21   -1    0    0  503  502  0.00000000000E+00  0.00000000000E+00  0.27405648467E+03  0.27405648467E+03  0.00000000000E+00 0.  1.
         21   -1    0    0  501  503 -0.00000000000E+00 -0.00000000000E+00 -0.18650430593E+03  0.18650430593E+03  0.00000000000E+00 0.  1.
          6    2    1    2  501    0  0.70672549814E+02 -0.11505328472E+03  0.47411187616E+00  0.22420117727E+03  0.17898065673E+03 0.  0.
         24    2    3    3    0    0 -0.23120618034E+02 -0.92379991798E+02  0.26191556451E+02  0.12422761325E+03  0.75351684801E+02 0.  0.
         -6    2    1    2    0  502 -0.70672549814E+02  0.11505328472E+03  0.87078066857E+02  0.23635961333E+03  0.17335342357E+03 0.  0.
        -24    2    5    5    0    0 -0.19365497892E+01 -0.44123926335E+01  0.42893552426E+02  0.91545777387E+02  0.80731363694E+02 0.  0.
          5    1    3    3  501    0  0.93793167848E+02 -0.22673292924E+02 -0.25717444575E+02  0.99973564018E+02  0.47000000000E+01 0. -1.
        -13    1    4    4    0    0 -0.73358583112E+01 -0.14816317949E+02 -0.24993099695E+02  0.29966533452E+02  0.00000000000E+00 0.  1.
         14    1    4    4    0    0 -0.15784759723E+02 -0.77563673850E+02  0.51184656146E+02  0.94261079802E+02  0.00000000000E+00 0. -1.
         -5    1    5    5    0  502 -0.68736000025E+02  0.11946567736E+03  0.44184514431E+02  0.14481383594E+03  0.47000000000E+01 0.  1.
         11    1    6    6    0    0  0.34696549871E+02 -0.33068456855E+01 -0.35653289916E+00  0.34855600942E+02  0.00000000000E+00 0. -1.
        -12    1    6    6    0    0 -0.36633099660E+02 -0.11055469480E+01  0.43250085325E+02  0.56690176445E+02  0.00000000000E+00 0.  1.
<mgrwt>
<rscale>  2 0.22307571E+03</rscale>
<asrwt>0</asrwt>
<pdfrwt beam="1">  1       21 0.42162536E-01 0.22420068E+03</pdfrwt>
<pdfrwt beam="2">  1       21 0.28692970E-01 0.22420068E+03</pdfrwt>
<totfact> 0.62030788E+04</totfact>
</mgrwt>
</event>
<event>
12    1  0.1013215E-001  0.2309795E+03  0.7546771E-02  0.1126450E+00
         21   -1    0    0  501  502  0.00000000000E+00  0.00000000000E+00  0.19372633267E+03  0.19372633267E+03  0.00000000000E+00 0. -1.
         21   -1    0    0  502  503 -0.00000000000E+00 -0.00000000000E+00 -0.68397550863E+03  0.68397550863E+03  0.00000000000E+00 0. -1.
         -6    2    1    2    0  503 -0.14641538809E+03 -0.26788440184E+02 -0.58629507508E+03  0.63015350427E+03  0.17662513266E+03 0.  0.
        -24    2    3    3    0    0 -0.16944122611E+03 -0.37581478537E+01 -0.38691901069E+03  0.42808052579E+03  0.69441795383E+02 0.  0.
          6    2    1    2  501    0  0.14641538809E+03  0.26788440184E+02  0.96045899120E+02  0.24754833703E+03  0.17291696860E+03 0.  0.
         24    2    5    5    0    0  0.61255504827E+02 -0.25939281961E+02 -0.81991672008E+01  0.10290552783E+03  0.78084813474E+02 0.  0.
          5    1    5    5  501    0  0.85159883267E+02  0.52727722144E+02  0.10424506632E+03  0.14464280920E+03  0.47000000000E+01 0. -1.
        -13    1    6    6    0    0  0.78791060661E+02 -0.27985585599E+02 -0.12980170174E+02  0.84615064021E+02  0.00000000000E+00 0.  1.
         14    1    6    6    0    0 -0.17535555834E+02  0.20463036387E+01  0.47810029737E+01  0.18290463811E+02  0.00000000000E+00 0. -1.
         -5    1    3    3    0  503  0.23025838020E+02 -0.23030292330E+02 -0.19937606439E+03  0.20207297848E+03  0.47000000000E+01 0.  1.
         11    1    4    4    0    0 -0.31230580973E+02  0.15487023818E+02 -0.34523672051E+02  0.49062012051E+02  0.00000000000E+00 0. -1.
        -12    1    4    4    0    0 -0.13821064514E+03 -0.19245171672E+02 -0.35239533864E+03  0.37901851374E+03  0.00000000000E+00 0.  1.
<mgrwt>
<rscale>  2 0.23027047E+03</rscale>
<asrwt>0</asrwt>
<pdfrwt beam="1">  1       21 0.29804052E-01 0.23097949E+03</pdfrwt>
<pdfrwt beam="2">  1       21 0.10522700E+00 0.23097949E+03</pdfrwt>
<totfact> 0.76367214E+03</totfact>
</mgrwt>
</event>
<event>
12    1  0.1013215E-001  0.1845754E+03  0.7546771E-02  0.1163870E+00
         21   -1    0    0  503  502  0.00000000000E+00  0.00000000000E+00  0.14502629569E+03  0.14502629569E+03  0.00000000000E+00 0. -1.
         21   -1    0    0  501  503 -0.00000000000E+00 -0.00000000000E+00 -0.24738769501E+03  0.24738769501E+03  0.00000000000E+00 0. -1.
          6    2    1    2  501    0 -0.50867333102E+02 -0.39393871444E+02 -0.30252754555E+01  0.18280543354E+03  0.17108276230E+03 0.  0.
         24    2    3    3    0    0  0.55278348707E+01  0.35197921583E+02 -0.43750576193E+01  0.89166432748E+02  0.81621449128E+02 0.  0.
         -6    2    1    2    0  502  0.50867333102E+02  0.39393871444E+02 -0.99336123868E+02  0.20960855716E+03  0.17299918799E+03 0.  0.
        -24    2    5    5    0    0  0.26423282717E+01  0.66120411128E+02 -0.11165365924E+03  0.15291842846E+03  0.80861705863E+02 0.  0.
          5    1    3    3  501    0 -0.56395167973E+02 -0.74591793027E+02  0.13497821638E+01  0.93639000793E+02  0.47000000000E+01 0. -1.
        -13    1    4    4    0    0 -0.25315563727E+02  0.46435698835E+02 -0.14453079893E+02  0.54827396542E+02  0.00000000000E+00 0.  1.
         14    1    4    4    0    0  0.30843398598E+02 -0.11237777252E+02  0.10078022273E+02  0.34339036206E+02  0.00000000000E+00 0. -1.
         -5    1    5    5    0  502  0.48225004830E+02 -0.26726539684E+02  0.12317535370E+02  0.56690128699E+02  0.47000000000E+01 0.  1.
         11    1    6    6    0    0  0.40958129424E+02  0.39710858570E+02 -0.51416660095E+02  0.76799697848E+02  0.00000000000E+00 0. -1.
        -12    1    6    6    0    0 -0.38315801152E+02  0.26409552558E+02 -0.60236999143E+02  0.76118730612E+02  0.00000000000E+00 0.  1.
<mgrwt>
<rscale>  2 0.18412501E+03</rscale>
<asrwt>0</asrwt>
<pdfrwt beam="1">  1       21 0.22311738E-01 0.18457541E+03</pdfrwt>
<pdfrwt beam="2">  1       21 0.38059645E-01 0.18457541E+03</pdfrwt>
<totfact> 0.12549545E+05</totfact>
</mgrwt>
</event>
<event>
12    1  0.1013215E-001  0.2259878E+03  0.7546771E-02  0.1130000E+00
         21   -1    0    0  501  502  0.00000000000E+00  0.00000000000E+00  0.18471866884E+03  0.18471866884E+03  0.00000000000E+00 0. -1.
         21   -1    0    0  502  503 -0.00000000000E+00 -0.00000000000E+00 -0.39728441560E+03  0.39728441560E+03  0.00000000000E+00 0. -1.
         -6    2    1    2    0  503  0.13895362484E+03 -0.32929608879E+02  0.55969736675E+02  0.23281560759E+03  0.17515143939E+03 0.  0.
        -24    2    3    3    0    0  0.98778673777E+02 -0.39616433381E+02  0.10437809720E+03  0.16937902758E+03  0.80422506935E+02 0.  0.
          6    2    1    2  501    0 -0.13895362484E+03  0.32929608879E+02 -0.26853548343E+03  0.34918747685E+03  0.17154625946E+03 0.  0.
         24    2    5    5    0    0 -0.14037975481E+02  0.46073587144E+02 -0.81710164386E+02  0.12401537944E+03  0.79896327731E+02 0.  0.
          5    1    5    5  501    0 -0.12491564935E+03 -0.13143978265E+02 -0.18682531905E+03  0.22517209742E+03  0.47000000000E+01 0. -1.
        -13    1    6    6    0    0 -0.34033662273E+02 -0.78384142006E+01 -0.22881736640E+02  0.41752901415E+02  0.00000000000E+00 0.  1.
         14    1    6    6    0    0  0.19995686792E+02  0.53912001344E+02 -0.58828427746E+02  0.82262478022E+02  0.00000000000E+00 0. -1.
         -5    1    3    3    0  503  0.40174951058E+02  0.66868245014E+01 -0.48408360528E+02  0.63436580010E+02  0.47000000000E+01 0.  1.
         13    1    4    4    0    0  0.70393406090E+02 -0.10641594483E+02  0.10723570105E+03  0.12871662959E+03  0.00000000000E+00 0. -1.
        -14    1    4    4    0    0  0.28385267687E+02 -0.28974838898E+02 -0.28576038418E+01  0.40662397993E+02  0.00000000000E+00 0.  1.
<mgrwt>
<rscale>  2 0.22528895E+03</rscale>
<asrwt>0</asrwt>
<pdfrwt beam="1">  1       21 0.28418257E-01 0.22598782E+03</pdfrwt>
<pdfrwt beam="2">  1       21 0.61120679E-01 0.22598782E+03</pdfrwt>
<totfact> 0.28959966E+04</totfact>
</mgrwt>
</event>
<event>
12    1  0.1013215E-001  0.1832059E+03  0.7546771E-02  0.1164737E+00
         21   -1    0    0  503  502  0.00000000000E+00  0.00000000000E+00  0.31846054517E+03  0.31846054517E+03  0.00000000000E+00 0.  1.
         21   -1    0    0  501  503 -0.00000000000E+00 -0.00000000000E+00 -0.11125367522E+03  0.11125367522E+03  0.00000000000E+00 0.  1.
          6    2    1    2  501    0 -0.55361601881E+01 -0.58590402733E+02  0.15291436754E+03  0.23863611421E+03  0.17349612918E+03 0.  0.
         24    2    3    3    0    0 -0.11371521666E+02  0.56199587372E+01  0.95158810630E+01  0.81339458527E+02  0.79778819744E+02 0.  0.
         -6    2    1    2    0  502  0.55361601881E+01  0.58590402733E+02  0.54292502411E+02  0.19107810618E+03  0.17349260065E+03 0.  0.
        -24    2    5    5    0    0  0.29535230053E+02  0.10057465474E+03  0.26336178681E+02  0.13502207343E+03  0.80930680315E+02 0.  0.
          5    1    3    3  501    0  0.58353614776E+01 -0.64210361470E+02  0.14339848648E+03  0.15729665568E+03  0.47000000000E+01 0. -1.
        -13    1    4    4    0    0 -0.40796407063E+02 -0.14016363463E+02 -0.43240704468E+01  0.43353233550E+02  0.00000000000E+00 0.  1.
         14    1    4    4    0    0  0.29424885398E+02  0.19636322200E+02  0.13839951510E+02  0.37986224977E+02  0.00000000000E+00 0. -1.
         -5    1    5    5    0  502 -0.23999069865E+02 -0.41984252005E+02  0.27956323730E+02  0.56056032747E+02  0.47000000000E+01 0.  1.
         13    1    6    6    0    0 -0.23405202035E+02  0.30719233058E+02 -0.10384093682E+02  0.39991301099E+02  0.00000000000E+00 0. -1.
        -14    1    6    6    0    0  0.52940432088E+02  0.69855421680E+02  0.36720272362E+02  0.95030772333E+02  0.00000000000E+00 0.  1.
<mgrwt>
<rscale>  2 0.18320504E+03</rscale>
<asrwt>0</asrwt>
<pdfrwt beam="1">  1       21 0.48993929E-01 0.18320587E+03</pdfrwt>
<pdfrwt beam="2">  1       21 0.17115950E-01 0.18320587E+03</pdfrwt>
<totfact> 0.12287654E+05</totfact>
</mgrwt>
</event>
<event>
12    1  0.1013215E-001  0.2787809E+03  0.7546771E-02  0.1096448E+00
         21   -1    0    0  503  502  0.00000000000E+00  0.00000000000E+00  0.55275324699E+02  0.55275324699E+02  0.00000000000E+00 0.  1.
         21   -1    0    0  501  503 -0.00000000000E+00 -0.00000000000E+00 -0.15974170934E+04  0.15974170934E+04  0.00000000000E+00 0. -1.
          6    2    1    2  501    0 -0.21277144804E+03  0.51806271587E+02 -0.10587804493E+04  0.10946987376E+04  0.17144593154E+03 0.  0.
         24    2    3    3    0    0 -0.51846483900E+02  0.68180039019E+02 -0.40914103414E+03  0.42520758452E+03  0.77900760608E+02 0.  0.
         -6    2    1    2    0  502  0.21277144804E+03 -0.51806271587E+02 -0.48336131935E+03  0.55799368043E+03  0.17252015385E+03 0.  0.
        -24    2    5    5    0    0  0.20327060480E+03 -0.52235251741E-01 -0.43272990827E+03  0.48482007804E+03  0.80476040251E+02 0.  0.
          5    1    3    3  501    0 -0.16092496414E+03 -0.16373767433E+02 -0.64963941516E+03  0.66949115310E+03  0.47000000000E+01 0. -1.
        -13    1    4    4    0    0 -0.25549582437E+01  0.87468194036E+01 -0.27700912158E+00  0.91165451438E+01  0.00000000000E+00 0.  1.
         14    1    4    4    0    0 -0.49291525656E+02  0.59433219616E+02 -0.40886402502E+03  0.41609103938E+03  0.00000000000E+00 0. -1.
         -5    1    5    5    0  502  0.95008432353E+01 -0.51754036335E+02 -0.50631411082E+02  0.73173602394E+02  0.47000000000E+01 0.  1.
         13    1    6    6    0    0  0.16338190135E+03 -0.33232774287E+02 -0.33187818731E+03  0.37140435402E+03  0.00000000000E+00 0. -1.
        -14    1    6    6    0    0  0.39888703457E+02  0.33180539035E+02 -0.10085172096E+03  0.11341572401E+03  0.00000000000E+00 0.  1.
<mgrwt>
<rscale>  2 0.27861487E+03</rscale>
<asrwt>0</asrwt>
<pdfrwt beam="1">  1       21 0.85038953E-02 0.27878089E+03</pdfrwt>
<pdfrwt beam="2">  1       21 0.24575650E+00 0.27878089E+03</pdfrwt>
<totfact> 0.70758285E+03</totfact>
</mgrwt>
</event>
<event>
12    1  0.1013215E-001  0.4345826E+03  0.7546771E-02  0.1032623E+00
         21   -1    0    0  503  502  0.00000000000E+00  0.00000000000E+00  0.13723453387E+03  0.13723453387E+03  0.00000000000E+00 0. -1.
         21   -1    0    0  501  503 -0.00000000000E+00 -0.00000000000E+00 -0.13754849238E+04  0.13754849238E+04  0.00000000000E+00 0.  1.
          6    2    1    2  501    0 -0.93610809574E+01 -0.39568220729E+03 -0.67277557017E+03  0.79954078757E+03  0.17316600177E+03 0.  0.
         24    2    3    3    0    0 -0.11457095659E+02 -0.28820979762E+03 -0.59697513863E+03  0.66792579018E+03  0.80928317386E+02 0.  0.
         -6    2    1    2    0  502  0.93610809574E+01  0.39568220729E+03 -0.56547481980E+03  0.71317867014E+03  0.17947145934E+03 0.  0.
        -24    2    5    5    0    0 -0.53962208927E+02  0.32237267408E+03 -0.46158663866E+03  0.57105558657E+03  0.78779419822E+02 0.  0.
          5    1    3    3  501    0  0.20960147016E+01 -0.10747240966E+03 -0.75800431538E+02  0.13161499739E+03  0.47000000000E+01 0. -1.
        -13    1    4    4    0    0 -0.22908731336E+02 -0.24184010057E+02 -0.45419126379E+02  0.56325601239E+02  0.00000000000E+00 0.  1.
         14    1    4    4    0    0  0.11451635677E+02 -0.26402578757E+03 -0.55155601225E+03  0.61160018894E+03  0.00000000000E+00 0. -1.
         -5    1    5    5    0  502  0.63323289885E+02  0.73309533210E+02 -0.10388818114E+03  0.14212308357E+03  0.47000000000E+01 0.  1.
         11    1    6    6    0    0 -0.17506263834E+02  0.26141332940E+03 -0.39293402039E+03  0.47227168287E+03  0.00000000000E+00 0. -1.
        -12    1    6    6    0    0 -0.36455945093E+02  0.60959344676E+02 -0.68652618266E+02  0.98783903703E+02  0.00000000000E+00 0.  1.
<mgrwt>
<rscale>  2 0.43393973E+03</rscale>
<asrwt>0</asrwt>
<pdfrwt beam="1">  1       21 0.21113005E-01 0.43458261E+03</pdfrwt>
<pdfrwt beam="2">  1       21 0.21161307E+00 0.43458261E+03</pdfrwt>
<totfact> 0.20060070E+03</totfact>
</mgrwt>
</event>
<event>
12    1  0.1013215E-001  0.1936688E+03  0.7546771E-02  0.1155825E+00
         21   -1    0    0  503  502  0.00000000000E+00  0.00000000000E+00  0.53910647366E+02  0.53910647366E+02  0.00000000000E+00 0.  1.
         21   -1    0    0  501  503 -0.00000000000E+00 -0.00000000000E+00 -0.72165259672E+03  0.72165259672E+03  0.00000000000E+00 0. -1.
          6    2    1    2  501    0  0.67889683774E+02  0.44983726178E+02 -0.42297175215E+03  0.46520179595E+03  0.17571301332E+03 0.  0.
         24    2    3    3    0    0  0.82989971065E+02 -0.16188773358E+02 -0.34739537921E+03  0.36669305764E+03  0.81429953606E+02 0.  0.
         -6    2    1    2    0  502 -0.67889683774E+02 -0.44983726178E+02 -0.24477019720E+03  0.31036144814E+03  0.17256660821E+03 0.  0.
        -24    2    5    5    0    0 -0.24973951638E+02 -0.29005759703E+02 -0.33313400241E+02  0.93951830844E+02  0.79070421314E+02 0.  0.
          5    1    3    3  501    0 -0.15100287291E+02  0.61172499536E+02 -0.75576372944E+02  0.98508738309E+02  0.47000000000E+01 0. -1.
        -11    1    4    4    0    0  0.12820080610E+01  0.26122863192E+01  0.42720745676E+01  0.51689656212E+01  0.00000000000E+00 0.  1.
         12    1    4    4    0    0  0.81707963004E+02 -0.18801059677E+02 -0.35166745378E+03  0.36152409202E+03  0.00000000000E+00 0. -1.
         -5    1    5    5    0  502 -0.42915732135E+02 -0.15977966474E+02 -0.21145679696E+03  0.21640961729E+03  0.47000000000E+01 0.  1.
         11    1    6    6    0    0 -0.45100003444E+02 -0.14525732236E+02 -0.46054545105E+02  0.66075928541E+02  0.00000000000E+00 0. -1.
        -12    1    6    6    0    0  0.20126051806E+02 -0.14480027468E+02  0.12741144864E+02  0.27875902303E+02  0.00000000000E+00 0.  1.
<mgrwt>
<rscale>  2 0.19295232E+03</rscale>
<asrwt>0</asrwt>
<pdfrwt beam="1">  1       21 0.82939457E-02 0.19366881E+03</pdfrwt>
<pdfrwt beam="2">  1       21 0.11102348E+00 0.19366881E+03</pdfrwt>
<totfact> 0.71933819E+04</totfact>
</mgrwt>
</event>
<event>
12    1  0.1013215E-001  0.1841928E+03  0.7546771E-02  0.1165173E+00
         21   -1    0    0  501  502  0.00000000000E+00  0.00000000000E+00  0.64977582508E+02  0.64977582508E+02  0.00000000000E+00 0.  1.
         21   -1    0    0  502  503 -0.00000000000E+00 -0.00000000000E+00 -0.55155643898E+03  0.55155643898E+03  0.00000000000E+00 0.  1.
         -6    2    1    2    0  503 -0.32640264599E+02 -0.54192288087E+02 -0.15120656938E+03  0.23390946393E+03  0.16687725947E+03 0.  0.
        -24    2    3    3    0    0 -0.63846850099E+01 -0.72172798386E+02 -0.16620098905E+03  0.19841894644E+03  0.80607893620E+02 0.  0.
          6    2    1    2  501    0  0.32640264599E+02  0.54192288087E+02 -0.33537228709E+03  0.38262455757E+03  0.17298783235E+03 0.  0.
         24    2    5    5    0    0 -0.24282047048E+02  0.44439319584E+01 -0.66462756548E+02  0.10325119785E+03  0.75060945304E+02 0.  0.
          5    1    5    5  501    0  0.56922311647E+02  0.49748356129E+02 -0.26890953054E+03  0.27937335971E+03  0.47000000000E+01 0. -1.
        -13    1    6    6    0    0  0.78697043409E+01  0.76152289038E+01 -0.69907741703E+02  0.70760273513E+02  0.00000000000E+00 0.  1.
         14    1    6    6    0    0 -0.32151751389E+02 -0.31712969454E+01  0.34449851546E+01  0.32490924339E+02  0.00000000000E+00 0. -1.
         -5    1    3    3    0  503 -0.26255579589E+02  0.17980510298E+02  0.14994419670E+02  0.35490517486E+02  0.47000000000E+01 0.  1.
         11    1    4    4    0    0  0.25810296108E+02 -0.82980068550E+01 -0.89606306535E+02  0.93617938846E+02  0.00000000000E+00 0. -1.
        -12    1    4    4    0    0 -0.32194981118E+02 -0.63874791531E+02 -0.76594682520E+02  0.10480100759E+03  0.00000000000E+00 0.  1.
<mgrwt>
<rscale>  2 0.18274415E+03</rscale>
<asrwt>0</asrwt>
<pdfrwt beam="1">  1       21 0.99965510E-02 0.18419278E+03</pdfrwt>
<pdfrwt beam="2">  1       21 0.84854838E-01 0.18419278E+03</pdfrwt>
<totfact> 0.98002560E+04</totfact>
</mgrwt>
</event>
<event>
12    1  0.1013215E-001  0.1803599E+03  0.7546771E-02  0.1167673E+00
         21   -1    0    0  503  502  0.00000000000E+00  0.00000000000E+00  0.36614388561E+03  0.36614388561E+03  0.00000000000E+00 0.  1.
         21   -1    0    0  501  503 -0.00000000000E+00 -0.00000000000E+00 -0.97552784905E+02  0.97552784905E+02  0.00000000000E+00 0.  1.
          6    2    1    2  501    0  0.10952125335E+02 -0.44922231848E+02  0.20561119313E+03  0.27350623876E+03  0.17433228025E+03 0.  0.
         24    2    3    3    0    0  0.30806777443E+02  0.31491974071E+02  0.15193151321E+03  0.17791891683E+03  0.81431899728E+02 0.  0.
         -6    2    1    2    0  502 -0.10952125335E+02  0.44922231848E+02  0.62979907579E+02  0.19019043176E+03  0.17340119841E+03 0.  0.
        -24    2    5    5    0    0  0.57780227440E+02  0.45350389480E+02  0.51836391303E+02  0.12040083660E+03  0.80088310523E+02 0.  0.
          5    1    3    3  501    0 -0.19854652107E+02 -0.76414205920E+02  0.53679679916E+02  0.95587321924E+02  0.47000000000E+01 0. -1.
        -11    1    4    4    0    0  0.72318724602E+01 -0.23196124012E+02  0.84645042153E+02  0.88063291498E+02  0.00000000000E+00 0.  1.
         12    1    4    4    0    0  0.23574904983E+02  0.54688098083E+02  0.67286471057E+02  0.89855625334E+02  0.00000000000E+00 0. -1.
         -5    1    5    5    0  502 -0.68732352775E+02 -0.42815763175E+00  0.11143516276E+02  0.69789595156E+02  0.47000000000E+01 0.  1.
         11    1    6    6    0    0  0.52315587536E+02 -0.94197761566E+01  0.31073587763E+02  0.61572889639E+02  0.00000000000E+00 0. -1.
        -12    1    6    6    0    0  0.54646399039E+01  0.54770165637E+02  0.20762803540E+02  0.58827946964E+02  0.00000000000E+00 0.  1.
<mgrwt>
<rscale>  2 0.18013454E+03</rscale>
<asrwt>0</asrwt>
<pdfrwt beam="1">  1       21 0.56329828E-01 0.18035992E+03</pdfrwt>
<pdfrwt beam="2">  1       21 0.15008121E-01 0.18035992E+03</pdfrwt>
<totfact> 0.11672009E+05</totfact>
</mgrwt>
</event>
<event>
12    1  0.1013215E-001  0.1754100E+03  0.7546771E-02  0.1172649E+00
         21   -1    0    0  501  502  0.00000000000E+00  0.00000000000E+00  0.19363420931E+03  0.19363420931E+03  0.00000000000E+00 0.  1.
         21   -1    0    0  502  503 -0.00000000000E+00 -0.00000000000E+00 -0.16163653627E+03  0.16163653627E+03  0.00000000000E+00 0.  1.
         -6    2    1    2    0  503 -0.23406801954E+02 -0.27116106426E+01  0.43590168374E+02  0.17947811202E+03  0.17250234406E+03 0.  0.
        -24    2    3    3    0    0 -0.28107668663E+02 -0.39648327450E+02 -0.27576507187E+02  0.99021882264E+02  0.81748630027E+02 0.  0.
          6    2    1    2  501    0  0.23406801954E+02  0.27116106426E+01 -0.11592495331E+02  0.17579263356E+03  0.17382011638E+03 0.  0.
         24    2    5    5    0    0  0.71313326651E+02  0.12551466976E+02 -0.44600628224E+02  0.11660239181E+03  0.79773252768E+02 0.  0.
          5    1    5    5  501    0 -0.47906524697E+02 -0.98398563331E+01  0.33008132894E+02  0.59190241749E+02  0.47000000000E+01 0. -1.
        -13    1    6    6    0    0  0.37353367485E+02 -0.31494628472E+02 -0.67408739507E+01  0.49321649067E+02  0.00000000000E+00 0.  1.
         14    1    6    6    0    0  0.33959959166E+02  0.44046095448E+02 -0.37859754273E+02  0.67280742746E+02  0.00000000000E+00 0. -1.
         -5    1    3    3    0  503  0.47008667092E+01  0.36936716807E+02  0.71166675561E+02  0.80456229757E+02  0.47000000000E+01 0.  1.
         13    1    4    4    0    0 -0.11316068626E+01 -0.47924144987E+02  0.12935081043E+02  0.49651994204E+02  0.00000000000E+00 0. -1.
        -14    1    4    4    0    0 -0.26976061801E+02  0.82758175369E+01 -0.40511588230E+02  0.49369888061E+02  0.00000000000E+00 0.  1.
<mgrwt>
<rscale>  2 0.17508264E+03</rscale>
<asrwt>0</asrwt>
<pdfrwt beam="1">  1       21 0.29789879E-01 0.17540999E+03</pdfrwt>
<pdfrwt beam="2">  1       21 0.24867159E-01 0.17540999E+03</pdfrwt>
<totfact> 0.16618876E+05</totfact>
</mgrwt>
</event>
<event>
12    1  0.1013215E-001  0.3114655E+03  0.7546771E-02  0.1079727E+00
         21   -1    0    0  503  502  0.00000000000E+00  0.00000000000E+00  0.26271695337E+03  0.26271695337E+03  0.00000000000E+00 0.  1.
         21   -1    0    0  501  503 -0.00000000000E+00 -0.00000000000E+00 -0.48830298761E+03  0.48830298761E+03  0.00000000000E+00 0. -1.
          6    2    1    2  501    0  0.24934973205E+03 -0.66100430491E+02 -0.29874016018E+03  0.43107883386E+03  0.17331682524E+03 0.  0.
         24    2    3    3    0    0  0.12028323560E+03  0.16862921600E+02 -0.20072794828E+03  0.24895370661E+03  0.83269585800E+02 0.  0.
         -6    2    1    2    0  502 -0.24934973205E+03  0.66100430491E+02  0.73154125940E+02  0.31994110712E+03  0.17454578223E+03 0.  0.
        -24    2    5    5    0    0 -0.14326161040E+03 -0.16133620595E+02 -0.17438207829E+01  0.16615904985E+03  0.82593015494E+02 0.  0.
          5    1    3    3  501    0  0.12906649645E+03 -0.82963352090E+02 -0.98012211893E+02  0.18212512725E+03  0.47000000000E+01 0. -1.
        -13    1    4    4    0    0  0.47448573916E+02 -0.10264918683E+02 -0.20530198664E+02  0.52708868129E+02  0.00000000000E+00 0.  1.
         14    1    4    4    0    0  0.72834661686E+02  0.27127840283E+02 -0.18019774962E+03  0.19624483848E+03  0.00000000000E+00 0. -1.
         -5    1    5    5    0  502 -0.10608812166E+03  0.82234051086E+02  0.74897946723E+02  0.15378205727E+03  0.47000000000E+01 0.  1.
         11    1    6    6    0    0 -0.93915470902E+02 -0.47122972068E+02 -0.15699986875E+02  0.10624113967E+03  0.00000000000E+00 0. -1.
        -12    1    6    6    0    0 -0.49346139495E+02  0.30989351472E+02  0.13956166092E+02  0.59917910175E+02  0.00000000000E+00 0.  1.
<mgrwt>
<rscale>  2 0.31129364E+03</rscale>
<asrwt>0</asrwt>
<pdfrwt beam="1">  1       21 0.40417993E-01 0.31146555E+03</pdfrwt>
<pdfrwt beam="2">  1       21 0.75123536E-01 0.31146555E+03</pdfrwt>
<totfact> 0.87357447E+03</totfact>
</mgrwt>
</event>
<event>
12    1  0.1013215E-001  0.2039745E+03  0.7546771E-02  0.1149015E+00
         21   -1    0    0  503  502  0.00000000000E+00  0.00000000000E+00  0.11699376749E+03  0.11699376749E+03  0.00000000000E+00 0.  1.
         21   -1    0    0  501  503 -0.00000000000E+00 -0.00000000000E+00 -0.35374017532E+03  0.35374017532E+03  0.00000000000E+00 0.  1.
          6    2    1    2  501    0 -0.77513071663E+02 -0.26202093370E+02 -0.17637288300E+03  0.26965342750E+03  0.18684418945E+03 0.  0.
         24    2    3    3    0    0 -0.79973942078E+02 -0.86404397641E+02 -0.13606961905E+03  0.19701172868E+03  0.80231718575E+02 0.  0.
         -6    2    1    2    0  502  0.77513071663E+02  0.26202093370E+02 -0.60373524830E+02  0.20108051532E+03  0.17347502749E+03 0.  0.
        -24    2    5    5    0    0 -0.20064550009E+02  0.37975222132E+02 -0.46802663559E+02  0.10175148085E+03  0.79486922674E+02 0.  0.
          5    1    3    3  501    0  0.24608704144E+01  0.60202304271E+02 -0.40303263946E+02  0.72641698819E+02  0.47000000000E+01 0. -1.
        -13    1    4    4    0    0 -0.18876983070E+02 -0.74915778084E+02 -0.95239876256E+02  0.12263502079E+03  0.00000000000E+00 0.  1.
         14    1    4    4    0    0 -0.61096959007E+02 -0.11488619557E+02 -0.40829742796E+02  0.74376707887E+02  0.00000000000E+00 0. -1.
         -5    1    5    5    0  502  0.97577621672E+02 -0.11773128761E+02 -0.13570861271E+02  0.99329034464E+02  0.47000000000E+01 0.  1.
         13    1    6    6    0    0 -0.76990277475E+01 -0.83057370838E+01  0.17938396191E+02  0.21214295997E+02  0.00000000000E+00 0. -1.
        -14    1    6    6    0    0 -0.12365522261E+02  0.46280959215E+02 -0.64741059749E+02  0.80537184854E+02  0.00000000000E+00 0.  1.
<mgrwt>
<rscale>  2 0.20086104E+03</rscale>
<asrwt>0</asrwt>
<pdfrwt beam="1">  1       21 0.17999041E-01 0.20397445E+03</pdfrwt>
<pdfrwt beam="2">  1       21 0.54421565E-01 0.20397445E+03</pdfrwt>
<totfact> 0.89136105E+04</totfact>
</mgrwt>
</event>
<event>
11    1  0.1013215E-001  0.2933591E+03  0.7546771E-02  0.1088891E+00
         21   -1    0    0  501  502  0.00000000000E+00  0.00000000000E+00  0.79136785852E+03  0.79136785852E+03  0.00000000000E+00 0. -1.
         21   -1    0    0  502  503 -0.00000000000E+00 -0.00000000000E+00 -0.33787392181E+03  0.33787392181E+03  0.00000000000E+00 0.  1.
         -6    2    1    2    0  503 -0.21502971195E+03  0.98879260277E+02 -0.23876317801E+03  0.37824256928E+03  0.17333407313E+03 0.  0.
        -24    2    3    3    0    0 -0.57072871989E+02  0.45440434740E+02 -0.33675515249E+02  0.11387708216E+03  0.80695747638E+02 0.  0.
          6    2    1    2  501    0  0.21502971195E+03 -0.98879260277E+02  0.69225711473E+03  0.75099921105E+03  0.16960252643E+03 0.  0.
          5    1    5    5  501    0  0.35766977080E+02  0.25868953010E+02  0.27609503586E+03  0.27964090939E+03  0.47000000000E+01 0. -1.
        -11    1    5    5    0    0  0.90379826656E+02 -0.42129214178E+02  0.19922459909E+03  0.22278650012E+03  0.00000000000E+00 0.  1.
         12    1    5    5    0    0  0.88882908217E+02 -0.82618999110E+02  0.21693747977E+03  0.24857180153E+03  0.00000000000E+00 0. -1.
         -5    1    3    3    0  503 -0.15795683996E+03  0.53438825537E+02 -0.20508766276E+03  0.26436548713E+03  0.47000000000E+01 0.  1.
         13    1    4    4    0    0  0.55471068953E+01  0.43133731490E+02 -0.26197378240E+02  0.50769989303E+02  0.00000000000E+00 0. -1.
        -14    1    4    4    0    0 -0.62619978884E+02  0.23067032503E+01 -0.74781370091E+01  0.63107092854E+02  0.00000000000E+00 0.  1.
<mgrwt>
<rscale>  2 0.29281029E+03</rscale>
<asrwt>0</asrwt>
<pdfrwt beam="1">  1       21 0.12174890E+00 0.29335914E+03</pdfrwt>
<pdfrwt beam="2">  1       21 0.51980603E-01 0.29335914E+03</pdfrwt>
<totfact> 0.16552039E+03</totfact>
</mgrwt>
</event>
<event>
12    1  0.1013215E-001  0.2510569E+03  0.7546771E-02  0.1112656E+00
         21   -1    0    0  503  502  0.00000000000E+00  0.00000000000E+00  0.39447456996E+03  0.39447456996E+03  0.00000000000E+00 0.  1.
         21   -1    0    0  501  503 -0.00000000000E+00 -0.00000000000E+00 -0.33019151671E+03  0.33019151671E+03  0.00000000000E+00 0. -1.
          6    2    1    2  501    0  0.15487809035E+03 -0.95658853544E+02 -0.22820834950E+03  0.33927664225E+03  0.17289230772E+03 0.  0.
         24    2    3    3    0    0  0.37791394865E+02 -0.88808715664E+02 -0.74071058095E+02  0.14553296301E+03  0.79863284244E+02 0.  0.
         -6    2    1    2    0  502 -0.15487809035E+03  0.95658853544E+02  0.29249140275E+03  0.38538944442E+03  0.17273090070E+03 0.  0.
        -24    2    5    5    0    0 -0.80977911349E+02  0.63247978253E+02  0.68515704310E+02  0.14727412617E+03  0.80234267136E+02 0.  0.
          5    1    3    3  501    0  0.11708669548E+03 -0.68501378801E+01 -0.15413729140E+03  0.19374367925E+03  0.47000000000E+01 0. -1.
        -13    1    4    4    0    0 -0.14671639252E+01 -0.60493661868E+02 -0.75930284502E+02  0.97092964734E+02  0.00000000000E+00 0.  1.
         14    1    4    4    0    0  0.39258558790E+02 -0.28315053795E+02  0.18592264074E+01  0.48439998272E+02  0.00000000000E+00 0. -1.
         -5    1    5    5    0  502 -0.73900178999E+02  0.32410875291E+02  0.22397569844E+03  0.23811531824E+03  0.47000000000E+01 0.  1.
         11    1    6    6    0    0 -0.73972406388E+02  0.65904890143E+02  0.84117942149E+02  0.12996614807E+03  0.00000000000E+00 0. -1.
        -12    1    6    6    0    0 -0.70055049615E+01 -0.26569118897E+01 -0.15602237839E+02  0.17307978106E+02  0.00000000000E+00 0.  1.
<mgrwt>
<rscale>  2 0.25102916E+03</rscale>
<asrwt>0</asrwt>
<pdfrwt beam="1">  1       21 0.60688395E-01 0.25105694E+03</pdfrwt>
<pdfrwt beam="2">  1       21 0.50798695E-01 0.25105694E+03</pdfrwt>
<totfact> 0.89823795E+03</totfact>
</mgrwt>
</event>
<event>
12    1  0.1013215E-001  0.2369991E+03  0.7546771E-02  0.1122159E+00
         21   -1    0    0  501  502  0.00000000000E+00  0.00000000000E+00  0.35471789498E+03  0.35471789498E+03  0.00000000000E+00 0. -1.
         21   -1    0    0  502  503 -0.00000000000E+00 -0.00000000000E+00 -0.18162536139E+03  0.18162536139E+03  0.00000000000E+00 0.  1.
         -6    2    1    2    0  503 -0.15780897770E+03  0.35365036113E+02 -0.11924640960E+02  0.23729891821E+03  0.17324612636E+03 0.  0.
        -24    2    3    3    0    0 -0.65053849857E+02  0.82939899796E+02  0.19144828939E+00  0.13224764018E+03  0.79864706362E+02 0.  0.
          6    2    1    2  501    0  0.15780897770E+03 -0.35365036113E+02  0.18501717455E+03  0.29904433816E+03  0.17041655461E+03 0.  0.
         24    2    5    5    0    0  0.40860346886E+02 -0.18698474380E+02  0.17978044014E+02  0.94400946724E+02  0.81050155977E+02 0.  0.
          5    1    5    5  501    0  0.11694863081E+03 -0.16666561733E+02  0.16703913054E+03  0.20464339144E+03  0.47000000000E+01 0. -1.
        -13    1    6    6    0    0  0.30935156453E+02  0.10303773980E+01  0.48010085197E+02  0.57122796351E+02  0.00000000000E+00 0.  1.
         14    1    6    6    0    0  0.99251904334E+01 -0.19728851778E+02 -0.30032041183E+02  0.37278150373E+02  0.00000000000E+00 0. -1.
         -5    1    3    3    0  503 -0.92755127842E+02 -0.47574863683E+02 -0.12116089249E+02  0.10505127802E+03  0.47000000000E+01 0.  1.
         13    1    4    4    0    0 -0.63239317525E+02  0.30838347529E+02  0.24796937928E+02  0.74599618564E+02  0.00000000000E+00 0. -1.
        -14    1    4    4    0    0 -0.18145323322E+01  0.52101552267E+02 -0.24605489639E+02  0.57648021619E+02  0.00000000000E+00 0.  1.
<mgrwt>
<rscale>  2 0.23648230E+03</rscale>
<asrwt>0</asrwt>
<pdfrwt beam="1">  1       21 0.54571984E-01 0.23699911E+03</pdfrwt>
<pdfrwt beam="2">  1       21 0.27942363E-01 0.23699911E+03</pdfrwt>
<totfact> 0.37957177E+04</totfact>
</mgrwt>
</event>
<event>
12    1  0.1013215E-001  0.1872395E+03  0.7546771E-02  0.1161230E+00
         21   -1    0    0  503  502  0.00000000000E+00  0.00000000000E+00  0.22345111507E+04  0.22345111507E+04  0.00000000000E+00 0. -1.
         21   -1    0    0  501  503 -0.00000000000E+00 -0.00000000000E+00 -0.19275171981E+02  0.19275171981E+02  0.00000000000E+00 0. -1.
          6    2    1    2  501    0 -0.52911931269E+02 -0.48626243917E+02  0.15972201400E+04  0.16080292481E+04  0.17170236848E+03 0.  0.
         24    2    3    3    0    0 -0.68929068344E+02 -0.90354700307E+02  0.11000027308E+04  0.11087847643E+04  0.80513708699E+02 0.  0.
         -6    2    1    2    0  502  0.52911931269E+02  0.48626243917E+02  0.61801583877E+03  0.64575707454E+03  0.17290008179E+03 0.  0.
        -24    2    5    5    0    0 -0.20206838260E+02  0.49436345361E+02  0.21333964444E+03  0.23450055729E+03  0.81390656262E+02 0.  0.
          5    1    3    3  501    0  0.16017137075E+02  0.41728456390E+02  0.49721740912E+03  0.49924448388E+03  0.47000000000E+01 0. -1.
        -13    1    4    4    0    0  0.10196333163E+02 -0.73512548686E+01  0.28322862165E+02  0.30986943691E+02  0.00000000000E+00 0.  1.
         14    1    4    4    0    0 -0.79125401506E+02 -0.83003445438E+02  0.10716798687E+04  0.10777978206E+04  0.00000000000E+00 0. -1.
         -5    1    5    5    0  502  0.73118769529E+02 -0.81010144427E+00  0.40467619433E+03  0.41125651724E+03  0.47000000000E+01 0.  1.
         13    1    6    6    0    0  0.92152257799E+01 -0.27603673816E+01 -0.29523584147E+01  0.10062625625E+02  0.00000000000E+00 0. -1.
        -14    1    6    6    0    0 -0.29422064040E+02  0.52196712743E+02  0.21629200285E+03  0.22443793167E+03  0.00000000000E+00 0.  1.
<mgrwt>
<rscale>  2 0.18696251E+03</rscale>
<asrwt>0</asrwt>
<pdfrwt beam="1">  1       21 0.34377074E+00 0.18723948E+03</pdfrwt>
<pdfrwt beam="2">  1       21 0.29654128E-02 0.18723948E+03</pdfrwt>
<totfact> 0.12351305E+04</totfact>
</mgrwt>
</event>
<event>
12    1  0.1013215E-001  0.3008180E+03  0.7546771E-02  0.1085536E+00
         21   -1    0    0  503  502  0.00000000000E+00  0.00000000000E+00  0.71509093771E+02  0.71509093771E+02  0.00000000000E+00 0. -1.
         21   -1    0    0  501  503 -0.00000000000E+00 -0.00000000000E+00 -0.17762083362E+04  0.17762083362E+04  0.00000000000E+00 0.  1.
          6    2    1    2  501    0 -0.14307606766E+03 -0.20003372140E+03 -0.34014263286E+03  0.45039635526E+03  0.16332671340E+03 0.  0.
         24    2    3    3    0    0 -0.78662351129E+02 -0.16616329761E+03 -0.16124978596E+03  0.25720972748E+03  0.79732951007E+02 0.  0.
         -6    2    1    2    0  502  0.14307606766E+03  0.20003372140E+03 -0.13645566095E+04  0.13973210747E+04  0.17322584761E+03 0.  0.
        -24    2    5    5    0    0  0.31480294484E+01  0.49301011972E+02 -0.42436115917E+03  0.43488158024E+03  0.81234817340E+02 0.  0.
          5    1    3    3  501    0 -0.64413716528E+02 -0.33870423784E+02 -0.17889284689E+03  0.19318662778E+03  0.47000000000E+01 0. -1.
        -11    1    4    4    0    0  0.13612438430E+02 -0.15045488730E+02 -0.46140464223E+01  0.20807561979E+02  0.00000000000E+00 0.  1.
         12    1    4    4    0    0 -0.92274789559E+02 -0.15111780888E+03 -0.15663573954E+03  0.23640216550E+03  0.00000000000E+00 0. -1.
         -5    1    5    5    0  502  0.13992803821E+03  0.15073270942E+03 -0.94019545037E+03  0.96243949444E+03  0.47000000000E+01 0.  1.
         13    1    6    6    0    0 -0.14516424245E+02  0.56491422577E+02 -0.16847784715E+03  0.17828850882E+03  0.00000000000E+00 0. -1.
        -14    1    6    6    0    0  0.17664453694E+02 -0.71904106046E+01 -0.25588331203E+03  0.25659307142E+03  0.00000000000E+00 0.  1.
<mgrwt>
<rscale>  2 0.29941075E+03</rscale>
<asrwt>0</asrwt>
<pdfrwt beam="1">  1       21 0.11001399E-01 0.30081796E+03</pdfrwt>
<pdfrwt beam="2">  1       21 0.27326281E+00 0.30081796E+03</pdfrwt>
<totfact> 0.30201786E+03</totfact>
</mgrwt>
</event>
<event>
12    1  0.1013215E-001  0.2059351E+03  0.7546771E-02  0.1145942E+00
         21   -1    0    0  503  502  0.00000000000E+00  0.00000000000E+00  0.14728401536E+02  0.14728401536E+02  0.00000000000E+00 0. -1.
         21   -1    0    0  501  503 -0.00000000000E+00 -0.00000000000E+00 -0.29716297298E+04  0.29716297298E+04  0.00000000000E+00 0. -1.
          6    2    1    2  501    0 -0.11015487948E+03  0.16444660355E+02 -0.18515231699E+04  0.18629405046E+04  0.17321879447E+03 0.  0.
         24    2    3    3    0    0 -0.74879900630E+02  0.72246471483E+02 -0.14544954305E+04  0.14604342536E+04  0.80527632440E+02 0.  0.
         -6    2    1    2    0  502  0.11015487948E+03 -0.16444660355E+02 -0.11053781583E+04  0.11234176267E+04  0.16673861789E+03 0.  0.
        -24    2    5    5    0    0  0.99197466597E+02  0.28782618854E+02 -0.99459178594E+03  0.10031625561E+04  0.80335028886E+02 0.  0.
          5    1    3    3  501    0 -0.35274978850E+02 -0.55801811128E+02 -0.39702773945E+03  0.40250625107E+03  0.47000000000E+01 0. -1.
        -13    1    4    4    0    0  0.16445254508E+02  0.20615086216E+02 -0.25512824121E+03  0.25648751946E+03  0.00000000000E+00 0.  1.
         14    1    4    4    0    0 -0.91325155138E+02  0.51631385267E+02 -0.11993671893E+04  0.12039467341E+04  0.00000000000E+00 0. -1.
         -5    1    5    5    0  502  0.10957412883E+02 -0.45227279209E+02 -0.11078637239E+03  0.12025507053E+03  0.47000000000E+01 0.  1.
         11    1    6    6    0    0  0.99613207428E+02  0.63511331284E+01 -0.62781569713E+03  0.63570093405E+03  0.00000000000E+00 0. -1.
        -12    1    6    6    0    0 -0.41574083042E+00  0.22431485726E+02 -0.36677608881E+03  0.36746162210E+03  0.00000000000E+00 0.  1.
<mgrwt>
<rscale>  2 0.20456653E+03</rscale>
<asrwt>0</asrwt>
<pdfrwt beam="1">  1       21 0.22659090E-02 0.20593512E+03</pdfrwt>
<pdfrwt beam="2">  1       21 0.45717358E+00 0.20593512E+03</pdfrwt>
<totfact> 0.36736193E+03</totfact>
</mgrwt>
</event>
<event>
12    1  0.1013215E-001  0.2246990E+03  0.7546771E-02  0.1131992E+00
         21   -1    0    0  503  502  0.00000000000E+00  0.00000000000E+00  0.12494862098E+04  0.12494862098E+04  0.00000000000E+00 0.  1.
         21   -1    0    0  501  503 -0.00000000000E+00 -0.00000000000E+00 -0.44361753384E+02  0.44361753384E+02  0.00000000000E+00 0.  1.
          6    2    1    2  501    0  0.11975242408E+03 -0.43927957445E+02  0.38578528960E+03  0.44645262605E+03  0.18498472673E+03 0.  0.
         24    2    3    3    0    0  0.14422722062E+03  0.42360131091E+01  0.32754920590E+03  0.36687678066E+03  0.80564600968E+02 0.  0.
         -6    2    1    2    0  502 -0.11975242408E+03  0.43927957445E+02  0.81933916681E+03  0.84739533712E+03  0.17461923887E+03 0.  0.
        -24    2    5    5    0    0 -0.79908576328E+02  0.59755733458E+02  0.29575271273E+03  0.32203554080E+03  0.79253354482E+02 0.  0.
          5    1    3    3  501    0 -0.24474796540E+02 -0.48163970554E+02  0.58236083701E+02  0.79575845393E+02  0.47000000000E+01 0. -1.
        -11    1    4    4    0    0  0.55364368121E+01  0.23471177664E+02  0.34468129229E+02  0.42066616765E+02  0.00000000000E+00 0.  1.
         12    1    4    4    0    0  0.13869078381E+03 -0.19235164555E+02  0.29308107667E+03  0.32481016390E+03  0.00000000000E+00 0. -1.
         -5    1    5    5    0  502 -0.39843847756E+02 -0.15827776013E+02  0.52358645408E+03  0.52535979632E+03  0.47000000000E+01 0.  1.
         11    1    6    6    0    0 -0.94820174886E+02  0.40738648749E+02  0.23574783871E+03  0.25734713234E+03  0.00000000000E+00 0. -1.
        -12    1    6    6    0    0  0.14911598558E+02  0.19017084709E+02  0.60004874019E+02  0.64688408455E+02  0.00000000000E+00 0.  1.
<mgrwt>
<rscale>  2 0.22255521E+03</rscale>
<asrwt>0</asrwt>
<pdfrwt beam="1">  1       21 0.19222862E+00 0.22469904E+03</pdfrwt>
<pdfrwt beam="2">  1       21 0.68248861E-02 0.22469904E+03</pdfrwt>
<totfact> 0.23304752E+04</totfact>
</mgrwt>
</event>
<event>
12    1  0.1013215E-001  0.1863752E+03  0.7546771E-02  0.1161816E+00
         21   -1    0    0  503  502  0.00000000000E+00  0.00000000000E+00  0.51916369149E+02  0.51916369149E+02  0.00000000000E+00 0.  1.
         21   -1    0    0  501  503 -0.00000000000E+00 -0.00000000000E+00 -0.75891200027E+03  0.75891200027E+03  0.00000000000E+00 0. -1.
          6    2    1    2  501    0 -0.68645308652E+02  0.72620485204E+00 -0.49367587222E+03  0.52768511288E+03  0.17327147997E+03 0.  0.
         24    2    3    3    0    0 -0.37811495667E+02  0.47438547545E+02 -0.15770910224E+03  0.18705550831E+03  0.80233890970E+02 0.  0.
         -6    2    1    2    0  502  0.68645308652E+02 -0.72620485204E+00 -0.21331975891E+03  0.28314325654E+03  0.17306668776E+03 0.  0.
        -24    2    5    5    0    0  0.78315563184E+02 -0.21108709773E+02 -0.62284086265E+02  0.13035966862E+03  0.80842010951E+02 0.  0.
          5    1    3    3  501    0 -0.30833812985E+02 -0.46712342693E+02 -0.33596676998E+03  0.34062960457E+03  0.47000000000E+01 0. -1.
        -13    1    4    4    0    0 -0.36484539457E+02  0.17443179214E+02 -0.15095842037E+03  0.15628125543E+03  0.00000000000E+00 0.  1.
         14    1    4    4    0    0 -0.13269562107E+01  0.29995368332E+02 -0.67506818761E+01  0.30774252874E+02  0.00000000000E+00 0. -1.
         -5    1    5    5    0  502 -0.96702545317E+01  0.20382504921E+02 -0.15103567264E+03  0.15278358793E+03  0.47000000000E+01 0.  1.
         11    1    6    6    0    0  0.19983584963E+02 -0.46339343840E+02 -0.33632921522E+02  0.60645295495E+02  0.00000000000E+00 0. -1.
        -12    1    6    6    0    0  0.58331978221E+02  0.25230634067E+02 -0.28651164743E+02  0.69714373121E+02  0.00000000000E+00 0.  1.
<mgrwt>
<rscale>  2 0.18632758E+03</rscale>
<asrwt>0</asrwt>
<pdfrwt beam="1">  1       21 0.79871336E-02 0.18637519E+03</pdfrwt>
<pdfrwt beam="2">  1       21 0.11675569E+00 0.18637519E+03</pdfrwt>
<totfact> 0.68190417E+04</totfact>
</mgrwt>
</event>
<event>
12    1  0.1013215E-001  0.1792312E+03  0.7546771E-02  0.1169019E+00
         21   -1    0    0  503  502  0.00000000000E+00  0.00000000000E+00  0.41044107144E+03  0.41044107144E+03  0.00000000000E+00 0.  1.
         21   -1    0    0  501  503 -0.00000000000E+00 -0.00000000000E+00 -0.17497377890E+03  0.17497377890E+03  0.00000000000E+00 0.  1.
          6    2    1    2  501    0 -0.30599085437E+02  0.24885414028E+02 -0.10053186977E+03  0.20550059022E+03  0.17483777590E+03 0.  0.
         24    2    3    3    0    0  0.28988614533E+02  0.29291928421E+02 -0.11347629572E+03  0.14418371229E+03  0.78827129568E+02 0.  0.
         -6    2    1    2    0  502  0.30599085437E+02 -0.24885414028E+02  0.33599916231E+03  0.37991426012E+03  0.17286937297E+03 0.  0.
        -24    2    5    5    0    0  0.53771430431E+02  0.32108403786E+02  0.13039193532E+03  0.16524783370E+03  0.79890383795E+02 0.  0.
          5    1    3    3  501    0 -0.59587699969E+02 -0.44065143921E+01  0.12944425949E+02  0.61316877936E+02  0.47000000000E+01 0. -1.
        -11    1    4    4    0    0  0.50394786398E+02  0.78571990386E+01 -0.40361180208E+02  0.65041486304E+02  0.00000000000E+00 0.  1.
         12    1    4    4    0    0 -0.21406171865E+02  0.21434729382E+02 -0.73115115508E+02  0.79142225982E+02  0.00000000000E+00 0. -1.
         -5    1    5    5    0  502 -0.23172344994E+02 -0.56993817814E+02  0.20560722699E+03  0.21466642642E+03  0.47000000000E+01 0.  1.
         11    1    6    6    0    0  0.49421566188E+02 -0.14409199100E+02  0.47240227050E+02  0.69869559000E+02  0.00000000000E+00 0. -1.
        -12    1    6    6    0    0  0.43498642429E+01  0.46517602886E+02  0.83151708268E+02  0.95378274702E+02  0.00000000000E+00 0.  1.
<mgrwt>
<rscale>  2 0.17874939E+03</rscale>
<asrwt>0</asrwt>
<pdfrwt beam="1">  1       21 0.63144780E-01 0.17923124E+03</pdfrwt>
<pdfrwt beam="2">  1       21 0.26919043E-01 0.17923124E+03</pdfrwt>
<totfact> 0.30730878E+04</totfact>
</mgrwt>
</event>
<event>
12    1  0.1013215E-001  0.1796125E+03  0.7546771E-02  0.1168277E+00
         21   -1    0    0  501  502  0.00000000000E+00  0.00000000000E+00  0.65836004540E+03  0.65836004540E+03  0.00000000000E+00 0. -1.
         21   -1    0    0  502  503 -0.00000000000E+00 -0.00000000000E+00 -0.70271008963E+02  0.70271008963E+02  0.00000000000E+00 0. -1.
         -6    2    1    2    0  503 -0.36010855817E+01 -0.48862284632E+02  0.93323827897E+02  0.20241044563E+03  0.17280092873E+03 0.  0.
        -24    2    3    3    0    0  0.21505014082E+02 -0.79906880247E+02  0.19702070582E+02  0.11852757308E+03  0.82541134307E+02 0.  0.
          6    2    1    2  501    0  0.36010855817E+01  0.48862284632E+02  0.49476520854E+03  0.52622060874E+03  0.17238047105E+03 0.  0.
         24    2    5    5    0    0  0.65960571207E+02  0.16374748200E+02  0.24761650088E+03  0.26922115510E+03  0.80914581582E+02 0.  0.
          5    1    5    5  501    0 -0.62359485626E+02  0.32487536432E+02  0.24714870766E+03  0.25699945364E+03  0.47000000000E+01 0. -1.
        -11    1    6    6    0    0 -0.48651576711E+01  0.25655387378E+02  0.28030412617E+02  0.38308911394E+02  0.00000000000E+00 0.  1.
         12    1    6    6    0    0  0.70825728879E+02 -0.92806391783E+01  0.21958608826E+03  0.23091224371E+03  0.00000000000E+00 0. -1.
         -5    1    3    3    0  503 -0.25106099664E+02  0.31044595615E+02  0.73621757315E+02  0.83882872551E+02  0.47000000000E+01 0.  1.
         13    1    4    4    0    0 -0.31490230965E+02 -0.25617800084E+02  0.21189398008E+01  0.40649676914E+02  0.00000000000E+00 0. -1.
        -14    1    4    4    0    0  0.52995245047E+02 -0.54289080164E+02  0.17583130781E+02  0.77877896162E+02  0.00000000000E+00 0.  1.
<mgrwt>
<rscale>  2 0.17951130E+03</rscale>
<asrwt>0</asrwt>
<pdfrwt beam="1">  1       21 0.10128616E+00 0.17961250E+03</pdfrwt>
<pdfrwt beam="2">  1       21 0.10810925E-01 0.17961250E+03</pdfrwt>
<totfact> 0.56642238E+04</totfact>
</mgrwt>
</event>
<event>
12    1  0.1013215E-001  0.2350758E+03  0.7546771E-02  0.1123203E+00
         21   -1    0    0  501  502  0.00000000000E+00  0.00000000000E+00  0.11851501880E+03  0.11851501880E+03  0.00000000000E+00 0. -1.
         21   -1    0    0  502  503 -0.00000000000E+00 -0.00000000000E+00 -0.87712293274E+03  0.87712293274E+03  0.00000000000E+00 0. -1.
         -6    2    1    2    0  503  0.13233722313E+03 -0.89486031981E+02 -0.72063561668E+03  0.75800812682E+03  0.17245213180E+03 0.  0.
        -24    2    3    3    0    0  0.14044192754E+03 -0.10586622292E+03 -0.71123730849E+03  0.73692697207E+03  0.79191293735E+02 0.  0.
          6    2    1    2  501    0 -0.13233722313E+03  0.89486031981E+02 -0.37972297264E+02  0.23762982471E+03  0.17177062522E+03 0.  0.
         24    2    5    5    0    0 -0.40543233316E+02  0.80057803914E+02 -0.70872108531E+02  0.13955069527E+03  0.79990843530E+02 0.  0.
          5    1    5    5  501    0 -0.91793989810E+02  0.94282280668E+01  0.32899811268E+02  0.98079129438E+02  0.47000000000E+01 0. -1.
        -13    1    6    6    0    0 -0.52235292950E+02  0.66531323102E+02 -0.82552506932E+02  0.11819415884E+03  0.00000000000E+00 0.  1.
         14    1    6    6    0    0  0.11692059634E+02  0.13526480813E+02  0.11680398401E+02  0.21356536434E+02  0.00000000000E+00 0. -1.
         -5    1    3    3    0  503 -0.81047044148E+01  0.16380190942E+02 -0.93983081821E+01  0.21081154751E+02  0.47000000000E+01 0.  1.
         11    1    4    4    0    0  0.42204738455E+02 -0.79587574222E+02 -0.29505687322E+03  0.30850280445E+03  0.00000000000E+00 0. -1.
        -12    1    4    4    0    0  0.98237189086E+02 -0.26278648702E+02 -0.41618043527E+03  0.42842416762E+03  0.00000000000E+00 0.  1.
<mgrwt>
<rscale>  2 0.23495082E+03</rscale>
<asrwt>0</asrwt>
<pdfrwt beam="1">  1       21 0.18233080E-01 0.23507579E+03</pdfrwt>
<pdfrwt beam="2">  1       21 0.13494199E+00 0.23507579E+03</pdfrwt>
<totfact> 0.10472558E+04</totfact>
</mgrwt>
</event>
<event>
12    1  0.1013215E-001  0.1801112E+03  0.7546771E-02  0.1167937E+00
         21   -1    0    0  503  502  0.00000000000E+00  0.00000000000E+00  0.55227295446E+02  0.55227295446E+02  0.00000000000E+00 0.  1.
         21   -1    0    0  501  503 -0.00000000000E+00 -0.00000000000E+00 -0.98529794017E+03  0.98529794017E+03  0.00000000000E+00 0.  1.
          6    2    1    2  501    0 -0.20649097354E+02 -0.44140971324E+02 -0.79623574369E+03  0.81613312832E+03  0.17235751519E+03 0.  0.
         24    2    3    3    0    0 -0.50864628179E+02 -0.72768117112E+01 -0.71542189710E+03  0.72219212360E+03  0.84218823027E+02 0.  0.
         -6    2    1    2    0  502  0.20649097354E+02  0.44140971324E+02 -0.13383490103E+03  0.22439210730E+03  0.17339327124E+03 0.  0.
        -24    2    5    5    0    0  0.15825253130E+02  0.70177918407E+02 -0.22342708675E+02  0.10970212934E+03  0.79749493306E+02 0.  0.
          5    1    3    3  501    0  0.30215530825E+02 -0.36864159613E+02 -0.80813846588E+02  0.93941004718E+02  0.47000000000E+01 0. -1.
        -13    1    4    4    0    0  0.94680183463E+01  0.45118360459E+01 -0.43433524078E+03  0.43446185266E+03  0.00000000000E+00 0.  1.
         14    1    4    4    0    0 -0.60332646525E+02 -0.11788647757E+02 -0.28108665632E+03  0.28773027094E+03  0.00000000000E+00 0. -1.
         -5    1    5    5    0  502  0.48238442245E+01 -0.26036947082E+02 -0.11149219236E+03  0.11468997796E+03  0.47000000000E+01 0.  1.
         11    1    6    6    0    0 -0.18076724059E+02  0.42913705928E+02 -0.41304170022E+02  0.62244586676E+02  0.00000000000E+00 0. -1.
        -12    1    6    6    0    0  0.33901977189E+02  0.27264212479E+02  0.18961461347E+02  0.47457542666E+02  0.00000000000E+00 0.  1.
<mgrwt>
<rscale>  2 0.17986143E+03</rscale>
<asrwt>0</asrwt>
<pdfrwt beam="1">  1       21 0.84965061E-02 0.18011118E+03</pdfrwt>
<pdfrwt beam="2">  1       21 0.15158431E+00 0.18011118E+03</pdfrwt>
<totfact> 0.31657134E+04</totfact>
</mgrwt>
</event>
<event>
12    1  0.1013215E-001  0.1868931E+03  0.7546771E-02  0.1161496E+00
         21   -1    0    0  503  502  0.00000000000E+00  0.00000000000E+00  0.35947845791E+02  0.35947845791E+02  0.00000000000E+00 0.  1.
         21   -1    0    0  501  503 -0.00000000000E+00 -0.00000000000E+00 -0.17586567565E+04  0.17586567565E+04  0.00000000000E+00 0.  1.
          6    2    1    2  501    0 -0.14786928113E+02  0.66144706783E+02 -0.14622255717E+04  0.14740104922E+04  0.17323259816E+03 0.  0.
         24    2    3    3    0    0  0.57459610344E+02  0.20664019509E+02 -0.84225441003E+03  0.84817154602E+03  0.79207775774E+02 0.  0.
         -6    2    1    2    0  502  0.14786928113E+02 -0.66144706783E+02 -0.26048333897E+03  0.32059411007E+03  0.17417014110E+03 0.  0.
        -24    2    5    5    0    0 -0.31819108868E+02 -0.76025719858E+02 -0.24703062986E+03  0.27086662788E+03  0.74513302436E+02 0.  0.
          5    1    3    3  501    0 -0.72246538456E+02  0.45480687274E+02 -0.61997116167E+03  0.62583894617E+03  0.47000000000E+01 0. -1.
        -13    1    4    4    0    0  0.51261646792E+02 -0.29091570463E+01 -0.77390010686E+03  0.77560144083E+03  0.00000000000E+00 0.  1.
         14    1    4    4    0    0  0.61979635519E+01  0.23573176555E+02 -0.68354303173E+02  0.72570105190E+02  0.00000000000E+00 0. -1.
         -5    1    5    5    0  502  0.46606036980E+02  0.98810130752E+01 -0.13452709111E+02  0.49727482189E+02  0.47000000000E+01 0.  1.
         11    1    6    6    0    0 -0.45740435462E+02 -0.14979588867E+02 -0.11829924362E+03  0.12771564728E+03  0.00000000000E+00 0. -1.
        -12    1    6    6    0    0  0.13921326594E+02 -0.61046130991E+02 -0.12873138624E+03  0.14315098060E+03  0.00000000000E+00 0.  1.
<mgrwt>
<rscale>  2 0.18667432E+03</rscale>
<asrwt>0</asrwt>
<pdfrwt beam="1">  1       21 0.55304392E-02 0.18689305E+03</pdfrwt>
<pdfrwt beam="2">  1       21 0.27056251E+00 0.18689305E+03</pdfrwt>
<totfact> 0.11500289E+04</totfact>
</mgrwt>
</event>
<event>
12    1  0.1013215E-001  0.2143034E+03  0.7546771E-02  0.1138229E+00
         21   -1    0    0  501  502  0.00000000000E+00  0.00000000000E+00  0.24799727401E+03  0.24799727401E+03  0.00000000000E+00 0.  1.
         21   -1    0    0  502  503 -0.00000000000E+00 -0.00000000000E+00 -0.18684079962E+03  0.18684079962E+03  0.00000000000E+00 0. -1.
         -6    2    1    2    0  503  0.11703030676E+03 -0.41796199448E+02  0.94070819984E+01  0.21450980264E+03  0.17459366325E+03 0.  0.
        -24    2    3    3    0    0  0.10617228885E+03 -0.31783068424E+02 -0.55752204833E+02  0.14753232877E+03  0.79842102487E+02 0.  0.
          6    2    1    2  501    0 -0.11703030676E+03  0.41796199448E+02  0.51749392392E+02  0.22032827098E+03  0.17442342844E+03 0.  0.
         24    2    5    5    0    0 -0.14541395939E+03  0.38314995246E+01  0.31586879394E+02  0.16860238668E+03  0.79177862246E+02 0.  0.
          5    1    5    5  501    0  0.28383652624E+02  0.37964699923E+02  0.20162512997E+02  0.51725884303E+02  0.47000000000E+01 0. -1.
        -11    1    6    6    0    0 -0.10455066895E+03 -0.18589443953E+02 -0.93047067145E+01  0.10659731409E+03  0.00000000000E+00 0.  1.
         12    1    6    6    0    0 -0.40863290436E+02  0.22420943478E+02  0.40891586109E+02  0.62005072585E+02  0.00000000000E+00 0. -1.
         -5    1    3    3    0  503  0.10858017912E+02 -0.10013131023E+02  0.65159286832E+02  0.66977473872E+02  0.47000000000E+01 0.  1.
         13    1    4    4    0    0  0.10348448840E+03 -0.36265226180E+02 -0.20078758333E+02  0.11147808083E+03  0.00000000000E+00 0. -1.
        -14    1    4    4    0    0  0.26878004556E+01  0.44821577551E+01 -0.35673446500E+02  0.36054247942E+02  0.00000000000E+00 0.  1.
<mgrwt>
<rscale>  2 0.21426876E+03</rscale>
<asrwt>0</asrwt>
<pdfrwt beam="1">  1       21 0.38153427E-01 0.21430343E+03</pdfrwt>
<pdfrwt beam="2">  1       21 0.28744738E-01 0.21430343E+03</pdfrwt>
<totfact> 0.76004173E+04</totfact>
</mgrwt>
</event>
<event>
12    1  0.1013215E-001  0.2115282E+03  0.7546771E-02  0.1140654E+00
         21   -1    0    0  503  502  0.00000000000E+00  0.00000000000E+00  0.27400628755E+03  0.27400628755E+03  0.00000000000E+00 0.  1.
         21   -1    0    0  501  503 -0.00000000000E+00 -0.00000000000E+00 -0.17206612519E+03  0.17206612519E+03  0.00000000000E+00 0. -1.
          6    2    1    2  501    0 -0.94822667172E+02  0.74320552868E+02 -0.24020727662E+01  0.21154186520E+03  0.17386577579E+03 0.  0.
         24    2    3    3    0    0 -0.12663964717E+03  0.30545281827E+02 -0.19556351995E+02  0.15457736866E+03  0.80877051869E+02 0.  0.
         -6    2    1    2    0  502  0.94822667172E+02 -0.74320552868E+02  0.10434223513E+03  0.23453054754E+03  0.17205345945E+03 0.  0.
        -24    2    5    5    0    0 -0.13377446669E+02 -0.28746129085E+01  0.36998492741E+02  0.88348959743E+02  0.79053341130E+02 0.  0.
          5    1    3    3  501    0  0.31816980002E+02  0.43775271041E+02  0.17154279229E+02  0.56964496549E+02  0.47000000000E+01 0. -1.
        -11    1    4    4    0    0 -0.28105894592E+02  0.45556779669E+02 -0.99366800857E+01  0.54443540441E+02  0.00000000000E+00 0.  1.
         12    1    4    4    0    0 -0.98533752582E+02 -0.15011497842E+02 -0.96196719092E+01  0.10013382821E+03  0.00000000000E+00 0. -1.
         -5    1    5    5    0  502  0.10820011384E+03 -0.71445939959E+02  0.67343742387E+02  0.14618158780E+03  0.47000000000E+01 0.  1.
         11    1    6    6    0    0  0.29545943245E+02  0.12362424078E+02  0.43797975520E+01  0.32326071799E+02  0.00000000000E+00 0. -1.
        -12    1    6    6    0    0 -0.42923389914E+02 -0.15237036987E+02  0.32618695189E+02  0.56022887945E+02  0.00000000000E+00 0.  1.
<mgrwt>
<rscale>  2 0.21115547E+03</rscale>
<asrwt>0</asrwt>
<pdfrwt beam="1">  1       21 0.42154814E-01 0.21152823E+03</pdfrwt>
<pdfrwt beam="2">  1       21 0.26471711E-01 0.21152823E+03</pdfrwt>
<totfact> 0.72914815E+04</totfact>
</mgrwt>
</event>
<event>
12    1  0.1013215E-001  0.2391845E+03  0.7546771E-02  0.1120574E+00
         21   -1    0    0  501  502  0.00000000000E+00  0.00000000000E+00  0.39831198658E+03  0.39831198658E+03  0.00000000000E+00 0. -1.
         21   -1    0    0  502  503 -0.00000000000E+00 -0.00000000000E+00 -0.18378409691E+03  0.18378409691E+03  0.00000000000E+00 0. -1.
         -6    2    1    2    0  503  0.11031356555E+01 -0.16278974914E+03 -0.30453546401E+02  0.23971452937E+03  0.17330296526E+03 0.  0.
        -24    2    3    3    0    0  0.59208149955E+02 -0.13432427503E+03 -0.73962490677E+00  0.16835990069E+03  0.82437207814E+02 0.  0.
          6    2    1    2  501    0 -0.11031356555E+01  0.16278974914E+03  0.24498143607E+03  0.34238155413E+03  0.17523557075E+03 0.  0.
         24    2    5    5    0    0 -0.69187067789E+02  0.85150823433E+02  0.12469152362E+03  0.18377834597E+03  0.78670142409E+02 0.  0.
          5    1    5    5  501    0  0.68083932133E+02  0.77638925703E+02  0.12028991245E+03  0.15860320815E+03  0.47000000000E+01 0. -1.
        -13    1    6    6    0    0 -0.51638704368E+02  0.86753823191E+01  0.28404736676E+02  0.59570522181E+02  0.00000000000E+00 0.  1.
         14    1    6    6    0    0 -0.17548363421E+02  0.76475441113E+02  0.96286786940E+02  0.12420782379E+03  0.00000000000E+00 0. -1.
         -5    1    3    3    0  503 -0.58105014300E+02 -0.28465474110E+02 -0.29713921494E+02  0.71354628677E+02  0.47000000000E+01 0.  1.
         13    1    4    4    0    0  0.48114369844E+02 -0.80456591966E+02 -0.38819578477E+02  0.10146534112E+03  0.00000000000E+00 0. -1.
        -14    1    4    4    0    0  0.11093780112E+02 -0.53867683061E+02  0.38079953570E+02  0.66894559565E+02  0.00000000000E+00 0.  1.
<mgrwt>
<rscale>  2 0.23883065E+03</rscale>
<asrwt>0</asrwt>
<pdfrwt beam="1">  1       21 0.61278767E-01 0.23918450E+03</pdfrwt>
<pdfrwt beam="2">  1       21 0.28274477E-01 0.23918450E+03</pdfrwt>
<totfact> 0.28899570E+04</totfact>
</mgrwt>
</event>
<event>
12    1  0.1013215E-001  0.3178157E+03  0.7546771E-02  0.1076965E+00
         21   -1    0    0  501  502  0.00000000000E+00  0.00000000000E+00  0.54514714004E+02  0.54514714004E+02  0.00000000000E+00 0. -1.
         21   -1    0    0  502  503 -0.00000000000E+00 -0.00000000000E+00 -0.20149222289E+04  0.20149222289E+04  0.00000000000E+00 0.  1.
         -6    2    1    2    0  503 -0.26109862243E+03  0.31935204135E+02 -0.12834870825E+04  0.13216214169E+04  0.17364253713E+03 0.  0.
        -24    2    3    3    0    0 -0.14730572643E+03  0.38624005705E+02 -0.49180962103E+03  0.52176589477E+03  0.84688575082E+02 0.  0.
          6    2    1    2  501    0  0.26109862243E+03 -0.31935204135E+02 -0.67692043232E+03  0.74781552595E+03  0.17836603170E+03 0.  0.
         24    2    5    5    0    0  0.17531161933E+03 -0.19197188496E+02 -0.25133185233E+03  0.31345462030E+03  0.63114206582E+02 0.  0.
          5    1    5    5  501    0  0.85787003103E+02 -0.12738015639E+02 -0.42558857999E+03  0.43436090566E+03  0.47000000000E+01 0. -1.
        -11    1    6    6    0    0  0.19857854082E+02 -0.17284988935E+02 -0.68940053201E+02  0.73795908739E+02  0.00000000000E+00 0.  1.
         12    1    6    6    0    0  0.15545376525E+03 -0.19121995613E+01 -0.18239179913E+03  0.23965871156E+03  0.00000000000E+00 0. -1.
         -5    1    3    3    0  503 -0.11379289600E+03 -0.66888015699E+01 -0.79167746150E+03  0.79985552213E+03  0.47000000000E+01 0.  1.
         11    1    4    4    0    0 -0.12918247978E+02 -0.12663908399E+02 -0.14293838652E+02  0.23055791684E+02  0.00000000000E+00 0. -1.
        -12    1    4    4    0    0 -0.13438747845E+03  0.51287914104E+02 -0.47751578238E+03  0.49871010309E+03  0.00000000000E+00 0.  1.
<mgrwt>
<rscale>  2 0.31715693E+03</rscale>
<asrwt>0</asrwt>
<pdfrwt beam="1">  1       21 0.83868785E-02 0.31781565E+03</pdfrwt>
<pdfrwt beam="2">  1       21 0.30998806E+00 0.31781565E+03</pdfrwt>
<totfact> 0.29333798E+03</totfact>
</mgrwt>
</event>
<event>
12    1  0.1013215E-001  0.2517882E+03  0.7546771E-02  0.1112184E+00
         21   -1    0    0  503  502  0.00000000000E+00  0.00000000000E+00  0.62034694212E+03  0.62034694212E+03  0.00000000000E+00 0. -1.
         21   -1    0    0  501  503 -0.00000000000E+00 -0.00000000000E+00 -0.17377988173E+03  0.17377988173E+03  0.00000000000E+00 0. -1.
          6    2    1    2  501    0  0.16688657600E+03  0.74426285357E+02 -0.31566379663E+02  0.25375919386E+03  0.17322497205E+03 0.  0.
         24    2    3    3    0    0  0.15666346636E+03  0.11222557772E+03 -0.41365377054E+02  0.21312166412E+03  0.81066190931E+02 0.  0.
         -6    2    1    2    0  502 -0.16688657600E+03 -0.74426285357E+02  0.47813344006E+03  0.54036762999E+03  0.17319118867E+03 0.  0.
        -24    2    5    5    0    0 -0.16499677254E+03 -0.41079401418E+02  0.46927750377E+03  0.50549495253E+03  0.79951981331E+02 0.  0.
          5    1    3    3  501    0  0.10223109644E+02 -0.37799292362E+02  0.97989973912E+01  0.40637529744E+02  0.47000000000E+01 0. -1.
        -13    1    4    4    0    0  0.23640195705E+02  0.32666053682E+02  0.21690816335E+02  0.45786694895E+02  0.00000000000E+00 0.  1.
         14    1    4    4    0    0  0.13302327065E+03  0.79559524037E+02 -0.63056193389E+02  0.16733496922E+03  0.00000000000E+00 0. -1.
         -5    1    5    5    0  502 -0.18898034671E+01 -0.33346883939E+02  0.88559362873E+01  0.34872677458E+02  0.47000000000E+01 0.  1.
         13    1    6    6    0    0 -0.10709707322E+03  0.11819224893E+02  0.23722041824E+03  0.26054367004E+03  0.00000000000E+00 0. -1.
        -14    1    6    6    0    0 -0.57899699314E+02 -0.52898626311E+02  0.23205708553E+03  0.24495128249E+03  0.00000000000E+00 0.  1.
<mgrwt>
<rscale>  2 0.25178238E+03</rscale>
<asrwt>0</asrwt>
<pdfrwt beam="1">  1       21 0.95437990E-01 0.25178819E+03</pdfrwt>
<pdfrwt beam="2">  1       21 0.26735367E-01 0.25178819E+03</pdfrwt>
<totfact> 0.11770027E+04</totfact>
</mgrwt>
</event>
<event>
12    1  0.1013215E-001  0.1889598E+03  0.7546771E-02  0.1159534E+00
         21   -1    0    0  503  502  0.00000000000E+00  0.00000000000E+00  0.68461485548E+02  0.68461485548E+02  0.00000000000E+00 0. -1.
         21   -1    0    0  501  503 -0.00000000000E+00 -0.00000000000E+00 -0.11057165143E+04  0.11057165143E+04  0.00000000000E+00 0. -1.
          6    2    1    2  501    0  0.75432214672E+02 -0.78634067953E+01 -0.94630540930E+03  0.96498691236E+03  0.17307212707E+03 0.  0.
         24    2    3    3    0    0 -0.87797467794E+01 -0.49493883078E+02 -0.50474284599E+03  0.51351782336E+03  0.80053019351E+02 0.  0.
         -6    2    1    2    0  502 -0.75432214672E+02  0.78634067953E+01 -0.90949619410E+02  0.20919108745E+03  0.17244484806E+03 0.  0.
        -24    2    5    5    0    0 -0.10308123003E+03 -0.28005041230E+02 -0.45999623021E+02  0.14520979496E+03  0.86947667674E+02 0.  0.
          5    1    3    3  501    0  0.84211961451E+02  0.41630476283E+02 -0.44156256331E+03  0.45146908900E+03  0.47000000000E+01 0. -1.
        -13    1    4    4    0    0 -0.18782154869E+02  0.93946329503E+01 -0.42227096750E+02  0.47160960229E+02  0.00000000000E+00 0.  1.
         14    1    4    4    0    0  0.10002408089E+02 -0.58888516029E+02 -0.46251574924E+03  0.46635686313E+03  0.00000000000E+00 0. -1.
         -5    1    5    5    0  502  0.27649015359E+02  0.35868448025E+02 -0.44949996389E+02  0.63981292496E+02  0.47000000000E+01 0.  1.
         13    1    6    6    0    0 -0.77875379015E+02  0.70905469413E+01  0.50115140797E+01  0.78357933779E+02  0.00000000000E+00 0. -1.
        -14    1    6    6    0    0 -0.25205851016E+02 -0.35095588171E+02 -0.51011137101E+02  0.66851861177E+02  0.00000000000E+00 0.  1.
<mgrwt>
<rscale>  2 0.18881606E+03</rscale>
<asrwt>0</asrwt>
<pdfrwt beam="1">  1       21 0.10532538E-01 0.18895982E+03</pdfrwt>
<pdfrwt beam="2">  1       21 0.17011021E+00 0.18895982E+03</pdfrwt>
<totfact> 0.15810411E+04</totfact>
</mgrwt>
</event>
<event>
12    1  0.1013215E-001  0.1986778E+03  0.7546771E-02  0.1151382E+00
         21   -1    0    0  503  502  0.00000000000E+00  0.00000000000E+00  0.10454109563E+03  0.10454109563E+03  0.00000000000E+00 0.  1.
         21   -1    0    0  501  503 -0.00000000000E+00 -0.00000000000E+00 -0.43107950002E+03  0.43107950002E+03  0.00000000000E+00 0.  1.
          6    2    1    2  501    0  0.74489297804E+02  0.56658408709E+02 -0.26247362668E+03  0.32918881812E+03  0.17525422251E+03 0.  0.
         24    2    3    3    0    0  0.11323681984E+02  0.94351674009E+02 -0.15362490104E+03  0.19773231450E+03  0.80417621304E+02 0.  0.
         -6    2    1    2    0  502 -0.74489297804E+02 -0.56658408709E+02 -0.64064777708E+02  0.20643177753E+03  0.17248464356E+03 0.  0.
        -24    2    5    5    0    0  0.22434842694E+02 -0.42780110555E+02 -0.51539104749E+02  0.10760931726E+03  0.81178973977E+02 0.  0.
          5    1    3    3  501    0  0.63165615820E+02 -0.37693265300E+02 -0.10884872564E+03  0.13145650362E+03  0.47000000000E+01 0. -1.
        -13    1    4    4    0    0  0.37542829451E+02  0.51365176709E+02 -0.12384976769E+03  0.13923580854E+03  0.00000000000E+00 0.  1.
         14    1    4    4    0    0 -0.26219147468E+02  0.42986497300E+02 -0.29775133349E+02  0.58496505964E+02  0.00000000000E+00 0. -1.
         -5    1    5    5    0  502 -0.96924140498E+02 -0.13878298154E+02 -0.12525672959E+02  0.98822460271E+02  0.47000000000E+01 0.  1.
         13    1    6    6    0    0  0.21484889826E+02  0.18983296066E+02 -0.25736554969E+01  0.28785234461E+02  0.00000000000E+00 0. -1.
        -14    1    6    6    0    0  0.94995286752E+00 -0.61763406621E+02 -0.48965449252E+02  0.78824082794E+02  0.00000000000E+00 0.  1.
<mgrwt>
<rscale>  2 0.19806531E+03</rscale>
<asrwt>0</asrwt>
<pdfrwt beam="1">  1       21 0.16083246E-01 0.19867781E+03</pdfrwt>
<pdfrwt beam="2">  1       21 0.66319923E-01 0.19867781E+03</pdfrwt>
<totfact> 0.71853487E+04</totfact>
</mgrwt>
</event>
<event>
12    1  0.1013215E-001  0.2103317E+03  0.7546771E-02  0.1141398E+00
         21   -1    0    0  503  502  0.00000000000E+00  0.00000000000E+00  0.18980216378E+03  0.18980216378E+03  0.00000000000E+00 0. -1.
         21   -1    0    0  501  503 -0.00000000000E+00 -0.00000000000E+00 -0.32171016898E+03  0.32171016898E+03  0.00000000000E+00 0.  1.
          6    2    1    2  501    0  0.12795511440E+02 -0.11817810202E+03 -0.20053827118E+03  0.29026689745E+03  0.17294358802E+03 0.  0.
         24    2    3    3    0    0 -0.36758291105E+02 -0.13091094639E+03 -0.15101207057E+03  0.21890416754E+03  0.81397427844E+02 0.  0.
         -6    2    1    2    0  502 -0.12795511440E+02  0.11817810202E+03  0.68630265980E+02  0.22124543532E+03  0.17352129648E+03 0.  0.
        -24    2    5    5    0    0 -0.45721338942E+02  0.16567028901E+02  0.67062032691E+00  0.94558720412E+02  0.81092506393E+02 0.  0.
          5    1    3    3  501    0  0.49553802545E+02  0.12732844373E+02 -0.49526200609E+02  0.71362729904E+02  0.47000000000E+01 0. -1.
        -11    1    4    4    0    0 -0.12238988440E+02 -0.55505696639E+02 -0.12178790953E+03  0.13439854949E+03  0.00000000000E+00 0.  1.
         12    1    4    4    0    0 -0.24519302665E+02 -0.75405249753E+02 -0.29224161034E+02  0.84505618048E+02  0.00000000000E+00 0. -1.
         -5    1    5    5    0  502  0.32925827502E+02  0.10161107312E+03  0.67959645653E+02  0.12668671491E+03  0.47000000000E+01 0.  1.
         13    1    6    6    0    0  0.20904576649E+02  0.63380746620E+01  0.13864960871E+02  0.25872952195E+02  0.00000000000E+00 0. -1.
        -14    1    6    6    0    0 -0.66625915591E+02  0.10228954239E+02 -0.13194340544E+02  0.68685768217E+02  0.00000000000E+00 0.  1.
<mgrwt>
<rscale>  2 0.21021252E+03</rscale>
<asrwt>0</asrwt>
<pdfrwt beam="1">  1       21 0.29200333E-01 0.21033171E+03</pdfrwt>
<pdfrwt beam="2">  1       21 0.49493871E-01 0.21033171E+03</pdfrwt>
<totfact> 0.43328260E+04</totfact>
</mgrwt>
</event>
<event>
12    1  0.1013215E-001  0.1791664E+03  0.7546771E-02  0.1168774E+00
         21   -1    0    0  501  502  0.00000000000E+00  0.00000000000E+00  0.20296407702E+03  0.20296407702E+03  0.00000000000E+00 0. -1.
         21   -1    0    0  502  503 -0.00000000000E+00 -0.00000000000E+00 -0.15861658776E+03  0.15861658776E+03  0.00000000000E+00 0. -1.
         -6    2    1    2    0  503  0.48923474656E+02  0.31743790968E+01  0.36793371525E+02  0.18225506795E+03  0.17163791699E+03 0.  0.
        -24    2    3    3    0    0 -0.21138941860E+02 -0.19566106804E+02  0.55351291724E+02  0.10614752358E+03  0.85871088667E+02 0.  0.
          6    2    1    2  501    0 -0.48923474656E+02 -0.31743790968E+01  0.75541177330E+01  0.17932559683E+03  0.17232823892E+03 0.  0.
         24    2    5    5    0    0 -0.56022853979E+02 -0.49783293808E+02 -0.35990190265E+02  0.11497508109E+03  0.79416868269E+02 0.  0.
          5    1    5    5  501    0  0.70993793232E+01  0.46608914711E+02  0.43544307998E+02  0.64350515742E+02  0.47000000000E+01 0. -1.
        -11    1    6    6    0    0  0.80467341016E+00 -0.46964790898E+02  0.12251014701E+01  0.46987657496E+02  0.00000000000E+00 0.  1.
         12    1    6    6    0    0 -0.56827527389E+02 -0.28185029101E+01 -0.37215291735E+02  0.67987423593E+02  0.00000000000E+00 0. -1.
         -5    1    3    3    0  503  0.70062416516E+02  0.22740485900E+02 -0.18557920198E+02  0.76107544364E+02  0.47000000000E+01 0.  1.
         11    1    4    4    0    0 -0.14599302218E+02 -0.18901595728E+02 -0.19607619730E+02  0.30900949788E+02  0.00000000000E+00 0. -1.
        -12    1    4    4    0    0 -0.65396396423E+01 -0.66451107550E+00  0.74958911454E+02  0.75246573795E+02  0.00000000000E+00 0.  1.
<mgrwt>
<rscale>  2 0.17900022E+03</rscale>
<asrwt>0</asrwt>
<pdfrwt beam="1">  1       21 0.31225243E-01 0.17916642E+03</pdfrwt>
<pdfrwt beam="2">  1       21 0.24402552E-01 0.17916642E+03</pdfrwt>
<totfact> 0.15697713E+05</totfact>
</mgrwt>
</event>
<event>
12    1  0.1013215E-001  0.2749983E+03  0.7546771E-02  0.1098461E+00
         21   -1    0    0  503  502  0.00000000000E+00  0.00000000000E+00  0.21037312560E+03  0.21037312560E+03  0.00000000000E+00 0. -1.
         21   -1    0    0  501  503 -0.00000000000E+00 -0.00000000000E+00 -0.56414490953E+03  0.56414490953E+03  0.00000000000E+00 0.  1.
          6    2    1    2  501    0 -0.11829245589E+03 -0.17705493867E+03 -0.41019934477E+03  0.49384975469E+03  0.17401873844E+03 0.  0.
         24    2    3    3    0    0 -0.66983193237E+02 -0.19106709143E+03 -0.29674545779E+03  0.36845894430E+03  0.81919138878E+02 0.  0.
         -6    2    1    2    0  502  0.11829245589E+03  0.17705493867E+03  0.56427560849E+02  0.28066828044E+03  0.17392256206E+03 0.  0.
        -24    2    5    5    0    0  0.46292721776E+02  0.12694536104E+03 -0.11549162847E+02  0.16959237645E+03  0.10183344346E+03 0.  0.
          5    1    3    3  501    0 -0.51309262651E+02  0.14012152756E+02 -0.11345388699E+03  0.12539081039E+03  0.47000000000E+01 0. -1.
        -13    1    4    4    0    0 -0.21571282662E+01 -0.74406784623E+02 -0.16457409647E+03  0.18062573468E+03  0.00000000000E+00 0.  1.
         14    1    4    4    0    0 -0.64826064971E+02 -0.11666030680E+03 -0.13217136132E+03  0.18783320962E+03  0.00000000000E+00 0. -1.
         -5    1    5    5    0  502  0.71999734113E+02  0.50109577627E+02  0.67976723696E+02  0.11107590399E+03  0.47000000000E+01 0.  1.
         11    1    6    6    0    0  0.41248668405E+02  0.61623990747E+01  0.17554281353E+02  0.45250200014E+02  0.00000000000E+00 0. -1.
        -12    1    6    6    0    0  0.50440533712E+01  0.12078296197E+03 -0.29103444199E+02  0.12434217644E+03  0.00000000000E+00 0.  1.
<mgrwt>
<rscale>  2 0.27498311E+03</rscale>
<asrwt>0</asrwt>
<pdfrwt beam="1">  1       21 0.32365097E-01 0.27499832E+03</pdfrwt>
<pdfrwt beam="2">  1       21 0.86791522E-01 0.27499832E+03</pdfrwt>
<totfact> 0.99876347E+03</totfact>
</mgrwt>
</event>
<event>
12    1  0.1013215E-001  0.3556599E+03  0.7546771E-02  0.1060322E+00
         21   -1    0    0  501  502  0.00000000000E+00  0.00000000000E+00  0.13191470551E+04  0.13191470551E+04  0.00000000000E+00 0.  1.
         21   -1    0    0  502  503 -0.00000000000E+00 -0.00000000000E+00 -0.10453895699E+03  0.10453895699E+03  0.00000000000E+00 0.  1.
         -6    2    1    2    0  503 -0.26239817247E+03 -0.16623891575E+03  0.40229455580E+03  0.53692377602E+03  0.17308394958E+03 0.  0.
        -24    2    3    3    0    0 -0.19050757244E+03 -0.11970019681E+03  0.18139003098E+03  0.29995329301E+03  0.80301695945E+02 0.  0.
          6    2    1    2  501    0  0.26239817247E+03  0.16623891575E+03  0.81231354235E+03  0.88676223612E+03  0.17322180666E+03 0.  0.
         24    2    5    5    0    0  0.14956308705E+03  0.14252242646E+03  0.65483932359E+03  0.69153301715E+03  0.81985456271E+02 0.  0.
          5    1    5    5  501    0  0.11283508542E+03  0.23716489294E+02  0.15747421876E+03  0.19522921897E+03  0.47000000000E+01 0. -1.
        -13    1    6    6    0    0  0.12799169040E+03  0.13995904477E+03  0.49266448880E+03  0.52790975133E+03  0.00000000000E+00 0.  1.
         14    1    6    6    0    0  0.21571396648E+02  0.25633816883E+01  0.16217483479E+03  0.16362326582E+03  0.00000000000E+00 0. -1.
         -5    1    3    3    0  503 -0.71890600021E+02 -0.46538718939E+02  0.22090452482E+03  0.23697048301E+03  0.47000000000E+01 0.  1.
         11    1    4    4    0    0 -0.16175802306E+01 -0.28694745754E+02  0.15923570940E+02  0.32856736162E+02  0.00000000000E+00 0. -1.
        -12    1    4    4    0    0 -0.18888999221E+03 -0.91005451056E+02  0.16546646004E+03  0.26709655685E+03  0.00000000000E+00 0.  1.
<mgrwt>
<rscale>  2 0.35564313E+03</rscale>
<asrwt>0</asrwt>
<pdfrwt beam="1">  1       21 0.20294569E+00 0.35565991E+03</pdfrwt>
<pdfrwt beam="2">  1       21 0.16082917E-01 0.35565991E+03</pdfrwt>
<totfact> 0.39623265E+03</totfact>
</mgrwt>
</event>
<event>
12    1  0.1013215E-001  0.2117227E+03  0.7546771E-02  0.1142318E+00
         21   -1    0    0  503  502  0.00000000000E+00  0.00000000000E+00  0.87355272204E+03  0.87355272204E+03  0.00000000000E+00 0. -1.
         21   -1    0    0  501  503 -0.00000000000E+00 -0.00000000000E+00 -0.50178274910E+02  0.50178274910E+02  0.00000000000E+00 0.  1.
          6    2    1    2  501    0  0.52443899867E+02 -0.88878167973E+02  0.49816336133E+03  0.54128848731E+03  0.18486968529E+03 0.  0.
         24    2    3    3    0    0  0.17920461324E+02 -0.79866976528E+02  0.13855434751E+03  0.17988317163E+03  0.80378923519E+02 0.  0.
         -6    2    1    2    0  502 -0.52443899867E+02  0.88878167973E+02  0.32521108580E+03  0.38244250964E+03  0.17277248474E+03 0.  0.
        -24    2    5    5    0    0 -0.95875354086E+02  0.25997576227E+02  0.24729953187E+03  0.27320625069E+03  0.60138502346E+02 0.  0.
          5    1    3    3  501    0  0.34523438544E+02 -0.90111914445E+01  0.35960901382E+03  0.36140531568E+03  0.47000000000E+01 0. -1.
        -11    1    4    4    0    0  0.39976684744E+02 -0.35267418820E+02  0.31725327591E+02  0.62035655587E+02  0.00000000000E+00 0.  1.
         12    1    4    4    0    0 -0.22056223420E+02 -0.44599557709E+02  0.10682901992E+03  0.11784751604E+03  0.00000000000E+00 0. -1.
         -5    1    5    5    0  502  0.43431454219E+02  0.62880591746E+02  0.77911553927E+02  0.10923625895E+03  0.47000000000E+01 0.  1.
         13    1    6    6    0    0 -0.47043829360E+02  0.18497537298E+02  0.55170131085E+02  0.74826627152E+02  0.00000000000E+00 0. -1.
        -14    1    6    6    0    0 -0.48831524727E+02  0.75000389292E+01  0.19212940078E+03  0.19837962354E+03  0.00000000000E+00 0.  1.
<mgrwt>
<rscale>  2 0.20905350E+03</rscale>
<asrwt>0</asrwt>
<pdfrwt beam="1">  1       21 0.13439272E+00 0.21172268E+03</pdfrwt>
<pdfrwt beam="2">  1       21 0.77197352E-02 0.21172268E+03</pdfrwt>
<totfact> 0.50215899E+04</totfact>
</mgrwt>
</event>
<event>
12    1  0.1013215E-001  0.2140863E+03  0.7546771E-02  0.1138759E+00
         21   -1    0    0  503  502  0.00000000000E+00  0.00000000000E+00  0.32354247764E+03  0.32354247764E+03  0.00000000000E+00 0. -1.
         21   -1    0    0  501  503 -0.00000000000E+00 -0.00000000000E+00 -0.20125925866E+03  0.20125925866E+03  0.00000000000E+00 0. -1.
          6    2    1    2  501    0  0.12290024203E+03 -0.99829163010E+01  0.20570823747E+03  0.29689867906E+03  0.17501090982E+03 0.  0.
         24    2    3    3    0    0  0.60995147071E+02  0.61296035466E+02  0.10087627865E+03  0.15574358940E+03  0.81255338993E+02 0.  0.
         -6    2    1    2    0  502 -0.12290024203E+03  0.99829163010E+01 -0.83425018488E+02  0.22790305724E+03  0.17255706789E+03 0.  0.
        -24    2    5    5    0    0 -0.14798683390E+03 -0.11025214340E+02 -0.93047444072E+02  0.19347400383E+03  0.82174843785E+02 0.  0.
          5    1    3    3  501    0  0.61905094963E+02 -0.71278951767E+02  0.10483195882E+03  0.14115508966E+03  0.47000000000E+01 0. -1.
        -13    1    4    4    0    0  0.68363440149E+02  0.71120640891E+02  0.10371609401E+03  0.14313886148E+03  0.00000000000E+00 0.  1.
         14    1    4    4    0    0 -0.73682930781E+01 -0.98246054250E+01 -0.28398153583E+01  0.12604727919E+02  0.00000000000E+00 0. -1.
         -5    1    5    5    0  502  0.25086591864E+02  0.21008130641E+02  0.96224255840E+01  0.34429053407E+02  0.47000000000E+01 0.  1.
         11    1    6    6    0    0 -0.34294134265E+02 -0.22237336500E+02 -0.63421211763E+02  0.75450890525E+02  0.00000000000E+00 0. -1.
        -12    1    6    6    0    0 -0.11369269963E+03  0.11212122160E+02 -0.29626232309E+02  0.11802311330E+03  0.00000000000E+00 0.  1.
<mgrwt>
<rscale>  2 0.21358423E+03</rscale>
<asrwt>0</asrwt>
<pdfrwt beam="1">  1       21 0.49775766E-01 0.21408631E+03</pdfrwt>
<pdfrwt beam="2">  1       21 0.30962963E-01 0.21408631E+03</pdfrwt>
<totfact> 0.38114008E+04</totfact>
</mgrwt>
</event>
<event>
12    1  0.1013215E-001  0.2286050E+03  0.7546771E-02  0.1127637E+00
         21   -1    0    0  503  502  0.00000000000E+00  0.00000000000E+00  0.12913593188E+04  0.12913593188E+04  0.00000000000E+00 0. -1.
         21   -1    0    0  501  503 -0.00000000000E+00 -0.00000000000E+00 -0.40873007470E+02  0.40873007470E+02  0.00000000000E+00 0.  1.
          6    2    1    2  501    0  0.13176103890E+03  0.71253911302E+02  0.55801596317E+03  0.60300299882E+03  0.17260564933E+03 0.  0.
         24    2    3    3    0    0  0.53020741910E+02  0.10404694467E+03  0.31425403877E+03  0.34470591560E+03  0.80184796579E+02 0.  0.
         -6    2    1    2    0  502 -0.13176103890E+03 -0.71253911302E+02  0.69247034816E+03  0.72922932745E+03  0.17269087321E+03 0.  0.
        -24    2    5    5    0    0 -0.13939485776E+03 -0.27540098288E+02  0.63937137680E+03  0.65986966052E+03  0.80267228755E+02 0.  0.
          5    1    3    3  501    0  0.78740296989E+02 -0.32793033370E+02  0.24376192441E+03  0.25829708322E+03  0.47000000000E+01 0. -1.
        -13    1    4    4    0    0  0.74357306628E+02  0.76177442973E+02  0.23047273286E+03  0.25386943979E+03  0.00000000000E+00 0.  1.
         14    1    4    4    0    0 -0.21336564718E+02  0.27869501700E+02  0.83781305908E+02  0.90836475816E+02  0.00000000000E+00 0. -1.
         -5    1    5    5    0  502  0.76338188569E+01 -0.43713813014E+02  0.53098971355E+02  0.69359666936E+02  0.47000000000E+01 0.  1.
         13    1    6    6    0    0 -0.10794249130E+03 -0.55196717133E+02  0.46632633951E+03  0.48182830337E+03  0.00000000000E+00 0. -1.
        -14    1    6    6    0    0 -0.31452366455E+02  0.27656618845E+02  0.17304503730E+03  0.17804135715E+03  0.00000000000E+00 0.  1.
<mgrwt>
<rscale>  2 0.22858887E+03</rscale>
<asrwt>0</asrwt>
<pdfrwt beam="1">  1       21 0.19867063E+00 0.22860496E+03</pdfrwt>
<pdfrwt beam="2">  1       21 0.62881560E-02 0.22860496E+03</pdfrwt>
<totfact> 0.24297391E+04</totfact>
</mgrwt>
</event>
<event>
12    1  0.1013215E-001  0.1944277E+03  0.7546771E-02  0.1155229E+00
         21   -1    0    0  501  502  0.00000000000E+00  0.00000000000E+00  0.56126758919E+03  0.56126758919E+03  0.00000000000E+00 0. -1.
         21   -1    0    0  502  503 -0.00000000000E+00 -0.00000000000E+00 -0.10706328556E+03  0.10706328556E+03  0.00000000000E+00 0. -1.
         -6    2    1    2    0  503  0.16103557703E+02 -0.85025060036E+02  0.19641810256E+02  0.19225661817E+03  0.17055269308E+03 0.  0.
        -24    2    3    3    0    0  0.56866013190E+02 -0.87547919691E+02  0.48166575017E+02  0.14221968379E+03  0.83714023968E+02 0.  0.
          6    2    1    2  501    0 -0.16103557703E+02  0.85025060036E+02  0.43456249337E+03  0.47607425658E+03  0.17410787381E+03 0.  0.
         24    2    5    5    0    0  0.30921791536E+02  0.87577369922E+02  0.39737605744E+03  0.41588440050E+03  0.80163274883E+02 0.  0.
          5    1    5    5  501    0 -0.47025349239E+02 -0.25523098861E+01  0.37186435934E+02  0.60189856075E+02  0.47000000000E+01 0. -1.
        -13    1    6    6    0    0  0.15927251837E+02 -0.74033968430E+00  0.11277075614E+02  0.19529410855E+02  0.00000000000E+00 0.  1.
         14    1    6    6    0    0  0.14994539699E+02  0.88317709607E+02  0.38609898183E+03  0.39635498965E+03  0.00000000000E+00 0. -1.
         -5    1    3    3    0  503 -0.40762455486E+02  0.25228596544E+01 -0.28524764761E+02  0.50036934386E+02  0.47000000000E+01 0.  1.
         13    1    4    4    0    0  0.10517882952E+02  0.14950966871E+02  0.18223670151E+02  0.25812001587E+02  0.00000000000E+00 0. -1.
        -14    1    4    4    0    0  0.46348130237E+02 -0.10249888656E+03  0.29942904867E+02  0.11640768220E+03  0.00000000000E+00 0.  1.
<mgrwt>
<rscale>  2 0.19362853E+03</rscale>
<asrwt>0</asrwt>
<pdfrwt beam="1">  1       21 0.86348858E-01 0.19442772E+03</pdfrwt>
<pdfrwt beam="2">  1       21 0.16471275E-01 0.19442772E+03</pdfrwt>
<totfact> 0.38178108E+04</totfact>
</mgrwt>
</event>
<event>
12    1  0.1013215E-001  0.1776445E+03  0.7546771E-02  0.1170317E+00
         21   -1    0    0  503  502  0.00000000000E+00  0.00000000000E+00  0.11634805686E+03  0.11634805686E+03  0.00000000000E+00 0. -1.
         21   -1    0    0  501  503 -0.00000000000E+00 -0.00000000000E+00 -0.27011851676E+03  0.27011851676E+03  0.00000000000E+00 0. -1.
          6    2    1    2  501    0  0.31196198564E+02 -0.20605560912E+02 -0.71303060298E+02  0.19061345880E+03  0.17277607567E+03 0.  0.
         24    2    3    3    0    0 -0.41474580948E+02 -0.24583502700E+01 -0.71354227721E+02  0.11556376815E+03  0.80854031093E+02 0.  0.
         -6    2    1    2    0  502 -0.31196198564E+02  0.20605560912E+02 -0.82467399597E+02  0.19585311482E+03  0.17366570947E+03 0.  0.
        -24    2    5    5    0    0 -0.42387387229E+02  0.59467020188E+02 -0.48569357351E+01  0.10821220074E+03  0.79707424231E+02 0.  0.
          5    1    3    3  501    0  0.72670779512E+02 -0.18147210642E+02  0.51167423202E-01  0.75049690653E+02  0.47000000000E+01 0. -1.
        -11    1    4    4    0    0  0.64508526218E+01  0.31405036258E+02 -0.28538500517E+02  0.42922439512E+02  0.00000000000E+00 0.  1.
         12    1    4    4    0    0 -0.47925433570E+02 -0.33863386528E+02 -0.42815727204E+02  0.72641328636E+02  0.00000000000E+00 0. -1.
         -5    1    5    5    0  502  0.11191188665E+02 -0.38861459277E+02 -0.77610463862E+02  0.87640914085E+02  0.47000000000E+01 0.  1.
         13    1    6    6    0    0 -0.25442733037E+01  0.37397922188E+02 -0.36840277521E+02  0.52557434854E+02  0.00000000000E+00 0. -1.
        -14    1    6    6    0    0 -0.39843113925E+02  0.22069098001E+02  0.31983341786E+02  0.55654765884E+02  0.00000000000E+00 0.  1.
<mgrwt>
<rscale>  2 0.17742670E+03</rscale>
<asrwt>0</asrwt>
<pdfrwt beam="1">  1       21 0.17899701E-01 0.17764451E+03</pdfrwt>
<pdfrwt beam="2">  1       21 0.41556695E-01 0.17764451E+03</pdfrwt>
<totfact> 0.15890486E+05</totfact>
</mgrwt>
</event>
<event>
12    1  0.1013215E-001  0.1826176E+03  0.7546771E-02  0.1165386E+00
         21   -1    0    0  501  502  0.00000000000E+00  0.00000000000E+00  0.65626381477E+02  0.65626381477E+02  0.00000000000E+00 0.  1.
         21   -1    0    0  502  503 -0.00000000000E+00 -0.00000000000E+00 -0.55301395579E+03  0.55301395579E+03  0.00000000000E+00 0.  1.
         -6    2    1    2    0  503  0.50127161628E+02  0.25757582431E+02 -0.33259615433E+03  0.37924612787E+03  0.17329523433E+03 0.  0.
        -24    2    3    3    0    0 -0.21335115263E+02 -0.19759920145E+02 -0.22844734383E+03  0.24490415830E+03  0.83331964227E+02 0.  0.
          6    2    1    2  501    0 -0.50127161628E+02 -0.25757582431E+02 -0.15479141998E+03  0.23939420940E+03  0.17370382381E+03 0.  0.
         24    2    5    5    0    0  0.41869538370E+01  0.26388152632E+02 -0.30389365657E+02  0.93904821660E+02  0.84739228249E+02 0.  0.
          5    1    5    5  501    0 -0.54314115465E+02 -0.52145735064E+02 -0.12440205433E+03  0.14548938774E+03  0.47000000000E+01 0. -1.
        -13    1    6    6    0    0 -0.63154828922E+01 -0.30074299545E+02 -0.16235808662E+02  0.34755579410E+02  0.00000000000E+00 0.  1.
         14    1    6    6    0    0  0.10502436729E+02  0.56462452177E+02 -0.14153556995E+02  0.59149242249E+02  0.00000000000E+00 0. -1.
         -5    1    3    3    0  503  0.71462276891E+02  0.45517502576E+02 -0.10414881051E+03  0.13434196957E+03  0.47000000000E+01 0.  1.
         11    1    4    4    0    0  0.20179893235E+02 -0.36028744077E+02 -0.13827770440E+03  0.14431223796E+03  0.00000000000E+00 0. -1.
        -12    1    4    4    0    0 -0.41515008498E+02  0.16268823932E+02 -0.90169639429E+02  0.10059192034E+03  0.00000000000E+00 0.  1.
<mgrwt>
<rscale>  2 0.18252042E+03</rscale>
<asrwt>0</asrwt>
<pdfrwt beam="1">  1       21 0.10096367E-01 0.18261764E+03</pdfrwt>
<pdfrwt beam="2">  1       21 0.85079067E-01 0.18261764E+03</pdfrwt>
<totfact> 0.95780863E+04</totfact>
</mgrwt>
</event>
<event>
12    1  0.1013215E-001  0.2250326E+03  0.7546771E-02  0.1130976E+00
         21   -1    0    0  501  502  0.00000000000E+00  0.00000000000E+00  0.15760818999E+04  0.15760818999E+04  0.00000000000E+00 0.  1.
         21   -1    0    0  502  503 -0.00000000000E+00 -0.00000000000E+00 -0.35374605480E+02  0.35374605480E+02  0.00000000000E+00 0. -1.
         -6    2    1    2    0  503 -0.88792350701E+02 -0.10597905077E+03  0.10431158697E+04  0.10671131010E+04  0.17755002690E+03 0.  0.
        -24    2    3    3    0    0 -0.38511321938E+02 -0.13877977959E+03  0.76931867993E+03  0.78677212867E+03  0.80101198623E+02 0.  0.
          6    2    1    2  501    0  0.88792350701E+02  0.10597905077E+03  0.49759142477E+03  0.54434340439E+03  0.17203742369E+03 0.  0.
         24    2    5    5    0    0 -0.73973904472E+01  0.41386601682E+02  0.12844106076E+03  0.15740835554E+03  0.80701376189E+02 0.  0.
          5    1    5    5  501    0  0.96189741148E+02  0.64592449088E+02  0.36915036401E+03  0.38693504885E+03  0.47000000000E+01 0. -1.
        -13    1    6    6    0    0  0.47875691740E+01  0.25581478961E+02  0.13414983949E+03  0.13665106044E+03  0.00000000000E+00 0.  1.
         14    1    6    6    0    0 -0.12184959621E+02  0.15805122721E+02 -0.57087787261E+01  0.20757295097E+02  0.00000000000E+00 0. -1.
         -5    1    3    3    0  503 -0.50281028762E+02  0.32800728823E+02  0.27379718974E+03  0.28034097234E+03  0.47000000000E+01 0.  1.
         13    1    4    4    0    0 -0.60304557282E+00 -0.23178552681E+02  0.32188442943E+02  0.39669948669E+02  0.00000000000E+00 0. -1.
        -14    1    4    4    0    0 -0.37908276366E+02 -0.11560122691E+03  0.73713023698E+03  0.74710218000E+03  0.00000000000E+00 0.  1.
<mgrwt>
<rscale>  2 0.22394382E+03</rscale>
<asrwt>0</asrwt>
<pdfrwt beam="1">  1       21 0.24247408E+00 0.22503256E+03</pdfrwt>
<pdfrwt beam="2">  1       21 0.54422482E-02 0.22503256E+03</pdfrwt>
<totfact> 0.16699401E+04</totfact>
</mgrwt>
</event>
<event>
12    1  0.1013215E-001  0.1819175E+03  0.7546771E-02  0.1167824E+00
         21   -1    0    0  501  502  0.00000000000E+00  0.00000000000E+00  0.72767120223E+02  0.72767120223E+02  0.00000000000E+00 0.  1.
         21   -1    0    0  502  503 -0.00000000000E+00 -0.00000000000E+00 -0.46892414647E+03  0.46892414647E+03  0.00000000000E+00 0.  1.
         -6    2    1    2    0  503  0.11170146246E+02  0.48452672201E+02 -0.26598589661E+03  0.31799843358E+03  0.16703913600E+03 0.  0.
        -24    2    3    3    0    0  0.42770239430E+00 -0.38503591772E+02 -0.80177114087E+02  0.11251416264E+03  0.68908327960E+02 0.  0.
          6    2    1    2  501    0 -0.11170146246E+02 -0.48452672201E+02 -0.13017112964E+03  0.22369283310E+03  0.17499007681E+03 0.  0.
         24    2    5    5    0    0 -0.32370646468E+02 -0.91427088019E+02 -0.12046979339E+03  0.17457595668E+03  0.80975442924E+02 0.  0.
          5    1    5    5  501    0  0.21200500222E+02  0.42974415817E+02 -0.97013362503E+01  0.49116876423E+02  0.47000000000E+01 0. -1.
        -13    1    6    6    0    0  0.14575139012E+02 -0.62139760800E+02 -0.35094926615E+02  0.72838440563E+02  0.00000000000E+00 0.  1.
         14    1    6    6    0    0 -0.46945785480E+02 -0.29287327218E+02 -0.85374866771E+02  0.10173751612E+03  0.00000000000E+00 0. -1.
         -5    1    3    3    0  503  0.10742443851E+02  0.86956263974E+02 -0.18580878252E+03  0.20548427095E+03  0.47000000000E+01 0.  1.
         13    1    4    4    0    0  0.27842074720E+02  0.40718445772E+01 -0.32125048600E+02  0.42705734867E+02  0.00000000000E+00 0. -1.
        -14    1    4    4    0    0 -0.27414372326E+02 -0.42575436350E+02 -0.48052065488E+02  0.69808427772E+02  0.00000000000E+00 0.  1.
<mgrwt>
<rscale>  2 0.17997800E+03</rscale>
<asrwt>0</asrwt>
<pdfrwt beam="1">  1       21 0.11194941E-01 0.18191746E+03</pdfrwt>
<pdfrwt beam="2">  1       21 0.72142180E-01 0.18191746E+03</pdfrwt>
<totfact> 0.11560135E+05</totfact>
</mgrwt>
</event>
<event>
12    1  0.1013215E-001  0.2324161E+03  0.7546771E-02  0.1124968E+00
         21   -1    0    0  501  502  0.00000000000E+00  0.00000000000E+00  0.12664409411E+03  0.12664409411E+03  0.00000000000E+00 0. -1.
         21   -1    0    0  502  503 -0.00000000000E+00 -0.00000000000E+00 -0.62699472186E+03  0.62699472186E+03  0.00000000000E+00 0. -1.
         -6    2    1    2    0  503  0.18873886393E+02 -0.15365948093E+03 -0.46330516868E+03  0.51828881793E+03  0.17321708863E+03 0.  0.
        -24    2    3    3    0    0 -0.46012913747E+02 -0.95232490168E+02 -0.20645517255E+03  0.24696240824E+03  0.84736517486E+02 0.  0.
          6    2    1    2  501    0 -0.18873886393E+02  0.15365948093E+03 -0.37045459067E+02  0.23534999803E+03  0.17334876945E+03 0.  0.
         24    2    5    5    0    0  0.22814823882E+02  0.16891738462E+03 -0.35156757271E+02  0.19066880082E+03  0.77878077842E+02 0.  0.
          5    1    5    5  501    0 -0.41688710275E+02 -0.15257903693E+02 -0.18887017959E+01  0.44681197209E+02  0.47000000000E+01 0. -1.
        -13    1    6    6    0    0  0.12882289321E+02 -0.16297825558E+01 -0.13047721257E+02  0.18407949352E+02  0.00000000000E+00 0.  1.
         14    1    6    6    0    0  0.99325345608E+01  0.17054716718E+03 -0.22109036014E+02  0.17226085147E+03  0.00000000000E+00 0. -1.
         -5    1    3    3    0  503  0.64886800140E+02 -0.58426990764E+02 -0.25684999613E+03  0.27132640969E+03  0.47000000000E+01 0.  1.
         11    1    4    4    0    0 -0.37013068717E+02 -0.55411923268E+02 -0.19267777401E+03  0.20387538619E+03  0.00000000000E+00 0. -1.
        -12    1    4    4    0    0 -0.89998450299E+01 -0.39820566900E+02 -0.13777398543E+02  0.43087022053E+02  0.00000000000E+00 0.  1.
<mgrwt>
<rscale>  2 0.23239157E+03</rscale>
<asrwt>0</asrwt>
<pdfrwt beam="1">  1       21 0.19483707E-01 0.23241613E+03</pdfrwt>
<pdfrwt beam="2">  1       21 0.96460727E-01 0.23241613E+03</pdfrwt>
<totfact> 0.21170445E+04</totfact>
</mgrwt>
</event>
<event>
12    1  0.1013215E-001  0.1897489E+03  0.7546771E-02  0.1159116E+00
         21   -1    0    0  503  502  0.00000000000E+00  0.00000000000E+00  0.15199690620E+03  0.15199690620E+03  0.00000000000E+00 0. -1.
         21   -1    0    0  501  503 -0.00000000000E+00 -0.00000000000E+00 -0.23810703596E+03  0.23810703596E+03  0.00000000000E+00 0.  1.
          6    2    1    2  501    0 -0.71925078668E+02 -0.10804145136E+02 -0.19362422674E+02  0.19073424816E+03  0.17525610836E+03 0.  0.
         24    2    3    3    0    0  0.10071284123E+02  0.37981044892E+02  0.12067122140E+02  0.90169321057E+02  0.80255220940E+02 0.  0.
         -6    2    1    2    0  502  0.71925078668E+02  0.10804145136E+02 -0.66747707093E+02  0.19936969399E+03  0.17321394859E+03 0.  0.
        -24    2    5    5    0    0 -0.74178684754E+01 -0.32108261930E+02 -0.13755661416E+01  0.87869089717E+02  0.81443965330E+02 0.  0.
          5    1    3    3  501    0 -0.81996362791E+02 -0.48785190028E+02 -0.31429544814E+02  0.10056492711E+03  0.47000000000E+01 0. -1.
        -11    1    4    4    0    0 -0.19817005537E+02  0.56120508433E+01 -0.25142183528E+02  0.32501357136E+02  0.00000000000E+00 0.  1.
         12    1    4    4    0    0  0.29888289659E+02  0.32368994048E+02  0.37209305668E+02  0.57667963921E+02  0.00000000000E+00 0. -1.
         -5    1    5    5    0  502  0.79342947144E+02  0.42912407066E+02 -0.65372140951E+02  0.11150060428E+03  0.47000000000E+01 0.  1.
         13    1    6    6    0    0 -0.35303268296E+02 -0.18363191777E+02  0.25088217579E+02  0.47041962394E+02  0.00000000000E+00 0. -1.
        -14    1    6    6    0    0  0.27885399820E+02 -0.13745070153E+02 -0.26463783720E+02  0.40827127323E+02  0.00000000000E+00 0.  1.
<mgrwt>
<rscale>  2 0.18927601E+03</rscale>
<asrwt>0</asrwt>
<pdfrwt beam="1">  1       21 0.23384140E-01 0.18974891E+03</pdfrwt>
<pdfrwt beam="2">  1       21 0.36631851E-01 0.18974891E+03</pdfrwt>
<totfact> 0.12374480E+05</totfact>
</mgrwt>
</event>
<event>
12    1  0.1013215E-001  0.2007745E+03  0.7546771E-02  0.1149178E+00
         21   -1    0    0  501  502  0.00000000000E+00  0.00000000000E+00  0.13602864870E+03  0.13602864870E+03  0.00000000000E+00 0.  1.
         21   -1    0    0  502  503 -0.00000000000E+00 -0.00000000000E+00 -0.29668765891E+03  0.29668765891E+03  0.00000000000E+00 0.  1.
         -6    2    1    2    0  503 -0.55108904831E+02 -0.86994010344E+02 -0.67924480234E+02  0.21195318699E+03  0.17235274652E+03 0.  0.
        -24    2    3    3    0    0  0.17395912735E+02 -0.37519797061E+02 -0.83255615239E+02  0.12272437970E+03  0.80121301484E+02 0.  0.
          6    2    1    2  501    0  0.55108904831E+02  0.86994010344E+02 -0.92734529970E+02  0.22076312062E+03  0.17184793612E+03 0.  0.
         24    2    5    5    0    0  0.10086060257E+03  0.49113600526E+02 -0.46360565733E+02  0.14525962499E+03  0.79787528403E+02 0.  0.
          5    1    5    5  501    0 -0.45751697738E+02  0.37880409817E+02 -0.46373964238E+02  0.75503495634E+02  0.47000000000E+01 0. -1.
        -11    1    6    6    0    0  0.22039625359E+02  0.12975864743E+02  0.22864181186E+02  0.34305814859E+02  0.00000000000E+00 0.  1.
         12    1    6    6    0    0  0.78820977209E+02  0.36137735783E+02 -0.69224746918E+02  0.11095381013E+03  0.00000000000E+00 0. -1.
         -5    1    3    3    0  503 -0.72504817566E+02 -0.49474213282E+02  0.15331135005E+02  0.89228807292E+02  0.47000000000E+01 0.  1.
         11    1    4    4    0    0  0.45375956905E+02 -0.41622216897E+02 -0.52207757208E+02  0.80728163097E+02  0.00000000000E+00 0. -1.
        -12    1    4    4    0    0 -0.27980044170E+02  0.41024198358E+01 -0.31047858031E+02  0.41996216598E+02  0.00000000000E+00 0.  1.
<mgrwt>
<rscale>  2 0.20066616E+03</rscale>
<asrwt>0</asrwt>
<pdfrwt beam="1">  1       21 0.20927485E-01 0.20077455E+03</pdfrwt>
<pdfrwt beam="2">  1       21 0.45644255E-01 0.20077455E+03</pdfrwt>
<totfact> 0.97267523E+04</totfact>
</mgrwt>
</event>
<event>
12    1  0.1013215E-001  0.2078432E+03  0.7546771E-02  0.1147734E+00
         21   -1    0    0  503  502  0.00000000000E+00  0.00000000000E+00  0.12010353071E+04  0.12010353071E+04  0.00000000000E+00 0.  1.
         21   -1    0    0  501  503 -0.00000000000E+00 -0.00000000000E+00 -0.58615990080E+02  0.58615990080E+02  0.00000000000E+00 0.  1.
          6    2    1    2  501    0 -0.27503025366E+02 -0.68854738850E+02  0.13382735108E+03  0.22986657744E+03  0.17155609013E+03 0.  0.
         24    2    3    3    0    0 -0.32219073376E+02 -0.79370403902E+02  0.16121434545E+03  0.19978406125E+03  0.81153411786E+02 0.  0.
         -6    2    1    2    0  502  0.27503025366E+02  0.68854738850E+02  0.10085919659E+04  0.10297847197E+04  0.19416854480E+03 0.  0.
        -24    2    5    5    0    0 -0.43113968690E+01  0.65760765143E+01  0.15857667778E+03  0.17688445045E+03  0.77972515362E+02 0.  0.
          5    1    3    3  501    0  0.47160480094E+01  0.10515665052E+02 -0.27386994365E+02  0.30082516196E+02  0.47000000000E+01 0. -1.
        -13    1    4    4    0    0 -0.43887933028E+02 -0.83667394453E+02  0.10101056234E+03  0.13830949810E+03  0.00000000000E+00 0.  1.
         14    1    4    4    0    0  0.11668859652E+02  0.42969905509E+01  0.60203783113E+02  0.61474563150E+02  0.00000000000E+00 0. -1.
         -5    1    5    5    0  502  0.31814422235E+02  0.62278662336E+02  0.85001528813E+03  0.85290026926E+03  0.47000000000E+01 0.  1.
         11    1    6    6    0    0 -0.24850629336E+02  0.34698590212E+02  0.10017956554E+03  0.10889210850E+03  0.00000000000E+00 0. -1.
        -12    1    6    6    0    0  0.20539232467E+02 -0.28122513698E+02  0.58397112234E+02  0.67992341954E+02  0.00000000000E+00 0.  1.
<mgrwt>
<rscale>  2 0.20239512E+03</rscale>
<asrwt>0</asrwt>
<pdfrwt beam="1">  1       21 0.18477464E+00 0.20784325E+03</pdfrwt>
<pdfrwt beam="2">  1       21 0.90178455E-02 0.20784325E+03</pdfrwt>
<totfact> 0.16260368E+04</totfact>
</mgrwt>
</event>
<event>
12    1  0.1013215E-001  0.1744169E+03  0.7546771E-02  0.1173766E+00
         21   -1    0    0  501  502  0.00000000000E+00  0.00000000000E+00  0.18896877245E+03  0.18896877245E+03  0.00000000000E+00 0.  1.
         21   -1    0    0  502  503 -0.00000000000E+00 -0.00000000000E+00 -0.17252460099E+03  0.17252460099E+03  0.00000000000E+00 0.  1.
         -6    2    1    2    0  503  0.63887874323E+01 -0.17451849091E+02 -0.41740823795E+02  0.17762726225E+03  0.17165012170E+03 0.  0.
        -24    2    3    3    0    0  0.45138050945E+02  0.23365434215E+02  0.17020298380E+02  0.96125633314E+02  0.79793857307E+02 0.  0.
          6    2    1    2  501    0 -0.63887874323E+01  0.17451849091E+02  0.58184995257E+02  0.18386611119E+03  0.17342395893E+03 0.  0.
         24    2    5    5    0    0 -0.54919779995E+02  0.41150144493E+02  0.73913762060E+02  0.12741834286E+03  0.77863170047E+02 0.  0.
          5    1    5    5  501    0  0.48530992562E+02 -0.23698295402E+02 -0.15728766804E+02  0.56447768328E+02  0.47000000000E+01 0. -1.
        -11    1    6    6    0    0  0.66272991466E+01  0.40868077225E+01  0.51605274771E+02  0.52189342548E+02  0.00000000000E+00 0.  1.
         12    1    6    6    0    0 -0.61547079141E+02  0.37063336771E+02  0.22308487289E+02  0.75229000316E+02  0.00000000000E+00 0. -1.
         -5    1    3    3    0  503 -0.38749263513E+02 -0.40817283306E+02 -0.58761122175E+02  0.81501628932E+02  0.47000000000E+01 0.  1.
         13    1    4    4    0    0 -0.13135621781E+02  0.23596130148E+02 -0.13664823905E+02  0.30266306843E+02  0.00000000000E+00 0. -1.
        -14    1    4    4    0    0  0.58273672726E+02 -0.23069593313E+00  0.30685122285E+02  0.65859326471E+02  0.00000000000E+00 0.  1.
<mgrwt>
<rscale>  2 0.17397430E+03</rscale>
<asrwt>0</asrwt>
<pdfrwt beam="1">  1       21 0.29072119E-01 0.17441689E+03</pdfrwt>
<pdfrwt beam="2">  1       21 0.26542247E-01 0.17441689E+03</pdfrwt>
<totfact> 0.15389222E+05</totfact>
</mgrwt>
</event>
<event>
12    1  0.1013215E-001  0.2277822E+03  0.7546771E-02  0.1128621E+00
         21   -1    0    0  503  502  0.00000000000E+00  0.00000000000E+00  0.67659105537E+03  0.67659105537E+03  0.00000000000E+00 0.  1.
         21   -1    0    0  501  503 -0.00000000000E+00 -0.00000000000E+00 -0.15110064249E+03  0.15110064249E+03  0.00000000000E+00 0. -1.
          6    2    1    2  501    0 -0.97342895534E+02  0.10784181960E+03 -0.29846176025E+02  0.22745551988E+03  0.17245208592E+03 0.  0.
         24    2    3    3    0    0 -0.40051997354E+02 -0.13480461857E+02 -0.49789516462E+01  0.90920499320E+02  0.80348378285E+02 0.  0.
         -6    2    1    2    0  502  0.97342895534E+02 -0.10784181960E+03  0.55533658890E+03  0.60023617797E+03  0.17544014651E+03 0.  0.
        -24    2    5    5    0    0  0.52495000194E+02 -0.86700730477E+02  0.52726692915E+03  0.54306734762E+03  0.81479983807E+02 0.  0.
          5    1    3    3  501    0 -0.57290898180E+02  0.12132228146E+03 -0.24867224379E+02  0.13653502056E+03  0.47000000000E+01 0. -1.
        -13    1    4    4    0    0  0.15114075971E+02  0.15044733966E+02  0.14551718110E+02  0.25817277403E+02  0.00000000000E+00 0.  1.
         14    1    4    4    0    0 -0.55166073325E+02 -0.28525195823E+02 -0.19530669756E+02  0.65103221917E+02  0.00000000000E+00 0. -1.
         -5    1    5    5    0  502  0.44847895340E+02 -0.21141089123E+02  0.28069659753E+02  0.57168830357E+02  0.47000000000E+01 0.  1.
         13    1    6    6    0    0  0.49836537447E+02 -0.82482131801E+02  0.28697507984E+03  0.30272376679E+03  0.00000000000E+00 0. -1.
        -14    1    6    6    0    0  0.26584627472E+01 -0.42185986760E+01  0.24029184931E+03  0.24034358083E+03  0.00000000000E+00 0.  1.
<mgrwt>
<rscale>  2 0.22720670E+03</rscale>
<asrwt>0</asrwt>
<pdfrwt beam="1">  1       21 0.10409093E+00 0.22778223E+03</pdfrwt>
<pdfrwt beam="2">  1       21 0.23246253E-01 0.22778223E+03</pdfrwt>
<totfact> 0.12684454E+04</totfact>
</mgrwt>
</event>
<event>
12    1  0.1013215E-001  0.1859273E+03  0.7546771E-02  0.1162481E+00
         21   -1    0    0  501  502  0.00000000000E+00  0.00000000000E+00  0.16337165172E+04  0.16337165172E+04  0.00000000000E+00 0. -1.
         21   -1    0    0  502  503 -0.00000000000E+00 -0.00000000000E+00 -0.21176897027E+02  0.21176897027E+02  0.00000000000E+00 0. -1.
         -6    2    1    2    0  503 -0.14196109816E+02  0.62717756749E+02  0.87564775437E+03  0.89490751667E+03  0.17310524864E+03 0.  0.
        -24    2    3    3    0    0  0.39409055885E+02  0.25502455028E+02  0.27015544335E+03  0.28589066864E+03  0.80907737251E+02 0.  0.
          6    2    1    2  501    0  0.14196109816E+02 -0.62717756749E+02  0.73689186578E+03  0.75998589754E+03  0.17445313427E+03 0.  0.
         24    2    5    5    0    0 -0.38402676922E+02 -0.11104935007E+02  0.21618296493E+03  0.23406730577E+03  0.80338932851E+02 0.  0.
          5    1    5    5  501    0  0.52598786738E+02 -0.51612821742E+02  0.52070890085E+03  0.52591859176E+03  0.47000000000E+01 0. -1.
        -13    1    6    6    0    0  0.48457389871E+01  0.29520186222E+02  0.84305078655E+02  0.89455401558E+02  0.00000000000E+00 0.  1.
         14    1    6    6    0    0 -0.43248415909E+02 -0.40625121229E+02  0.13187788627E+03  0.14461190422E+03  0.00000000000E+00 0. -1.
         -5    1    3    3    0  503 -0.53605165701E+02  0.37215301722E+02  0.60549231102E+03  0.60901684802E+03  0.47000000000E+01 0.  1.
         11    1    4    4    0    0 -0.12300049409E+02  0.33524976282E+02  0.64962442645E+02  0.74130521410E+02  0.00000000000E+00 0. -1.
        -12    1    4    4    0    0  0.51709105294E+02 -0.80225212540E+01  0.20519300071E+03  0.21176014723E+03  0.00000000000E+00 0.  1.
<mgrwt>
<rscale>  2 0.18561041E+03</rscale>
<asrwt>0</asrwt>
<pdfrwt beam="1">  1       21 0.25134090E+00 0.18592725E+03</pdfrwt>
<pdfrwt beam="2">  1       21 0.32579855E-02 0.18592725E+03</pdfrwt>
<totfact> 0.36233052E+04</totfact>
</mgrwt>
</event>
<event>
12    1  0.1013215E-001  0.2661247E+03  0.7546771E-02  0.1103652E+00
         21   -1    0    0  501  502  0.00000000000E+00  0.00000000000E+00  0.31993902507E+03  0.31993902507E+03  0.00000000000E+00 0. -1.
         21   -1    0    0  502  503 -0.00000000000E+00 -0.00000000000E+00 -0.41496245965E+03  0.41496245965E+03  0.00000000000E+00 0.  1.
         -6    2    1    2    0  503  0.12674064563E+03 -0.15666719735E+03 -0.29894695425E+03  0.39962975330E+03  0.17241477979E+03 0.  0.
        -24    2    3    3    0    0  0.12609115404E+03 -0.78863364122E+02 -0.12996721801E+03  0.21353811039E+03  0.81170422587E+02 0.  0.
          6    2    1    2  501    0 -0.12674064563E+03  0.15666719735E+03  0.20392351967E+03  0.33527173142E+03  0.17382327243E+03 0.  0.
         24    2    5    5    0    0 -0.30990026380E+02  0.14436709205E+03  0.11167914863E+03  0.20166564000E+03  0.79965987247E+02 0.  0.
          5    1    5    5  501    0 -0.95750619249E+02  0.12300105301E+02  0.92244371039E+02  0.13360609142E+03  0.47000000000E+01 0. -1.
        -11    1    6    6    0    0  0.10971577976E+02  0.10730491859E+03  0.51689348578E+02  0.11960982332E+03  0.00000000000E+00 0.  1.
         12    1    6    6    0    0 -0.41961604357E+02  0.37062173458E+02  0.59989800050E+02  0.82055816684E+02  0.00000000000E+00 0. -1.
         -5    1    3    3    0  503  0.64949159083E+00 -0.77803833229E+02 -0.16897973624E+03  0.18609164292E+03  0.47000000000E+01 0.  1.
         13    1    4    4    0    0  0.11127523807E+03 -0.76932069701E+02 -0.71143926692E+02  0.15284691773E+03  0.00000000000E+00 0. -1.
        -14    1    4    4    0    0  0.14815915970E+02 -0.19312944216E+01 -0.58823291317E+02  0.60691192652E+02  0.00000000000E+00 0.  1.
<mgrwt>
<rscale>  2 0.26589490E+03</rscale>
<asrwt>0</asrwt>
<pdfrwt beam="1">  1       21 0.49221389E-01 0.26612466E+03</pdfrwt>
<pdfrwt beam="2">  1       21 0.63840378E-01 0.26612466E+03</pdfrwt>
<totfact> 0.85260882E+03</totfact>
</mgrwt>
</event>
<event>
12    1  0.1013215E-001  0.1774545E+03  0.7546771E-02  0.1170357E+00
         21   -1    0    0  503  502  0.00000000000E+00  0.00000000000E+00  0.11821972361E+04  0.11821972361E+04  0.00000000000E+00 0.  1.
         21   -1    0    0  501  503 -0.00000000000E+00 -0.00000000000E+00 -0.31251064878E+02  0.31251064878E+02  0.00000000000E+00 0.  1.
          6    2    1    2  501    0 -0.24515746086E+02 -0.32411896155E+02  0.34093829251E+03  0.38423008223E+03  0.17245951402E+03 0.  0.
         24    2    3    3    0    0 -0.10455800323E+02  0.44077326092E+02  0.13407693870E+03  0.16318259210E+03  0.81239143504E+02 0.  0.
         -6    2    1    2    0  502  0.24515746086E+02  0.32411896155E+02  0.81000787868E+03  0.82921821871E+03  0.17273835099E+03 0.  0.
        -24    2    5    5    0    0  0.26430040957E+02  0.41886000340E+02  0.81269381759E+03  0.81813997685E+03  0.80179776005E+02 0.  0.
          5    1    3    3  501    0 -0.14059945763E+02 -0.76489222247E+02  0.20686135380E+03  0.22104749013E+03  0.47000000000E+01 0. -1.
        -13    1    4    4    0    0  0.52823788359E+00 -0.13241434237E+02 -0.35273939251E+01  0.13713392134E+02  0.00000000000E+00 0.  1.
         14    1    4    4    0    0 -0.10984038206E+02  0.57318760329E+02  0.13760433263E+03  0.14946919997E+03  0.00000000000E+00 0. -1.
         -5    1    5    5    0  502 -0.19142948710E+01 -0.94741041851E+01 -0.26859389098E+01  0.11078241864E+02  0.47000000000E+01 0.  1.
         13    1    6    6    0    0 -0.15036725288E+02  0.44295134405E+02  0.28494437023E+03  0.28875847375E+03  0.00000000000E+00 0. -1.
        -14    1    6    6    0    0  0.41466766245E+02 -0.24091340653E+01  0.52774944736E+03  0.52938150310E+03  0.00000000000E+00 0.  1.
<mgrwt>
<rscale>  2 0.17738658E+03</rscale>
<asrwt>0</asrwt>
<pdfrwt beam="1">  1       21 0.18187646E+00 0.17745448E+03</pdfrwt>
<pdfrwt beam="2">  1       21 0.48078570E-02 0.17745448E+03</pdfrwt>
<totfact> 0.51275067E+04</totfact>
</mgrwt>
</event>
<event>
12    1  0.1013215E-001  0.2083766E+03  0.7546771E-02  0.1142964E+00
         21   -1    0    0  501  502  0.00000000000E+00  0.00000000000E+00  0.11477485024E+04  0.11477485024E+04  0.00000000000E+00 0. -1.
         21   -1    0    0  502  503 -0.00000000000E+00 -0.00000000000E+00 -0.45680829598E+02  0.45680829598E+02  0.00000000000E+00 0. -1.
         -6    2    1    2    0  503  0.11271247143E+03  0.27257635566E+02  0.80048440322E+03  0.82716146117E+03  0.17312920936E+03 0.  0.
        -24    2    3    3    0    0  0.10909878327E+03 -0.32882786871E+02  0.43661748558E+03  0.45831033551E+03  0.80185489537E+02 0.  0.
          6    2    1    2  501    0 -0.11271247143E+03 -0.27257635566E+02  0.30158326955E+03  0.36626787080E+03  0.17248943386E+03 0.  0.
         24    2    5    5    0    0 -0.11940186938E+03 -0.71896963899E+02  0.24836027652E+03  0.29632364540E+03  0.81846783937E+02 0.  0.
          5    1    5    5  501    0  0.66893979522E+01  0.44639328333E+02  0.53222993027E+02  0.69944225392E+02  0.47000000000E+01 0. -1.
        -11    1    6    6    0    0 -0.55131836228E+02 -0.57835990706E+02  0.70043537413E+02  0.10625732125E+03  0.00000000000E+00 0.  1.
         12    1    6    6    0    0 -0.64270033155E+02 -0.14060973193E+02  0.17831673911E+03  0.19006632415E+03  0.00000000000E+00 0. -1.
         -5    1    3    3    0  503  0.36136881641E+01  0.60140422437E+02  0.36386691764E+03  0.36885112566E+03  0.47000000000E+01 0.  1.
         13    1    4    4    0    0  0.76757555601E+02 -0.93458597696E+00  0.36853949275E+03  0.37644913801E+03  0.00000000000E+00 0. -1.
        -14    1    4    4    0    0  0.32341227666E+02 -0.31948200894E+02  0.68077992839E+02  0.81861197501E+02  0.00000000000E+00 0.  1.
<mgrwt>
<rscale>  2 0.20824365E+03</rscale>
<asrwt>0</asrwt>
<pdfrwt beam="1">  1       21 0.17657667E+00 0.20837659E+03</pdfrwt>
<pdfrwt beam="2">  1       21 0.70278208E-02 0.20837659E+03</pdfrwt>
<totfact> 0.28550677E+04</totfact>
</mgrwt>
</event>
<event>
12    1  0.1013215E-001  0.2304198E+03  0.7546771E-02  0.1126559E+00
         21   -1    0    0  501  502  0.00000000000E+00  0.00000000000E+00  0.33750188162E+03  0.33750188162E+03  0.00000000000E+00 0. -1.
         21   -1    0    0  502  503 -0.00000000000E+00 -0.00000000000E+00 -0.25860475727E+03  0.25860475727E+03  0.00000000000E+00 0.  1.
         -6    2    1    2    0  503 -0.14569828162E+03  0.38062037093E+02 -0.14791333531E+03  0.27278597291E+03  0.17279214195E+03 0.  0.
        -24    2    3    3    0    0 -0.31122115117E+02  0.60020976997E+02 -0.31459126446E+02  0.10788125577E+03  0.77958867237E+02 0.  0.
          6    2    1    2  501    0  0.14569828162E+03 -0.38062037093E+02  0.22681045966E+03  0.32332066598E+03  0.17440344177E+03 0.  0.
         24    2    5    5    0    0  0.10511605204E+03 -0.23173611629E+02  0.24145220806E+03  0.27743980540E+03  0.84185961837E+02 0.  0.
          5    1    5    5  501    0  0.40582229584E+02 -0.14888425463E+02 -0.14641748406E+02  0.45880860576E+02  0.47000000000E+01 0. -1.
        -13    1    6    6    0    0  0.58206739113E+02 -0.16910342828E+02  0.45331068047E+02  0.75689430590E+02  0.00000000000E+00 0.  1.
         14    1    6    6    0    0  0.46909312923E+02 -0.62632688010E+01  0.19612114002E+03  0.20175037481E+03  0.00000000000E+00 0. -1.
         -5    1    3    3    0  503 -0.11457616650E+03 -0.21958939904E+02 -0.11645420886E+03  0.16490471714E+03  0.47000000000E+01 0.  1.
         13    1    4    4    0    0 -0.25096867665E+01 -0.77584931835E+01  0.17638250071E+02  0.19431948171E+02  0.00000000000E+00 0. -1.
        -14    1    4    4    0    0 -0.28612428351E+02  0.67779470181E+02 -0.49097376517E+02  0.88449307600E+02  0.00000000000E+00 0.  1.
<mgrwt>
<rscale>  2 0.23011487E+03</rscale>
<asrwt>0</asrwt>
<pdfrwt beam="1">  1       21 0.51923366E-01 0.23041977E+03</pdfrwt>
<pdfrwt beam="2">  1       21 0.39785347E-01 0.23041977E+03</pdfrwt>
<totfact> 0.20990063E+04</totfact>
</mgrwt>
</event>
<event>
12    1  0.1013215E-001  0.2340034E+03  0.7546771E-02  0.1123858E+00
         21   -1    0    0  503  502  0.00000000000E+00  0.00000000000E+00  0.12528261396E+04  0.12528261396E+04  0.00000000000E+00 0. -1.
         21   -1    0    0  501  503 -0.00000000000E+00 -0.00000000000E+00 -0.44182055625E+02  0.44182055625E+02  0.00000000000E+00 0. -1.
          6    2    1    2  501    0  0.61763101129E+02  0.14514946847E+03  0.67185153910E+03  0.71142829528E+03  0.17280821706E+03 0.  0.
         24    2    3    3    0    0  0.10403356315E+02  0.21321348904E+02  0.14157469601E+03  0.16444854530E+03  0.80231538424E+02 0.  0.
         -6    2    1    2    0  502 -0.61763101129E+02 -0.14514946847E+03  0.53679254488E+03  0.58557989995E+03  0.17284251249E+03 0.  0.
        -24    2    5    5    0    0 -0.53482004822E+02 -0.16384795764E+03  0.35537045328E+03  0.40294837097E+03  0.79829521765E+02 0.  0.
          5    1    3    3  501    0  0.51359744813E+02  0.12382811956E+03  0.53027684308E+03  0.54697974998E+03  0.47000000000E+01 0. -1.
        -13    1    4    4    0    0  0.37931364129E+02 -0.10767084405E+02  0.86104902070E+02  0.94703604217E+02  0.00000000000E+00 0.  1.
         14    1    4    4    0    0 -0.27528007813E+02  0.32088433309E+02  0.55469793945E+02  0.69744941083E+02  0.00000000000E+00 0. -1.
         -5    1    5    5    0  502 -0.82810963062E+01  0.18698489170E+02  0.18142209161E+03  0.18263152898E+03  0.47000000000E+01 0.  1.
         11    1    6    6    0    0  0.19265268757E+02 -0.19120758166E+02  0.65267765222E+02  0.70686881033E+02  0.00000000000E+00 0. -1.
        -12    1    6    6    0    0 -0.72747273579E+02 -0.14472719947E+03  0.29010268805E+03  0.33226148994E+03  0.00000000000E+00 0.  1.
<mgrwt>
<rscale>  2 0.23399705E+03</rscale>
<asrwt>0</asrwt>
<pdfrwt beam="1">  1       21 0.19274246E+00 0.23400338E+03</pdfrwt>
<pdfrwt beam="2">  1       21 0.67972403E-02 0.23400338E+03</pdfrwt>
<totfact> 0.23147229E+04</totfact>
</mgrwt>
</event>
<event>
12    1  0.1013215E-001  0.1806909E+03  0.7546771E-02  0.1167664E+00
         21   -1    0    0  503  502  0.00000000000E+00  0.00000000000E+00  0.13343675906E+03  0.13343675906E+03  0.00000000000E+00 0. -1.
         21   -1    0    0  501  503 -0.00000000000E+00 -0.00000000000E+00 -0.24755188529E+03  0.24755188529E+03  0.00000000000E+00 0. -1.
          6    2    1    2  501    0 -0.22771136878E+02 -0.43478388829E+02 -0.86589368021E+02  0.20036694653E+03  0.17389738249E+03 0.  0.
         24    2    3    3    0    0  0.46602384539E+02 -0.58489484940E+02 -0.61611604926E+02  0.12497465827E+03  0.78929546146E+02 0.  0.
         -6    2    1    2    0  502  0.22771136878E+02  0.43478388829E+02 -0.27525758210E+02  0.18062169782E+03  0.17163226791E+03 0.  0.
        -24    2    5    5    0    0 -0.38088262748E+02  0.18770486098E+02  0.27769907531E+02  0.94633049558E+02  0.79882409809E+02 0.  0.
          5    1    3    3  501    0 -0.69373521416E+02  0.15011096111E+02 -0.24977763096E+02  0.75392288262E+02  0.47000000000E+01 0. -1.
        -13    1    4    4    0    0 -0.99221592489E+01 -0.30089391497E+02  0.61505574554E+01  0.32274604286E+02  0.00000000000E+00 0.  1.
         14    1    4    4    0    0  0.56524543788E+02 -0.28400093443E+02 -0.67762162381E+02  0.92700053983E+02  0.00000000000E+00 0. -1.
         -5    1    5    5    0  502  0.60859399625E+02  0.24707902732E+02 -0.55295665742E+02  0.85988648262E+02  0.47000000000E+01 0.  1.
         13    1    6    6    0    0  0.58714011044E+00  0.43931755466E+02  0.91527836972E+01  0.44878918450E+02  0.00000000000E+00 0. -1.
        -14    1    6    6    0    0 -0.38675402858E+02 -0.25161269368E+02  0.18617123834E+02  0.49754131108E+02  0.00000000000E+00 0.  1.
<mgrwt>
<rscale>  2 0.18014368E+03</rscale>
<asrwt>0</asrwt>
<pdfrwt beam="1">  1       21 0.20528732E-01 0.18069088E+03</pdfrwt>
<pdfrwt beam="2">  1       21 0.38084905E-01 0.18069088E+03</pdfrwt>
<totfact> 0.14673259E+05</totfact>
</mgrwt>
</event>
<event>
12    1  0.1013215E-001  0.2444670E+03  0.7546771E-02  0.1116858E+00
         21   -1    0    0  503  502  0.00000000000E+00  0.00000000000E+00  0.91601163462E+03  0.91601163462E+03  0.00000000000E+00 0.  1.
         21   -1    0    0  501  503 -0.00000000000E+00 -0.00000000000E+00 -0.16369566411E+03  0.16369566411E+03  0.00000000000E+00 0. -1.
          6    2    1    2  501    0  0.14756883687E+03 -0.89651645819E+02 -0.42537675189E+02  0.24810858141E+03  0.17301570780E+03 0.  0.
         24    2    3    3    0    0  0.95058427780E+02  0.15028011698E+02 -0.45756204720E+01  0.12490800771E+03  0.79492944721E+02 0.  0.
         -6    2    1    2    0  502 -0.14756883687E+03  0.89651645819E+02  0.79485364571E+03  0.83159871732E+03  0.17306105671E+03 0.  0.
        -24    2    5    5    0    0 -0.17602781005E+03  0.90933980904E+02  0.64544869188E+03  0.67942944393E+03  0.75931394263E+02 0.  0.
          5    1    3    3  501    0  0.52510409087E+02 -0.10467965752E+03 -0.37962054717E+02  0.12320057369E+03  0.47000000000E+01 0. -1.
        -13    1    4    4    0    0  0.13582399999E+02  0.23646673043E+01  0.31895717702E+02  0.34747806390E+02  0.00000000000E+00 0.  1.
         14    1    4    4    0    0  0.81476027781E+02  0.12663344394E+02 -0.36471338174E+02  0.90160201322E+02  0.00000000000E+00 0. -1.
         -5    1    5    5    0  502  0.28458973182E+02 -0.12823350847E+01  0.14940495383E+03  0.15216927340E+03  0.47000000000E+01 0.  1.
         13    1    6    6    0    0  0.63192129551E+01  0.75210761219E+00  0.75253649608E+01  0.98554165830E+01  0.00000000000E+00 0. -1.
        -14    1    6    6    0    0 -0.18234702300E+03  0.90181873292E+02  0.63792332692E+03  0.66957402734E+03  0.00000000000E+00 0.  1.
<mgrwt>
<rscale>  2 0.24445896E+03</rscale>
<asrwt>0</asrwt>
<pdfrwt beam="1">  1       21 0.14092486E+00 0.24446699E+03</pdfrwt>
<pdfrwt beam="2">  1       21 0.25183949E-01 0.24446699E+03</pdfrwt>
<totfact> 0.50527145E+03</totfact>
</mgrwt>
</event>
<event>
12    1  0.1013215E-001  0.1971405E+03  0.7546771E-02  0.1152338E+00
         21   -1    0    0  501  502  0.00000000000E+00  0.00000000000E+00  0.26342831701E+03  0.26342831701E+03  0.00000000000E+00 0.  1.
         21   -1    0    0  502  503 -0.00000000000E+00 -0.00000000000E+00 -0.19180742157E+03  0.19180742157E+03  0.00000000000E+00 0.  1.
         -6    2    1    2    0  503  0.20699278237E+02  0.87762924319E+02 -0.74194751318E+02  0.21064010917E+03  0.17531002100E+03 0.  0.
        -24    2    3    3    0    0  0.47318289174E+02  0.10361255961E+03 -0.98538818508E+02  0.17096006016E+03  0.80887949765E+02 0.  0.
          6    2    1    2  501    0 -0.20699278237E+02 -0.87762924319E+02  0.14581564676E+03  0.24459562940E+03  0.17445351266E+03 0.  0.
         24    2    5    5    0    0 -0.65891513804E+02 -0.96894640015E+02  0.87711871036E+02  0.17027291995E+03  0.87001333856E+02 0.  0.
          5    1    5    5  501    0  0.45192235566E+02  0.91317156960E+01  0.58103775721E+02  0.74322709450E+02  0.47000000000E+01 0. -1.
        -13    1    6    6    0    0 -0.86194454174E+02 -0.65247244225E+02  0.69266883324E+02  0.12839232039E+03  0.00000000000E+00 0.  1.
         14    1    6    6    0    0  0.20302940370E+02 -0.31647395791E+02  0.18444987713E+02  0.41880599563E+02  0.00000000000E+00 0. -1.
         -5    1    3    3    0  503 -0.26619010937E+02 -0.15849635293E+02  0.24344067189E+02  0.39680049011E+02  0.47000000000E+01 0.  1.
         13    1    4    4    0    0  0.49918912698E+02  0.72837627508E+02 -0.25890309064E+02  0.92019160665E+02  0.00000000000E+00 0. -1.
        -14    1    4    4    0    0 -0.26006235244E+01  0.30774932104E+02 -0.72648509444E+02  0.78940899495E+02  0.00000000000E+00 0.  1.
<mgrwt>
<rscale>  2 0.19694995E+03</rscale>
<asrwt>0</asrwt>
<pdfrwt beam="1">  1       21 0.40527433E-01 0.19714054E+03</pdfrwt>
<pdfrwt beam="2">  1       21 0.29508834E-01 0.19714054E+03</pdfrwt>
<totfact> 0.64420753E+04</totfact>
</mgrwt>
</event>
<event>
12    1  0.1013215E-001  0.2587057E+03  0.7546771E-02  0.1108060E+00
         21   -1    0    0  501  502  0.00000000000E+00  0.00000000000E+00  0.30996565682E+02  0.30996565682E+02  0.00000000000E+00 0. -1.
         21   -1    0    0  502  503 -0.00000000000E+00 -0.00000000000E+00 -0.28130778652E+04  0.28130778652E+04  0.00000000000E+00 0.  1.
         -6    2    1    2    0  503 -0.17441987568E+03 -0.78509899582E+02 -0.20786988689E+04  0.20946243194E+04  0.17284662121E+03 0.  0.
        -24    2    3    3    0    0 -0.11608528083E+03 -0.11009067878E+03 -0.11446528579E+04  0.11582139866E+04  0.75058136359E+02 0.  0.
          6    2    1    2  501    0  0.17441987568E+03  0.78509899582E+02 -0.70338243060E+03  0.74945011147E+03  0.17419106906E+03 0.  0.
         24    2    5    5    0    0  0.76372719755E+02  0.10402860487E+03 -0.49076089970E+03  0.51387750163E+03  0.81049880026E+02 0.  0.
          5    1    5    5  501    0  0.98047155926E+02 -0.25518705292E+02 -0.21262153090E+03  0.23557260984E+03  0.47000000000E+01 0. -1.
        -11    1    6    6    0    0  0.79346732075E+02  0.50840051420E+02 -0.37138565334E+03  0.38315521428E+03  0.00000000000E+00 0.  1.
         12    1    6    6    0    0 -0.29740123198E+01  0.53188553453E+02 -0.11937524636E+03  0.13072228735E+03  0.00000000000E+00 0. -1.
         -5    1    3    3    0  503 -0.58334594854E+02  0.31580779198E+02 -0.93404601105E+03  0.93641033278E+03  0.47000000000E+01 0.  1.
         13    1    4    4    0    0 -0.60111960886E+02 -0.48410808373E+02 -0.31196578588E+03  0.32137160075E+03  0.00000000000E+00 0. -1.
        -14    1    4    4    0    0 -0.55973319941E+02 -0.61679870407E+02 -0.83268707198E+03  0.83684238588E+03  0.00000000000E+00 0.  1.
<mgrwt>
<rscale>  2 0.25847955E+03</rscale>
<asrwt>0</asrwt>
<pdfrwt beam="1">  1       21 0.47687014E-02 0.25870567E+03</pdfrwt>
<pdfrwt beam="2">  1       21 0.43278130E+00 0.25870567E+03</pdfrwt>
<totfact> 0.14415873E+03</totfact>
</mgrwt>
</event>
<event>
12    1  0.1013215E-001  0.1969641E+03  0.7546771E-02  0.1152341E+00
         21   -1    0    0  501  502  0.00000000000E+00  0.00000000000E+00  0.86150875284E+02  0.86150875284E+02  0.00000000000E+00 0. -1.
         21   -1    0    0  502  503 -0.00000000000E+00 -0.00000000000E+00 -0.51301086100E+03  0.51301086100E+03  0.00000000000E+00 0.  1.
         -6    2    1    2    0  503 -0.56304185015E+02  0.72865028141E+02 -0.31826055562E+03  0.37424245004E+03  0.17403492918E+03 0.  0.
        -24    2    3    3    0    0 -0.10414103286E+03  0.65566541742E+02 -0.21391462450E+03  0.25912600787E+03  0.79009463110E+02 0.  0.
          6    2    1    2  501    0  0.56304185015E+02 -0.72865028141E+02 -0.10859943009E+03  0.22491928624E+03  0.17411311131E+03 0.  0.
         24    2    5    5    0    0  0.92688018327E+02 -0.10178634876E+02 -0.54220700429E+02  0.13418614198E+03  0.79820818057E+02 0.  0.
          5    1    5    5  501    0 -0.36383833312E+02 -0.62686393264E+02 -0.54378729665E+02  0.90733144258E+02  0.47000000000E+01 0. -1.
        -13    1    6    6    0    0  0.33932680339E+02  0.96302107494E+00 -0.65084156535E+02  0.73405051845E+02  0.00000000000E+00 0.  1.
         14    1    6    6    0    0  0.58755337989E+02 -0.11141655951E+02  0.10863456106E+02  0.60781090135E+02  0.00000000000E+00 0. -1.
         -5    1    3    3    0  503  0.47836847848E+02  0.72984863982E+01 -0.10434593112E+03  0.11511644217E+03  0.47000000000E+01 0.  1.
         11    1    4    4    0    0 -0.22950038123E+02  0.55308620460E+02 -0.59779516161E+02  0.84612873130E+02  0.00000000000E+00 0. -1.
        -12    1    4    4    0    0 -0.81190994740E+02  0.10257921283E+02 -0.15413510834E+03  0.17451313474E+03  0.00000000000E+00 0.  1.
<mgrwt>
<rscale>  2 0.19694680E+03</rscale>
<asrwt>0</asrwt>
<pdfrwt beam="1">  1       21 0.13253981E-01 0.19696408E+03</pdfrwt>
<pdfrwt beam="2">  1       21 0.78924748E-01 0.19696408E+03</pdfrwt>
<totfact> 0.69472417E+04</totfact>
</mgrwt>
</event>
<event>
12    1  0.1013215E-001  0.1870398E+03  0.7546771E-02  0.1161175E+00
         21   -1    0    0  501  502  0.00000000000E+00  0.00000000000E+00  0.89903773224E+02  0.89903773224E+02  0.00000000000E+00 0.  1.
         21   -1    0    0  502  503 -0.00000000000E+00 -0.00000000000E+00 -0.44210836325E+03  0.44210836325E+03  0.00000000000E+00 0.  1.
         -6    2    1    2    0  503  0.55414982348E+02  0.43308220728E+02 -0.26828627155E+03  0.32700931434E+03  0.17323725325E+03 0.  0.
        -24    2    3    3    0    0  0.49766727072E+02  0.17958885552E+02 -0.53174305306E+02  0.11028428209E+03  0.80844711876E+02 0.  0.
          6    2    1    2  501    0 -0.55414982348E+02 -0.43308220728E+02 -0.83918318472E+02  0.20500282213E+03  0.17331315776E+03 0.  0.
         24    2    5    5    0    0 -0.69707006809E+02 -0.83980652699E+02 -0.34863843732E+02  0.13952809282E+03  0.79629041565E+02 0.  0.
          5    1    5    5  501    0  0.14292024460E+02  0.40672431972E+02 -0.49054474741E+02  0.65474729306E+02  0.47000000000E+01 0. -1.
        -13    1    6    6    0    0 -0.20804168609E+01 -0.47534573330E+02 -0.40522682881E+02  0.62497612946E+02  0.00000000000E+00 0.  1.
         14    1    6    6    0    0 -0.67626589948E+02 -0.36446079369E+02  0.56588391499E+01  0.77030479876E+02  0.00000000000E+00 0. -1.
         -5    1    3    3    0  503  0.56482552758E+01  0.25349335176E+02 -0.21511196624E+03  0.21672503225E+03  0.47000000000E+01 0.  1.
         13    1    4    4    0    0  0.24609665248E+02 -0.54178725285E+01 -0.68269319046E+02  0.72771484040E+02  0.00000000000E+00 0. -1.
        -14    1    4    4    0    0  0.25157061824E+02  0.23376758081E+02  0.15095013740E+02  0.37512798054E+02  0.00000000000E+00 0.  1.
<mgrwt>
<rscale>  2 0.18702218E+03</rscale>
<asrwt>0</asrwt>
<pdfrwt beam="1">  1       21 0.13831350E-01 0.18703976E+03</pdfrwt>
<pdfrwt beam="2">  1       21 0.68016670E-01 0.18703976E+03</pdfrwt>
<totfact> 0.89912008E+04</totfact>
</mgrwt>
</event>
<event>
12    1  0.1013215E-001  0.3293428E+03  0.7546771E-02  0.1071501E+00
         21   -1    0    0  503  502  0.00000000000E+00  0.00000000000E+00  0.11011551450E+03  0.11011551450E+03  0.00000000000E+00 0. -1.
         21   -1    0    0  501  503 -0.00000000000E+00 -0.00000000000E+00 -0.12496279354E+04  0.12496279354E+04  0.00000000000E+00 0.  1.
          6    2    1    2  501    0  0.11529694689E+03  0.25446141979E+03 -0.88421920804E+03  0.94356256414E+03  0.17442105510E+03 0.  0.
         24    2    3    3    0    0  0.77626760621E+02  0.19157570842E+03 -0.80609569682E+03  0.83632904031E+03  0.83239565226E+02 0.  0.
         -6    2    1    2    0  502 -0.11529694689E+03 -0.25446141979E+03 -0.25529321285E+03  0.41618088575E+03  0.17317016201E+03 0.  0.
        -24    2    5    5    0    0 -0.10468788370E+02 -0.61061827449E+02 -0.42895897964E+02  0.11035895307E+03  0.80628147435E+02 0.  0.
          5    1    3    3  501    0  0.37670186266E+02  0.62885711367E+02 -0.78123511226E+02  0.10723352383E+03  0.47000000000E+01 0. -1.
        -13    1    4    4    0    0  0.33969003988E+02  0.16077629231E+03 -0.52203429773E+03  0.54728668667E+03  0.00000000000E+00 0.  1.
         14    1    4    4    0    0  0.43657756633E+02  0.30799416117E+02 -0.28406139909E+03  0.28904235364E+03  0.00000000000E+00 0. -1.
         -5    1    5    5    0  502 -0.10482815852E+03 -0.19339959234E+03 -0.21239731489E+03  0.30582193268E+03  0.47000000000E+01 0.  1.
         13    1    6    6    0    0 -0.21174906828E+02 -0.55730204906E+02  0.60960355543E+01  0.59928240985E+02  0.00000000000E+00 0. -1.
        -14    1    6    6    0    0  0.10706118459E+02 -0.53316225435E+01 -0.48991933518E+02  0.50430712083E+02  0.00000000000E+00 0.  1.
<mgrwt>
<rscale>  2 0.32917752E+03</rscale>
<asrwt>0</asrwt>
<pdfrwt beam="1">  1       21 0.16940850E-01 0.32934284E+03</pdfrwt>
<pdfrwt beam="2">  1       21 0.19225044E+00 0.32934284E+03</pdfrwt>
<totfact> 0.42952283E+03</totfact>
</mgrwt>
</event>
<event>
12    1  0.1013215E-001  0.1865728E+03  0.7546771E-02  0.1161745E+00
         21   -1    0    0  501  502  0.00000000000E+00  0.00000000000E+00  0.15783735527E+03  0.15783735527E+03  0.00000000000E+00 0. -1.
         21   -1    0    0  502  503 -0.00000000000E+00 -0.00000000000E+00 -0.32289389350E+03  0.32289389350E+03  0.00000000000E+00 0. -1.
         -6    2    1    2    0  503 -0.10807164911E+02  0.69633384038E+02 -0.21828030179E+03  0.28671533048E+03  0.17202844995E+03 0.  0.
        -24    2    3    3    0    0  0.24043010585E+02  0.60210080404E+02 -0.22706812497E+03  0.24926337165E+03  0.79805857738E+02 0.  0.
          6    2    1    2  501    0  0.10807164911E+02 -0.69633384038E+02  0.53223763569E+02  0.19401591829E+03  0.17275359492E+03 0.  0.
         24    2    5    5    0    0  0.28194701990E+02  0.97177633476E+01  0.67492085065E+02  0.11140474450E+03  0.83465318583E+02 0.  0.
          5    1    5    5  501    0 -0.17387537080E+02 -0.79351147385E+02 -0.14268321496E+02  0.82611173793E+02  0.47000000000E+01 0. -1.
        -13    1    6    6    0    0 -0.16257308819E+02  0.13590539352E+02 -0.88624419923E+01  0.22968363633E+02  0.00000000000E+00 0.  1.
         14    1    6    6    0    0  0.44452010809E+02 -0.38727760046E+01  0.76354527058E+02  0.88436380869E+02  0.00000000000E+00 0. -1.
         -5    1    3    3    0  503 -0.34850175496E+02  0.94233036342E+01  0.87878231773E+01  0.37451958823E+02  0.47000000000E+01 0.  1.
         13    1    4    4    0    0 -0.17966268734E+02  0.56589401107E+02 -0.15165305065E+03  0.16286127502E+03  0.00000000000E+00 0. -1.
        -14    1    4    4    0    0  0.42009279320E+02  0.36206792970E+01 -0.75415074322E+02  0.86402096632E+02  0.00000000000E+00 0.  1.
<mgrwt>
<rscale>  2 0.18640476E+03</rscale>
<asrwt>0</asrwt>
<pdfrwt beam="1">  1       21 0.24282670E-01 0.18657279E+03</pdfrwt>
<pdfrwt beam="2">  1       21 0.49675983E-01 0.18657279E+03</pdfrwt>
<totfact> 0.62007160E+04</totfact>
</mgrwt>
</event>
<event>
12    1  0.1013215E-001  0.1796075E+03  0.7546771E-02  0.1169598E+00
         21   -1    0    0  503  502  0.00000000000E+00  0.00000000000E+00  0.49848904294E+03  0.49848904294E+03  0.00000000000E+00 0.  1.
         21   -1    0    0  501  503 -0.00000000000E+00 -0.00000000000E+00 -0.91312312172E+02  0.91312312172E+02  0.00000000000E+00 0.  1.
          6    2    1    2  501    0 -0.39369914234E+02 -0.26504203055E+02  0.36159238040E+02  0.17759649150E+03  0.16727390822E+03 0.  0.
         24    2    3    3    0    0 -0.85657371033E+02 -0.30707426530E+02  0.30747971538E+01  0.12035257502E+03  0.78709317625E+02 0.  0.
         -6    2    1    2    0  502  0.39369914234E+02  0.26504203055E+02  0.37101749273E+03  0.41220486361E+03  0.17322357447E+03 0.  0.
        -24    2    5    5    0    0  0.20084988954E+02  0.66027061978E+02  0.12616984032E+03  0.16339484049E+03  0.77563300572E+02 0.  0.
          5    1    3    3  501    0  0.46287456799E+02  0.42032234757E+01  0.33084440886E+02  0.57243916474E+02  0.47000000000E+01 0. -1.
        -13    1    4    4    0    0 -0.68568128431E+02 -0.21208341978E+02  0.37337269068E+02  0.80903978069E+02  0.00000000000E+00 0.  1.
         14    1    4    4    0    0 -0.17089242602E+02 -0.94990845526E+01 -0.34262471914E+02  0.39448596955E+02  0.00000000000E+00 0. -1.
         -5    1    5    5    0  502  0.19284925281E+02 -0.39522858924E+02  0.24484765241E+03  0.24881002313E+03  0.47000000000E+01 0.  1.
         13    1    6    6    0    0 -0.25073522262E+02  0.29494600573E+01  0.41361607399E+02  0.48457851788E+02  0.00000000000E+00 0. -1.
        -14    1    6    6    0    0  0.45158511216E+02  0.63077601921E+02  0.84808232924E+02  0.11493698870E+03  0.00000000000E+00 0.  1.
<mgrwt>
<rscale>  2 0.17815730E+03</rscale>
<asrwt>0</asrwt>
<pdfrwt beam="1">  1       21 0.76690621E-01 0.17960754E+03</pdfrwt>
<pdfrwt beam="2">  1       21 0.14048048E-01 0.17960754E+03</pdfrwt>
<totfact> 0.67227151E+04</totfact>
</mgrwt>
</event>
<event>
12    1  0.1013215E-001  0.1739041E+03  0.7546771E-02  0.1173912E+00
         21   -1    0    0  501  502  0.00000000000E+00  0.00000000000E+00  0.90611477979E+02  0.90611477979E+02  0.00000000000E+00 0. -1.
         21   -1    0    0  502  503 -0.00000000000E+00 -0.00000000000E+00 -0.83618270362E+03  0.83618270362E+03  0.00000000000E+00 0. -1.
         -6    2    1    2    0  503 -0.83880481335E+01  0.79526827963E+01 -0.73206234119E+03  0.75236619123E+03  0.17322242867E+03 0.  0.
        -24    2    3    3    0    0  0.58060895026E+02 -0.59678546137E+01 -0.33075463023E+03  0.34532907708E+03  0.80292361059E+02 0.  0.
          6    2    1    2  501    0  0.83880481335E+01 -0.79526827963E+01 -0.13508884447E+02  0.17442799037E+03  0.17351953593E+03 0.  0.
         24    2    5    5    0    0 -0.43651343574E+02  0.35898527637E+02  0.15692093320E+02  0.10022681755E+03  0.81271330004E+02 0.  0.
          5    1    5    5  501    0  0.52039391707E+02 -0.43851210434E+02 -0.29200977767E+02  0.74201172823E+02  0.47000000000E+01 0. -1.
        -13    1    6    6    0    0 -0.84793468475E+01  0.54323507357E+02 -0.54364938831E+01  0.55249418461E+02  0.00000000000E+00 0.  1.
         14    1    6    6    0    0 -0.35171996726E+02 -0.18424979720E+02  0.21128587203E+02  0.44977399086E+02  0.00000000000E+00 0. -1.
         -5    1    3    3    0  503 -0.66448943160E+02  0.13920537410E+02 -0.40130771097E+03  0.40703711414E+03  0.47000000000E+01 0.  1.
         13    1    4    4    0    0  0.32344731563E+02  0.36030240187E+02 -0.13314119652E+03  0.14167193822E+03  0.00000000000E+00 0. -1.
        -14    1    4    4    0    0  0.25716163463E+02 -0.41998094801E+02 -0.19761343371E+03  0.20365713887E+03  0.00000000000E+00 0.  1.
<mgrwt>
<rscale>  2 0.17382993E+03</rscale>
<asrwt>0</asrwt>
<pdfrwt beam="1">  1       21 0.13940227E-01 0.17390409E+03</pdfrwt>
<pdfrwt beam="2">  1       21 0.12864350E+00 0.17390409E+03</pdfrwt>
<totfact> 0.20134301E+04</totfact>
</mgrwt>
</event>
<event>
12    1  0.1013215E-001  0.1867752E+03  0.7546771E-02  0.1164235E+00
         21   -1    0    0  503  502  0.00000000000E+00  0.00000000000E+00  0.38830209623E+02  0.38830209623E+02  0.00000000000E+00 0.  1.
         21   -1    0    0  501  503 -0.00000000000E+00 -0.00000000000E+00 -0.11575356575E+04  0.11575356575E+04  0.00000000000E+00 0.  1.
          6    2    1    2  501    0 -0.22097829651E+02 -0.37405706057E+02 -0.85807527854E+03  0.87572109730E+03  0.16943068105E+03 0.  0.
         24    2    3    3    0    0  0.82519767409E+00  0.27921227181E+02 -0.65723006312E+03  0.66322647631E+03  0.84485070497E+02 0.  0.
         -6    2    1    2    0  502  0.22097829651E+02  0.37405706057E+02 -0.26063016936E+03  0.32064476986E+03  0.18165209146E+03 0.  0.
        -24    2    5    5    0    0  0.34950458533E+02 -0.31054559296E+02 -0.66203322848E+02  0.11406334125E+03  0.80259863289E+02 0.  0.
          5    1    3    3  501    0 -0.22923027325E+02 -0.65326933238E+02 -0.20084521543E+03  0.21249462099E+03  0.47000000000E+01 0. -1.
        -11    1    4    4    0    0  0.28331377196E+01 -0.30312032073E+02 -0.20160397194E+03  0.20388969434E+03  0.00000000000E+00 0.  1.
         12    1    4    4    0    0 -0.20079400455E+01  0.58233259254E+02 -0.45562609118E+03  0.45933678197E+03  0.00000000000E+00 0. -1.
         -5    1    5    5    0  502 -0.12852628882E+02  0.68460265354E+02 -0.19442684652E+03  0.20658142861E+03  0.47000000000E+01 0.  1.
         13    1    6    6    0    0  0.54018509671E+02 -0.41521686788E+02 -0.61553554241E+02  0.91819877480E+02  0.00000000000E+00 0. -1.
        -14    1    6    6    0    0 -0.19068051138E+02  0.10467127492E+02 -0.46497686073E+01  0.22243463765E+02  0.00000000000E+00 0.  1.
<mgrwt>
<rscale>  2 0.18373607E+03</rscale>
<asrwt>0</asrwt>
<pdfrwt beam="1">  1       21 0.59738786E-02 0.18677522E+03</pdfrwt>
<pdfrwt beam="2">  1       21 0.17808240E+00 0.18677522E+03</pdfrwt>
<totfact> 0.37394850E+04</totfact>
</mgrwt>
</event>
<event>
12    1  0.1013215E-001  0.1769408E+03  0.7546771E-02  0.1170814E+00
         21   -1    0    0  501  502  0.00000000000E+00  0.00000000000E+00  0.18546799003E+04  0.18546799003E+04  0.00000000000E+00 0.  1.
         21   -1    0    0  502  503 -0.00000000000E+00 -0.00000000000E+00 -0.22136378243E+02  0.22136378243E+02  0.00000000000E+00 0.  1.
         -6    2    1    2    0  503 -0.42777653390E+02  0.24549826055E+01  0.45858690202E+03  0.49151312183E+03  0.17160200365E+03 0.  0.
        -24    2    3    3    0    0 -0.40450641406E+02 -0.45315951366E+02  0.15957548578E+03  0.18866432431E+03  0.80250244653E+02 0.  0.
          6    2    1    2  501    0  0.42777653390E+02 -0.24549826055E+01  0.13739566201E+04  0.13853031567E+04  0.17167436525E+03 0.  0.
         24    2    5    5    0    0 -0.12270414003E+02  0.38257797258E+02  0.10606709294E+04  0.10645885887E+04  0.81925701939E+02 0.  0.
          5    1    5    5  501    0  0.55048067394E+02 -0.40712779863E+02  0.31328569068E+03  0.32071456804E+03  0.47000000000E+01 0. -1.
        -11    1    6    6    0    0  0.23609125533E+02  0.31743445822E+00  0.67329917158E+03  0.67371304428E+03  0.00000000000E+00 0.  1.
         12    1    6    6    0    0 -0.35879539536E+02  0.37940362800E+02  0.38737175779E+03  0.39087554441E+03  0.00000000000E+00 0. -1.
         -5    1    3    3    0  503 -0.23270119841E+01  0.47770933972E+02  0.29901141624E+03  0.30284879752E+03  0.47000000000E+01 0.  1.
         11    1    4    4    0    0 -0.41911864183E+01 -0.35093441600E+02  0.14335566557E+03  0.14764810374E+03  0.00000000000E+00 0. -1.
        -12    1    4    4    0    0 -0.36259454988E+02 -0.10222509766E+02  0.16219820204E+02  0.41016220564E+02  0.00000000000E+00 0.  1.
<mgrwt>
<rscale>  2 0.17692323E+03</rscale>
<asrwt>0</asrwt>
<pdfrwt beam="1">  1       21 0.28533525E+00 0.17694079E+03</pdfrwt>
<pdfrwt beam="2">  1       21 0.34055981E-02 0.17694079E+03</pdfrwt>
<totfact> 0.21586730E+04</totfact>
</mgrwt>
</event>
<event>
12    1  0.1013215E-001  0.2055024E+03  0.7546771E-02  0.1149243E+00
         21   -1    0    0  501  502  0.00000000000E+00  0.00000000000E+00  0.10515991679E+04  0.10515991679E+04  0.00000000000E+00 0.  1.
         21   -1    0    0  502  503 -0.00000000000E+00 -0.00000000000E+00 -0.99779801646E+02  0.99779801646E+02  0.00000000000E+00 0.  1.
         -6    2    1    2    0  503  0.68981919777E+02 -0.54982111688E+01  0.93646148256E+01  0.18677947670E+03  0.17323435377E+03 0.  0.
        -24    2    3    3    0    0  0.61899359926E+02  0.57689901203E+02 -0.16853656352E+02  0.11784191116E+03  0.80268392497E+02 0.  0.
          6    2    1    2  501    0 -0.68981919777E+02  0.54982111688E+01  0.94245475139E+03  0.96459949280E+03  0.19350061374E+03 0.  0.
         24    2    5    5    0    0  0.87950508153E+01 -0.55072383150E+02  0.62214538303E+03  0.62943052719E+03  0.77508648745E+02 0.  0.
          5    1    5    5  501    0 -0.77776970592E+02  0.60570594319E+02  0.32030936837E+03  0.33516896562E+03  0.47000000000E+01 0. -1.
        -11    1    6    6    0    0  0.43177927889E+01 -0.35028908454E+02  0.59142677293E+03  0.59247894097E+03  0.00000000000E+00 0.  1.
         12    1    6    6    0    0  0.44772580264E+01 -0.20043474697E+02  0.30718610100E+02  0.36951586216E+02  0.00000000000E+00 0. -1.
         -5    1    3    3    0  503  0.70825598501E+01 -0.63188112371E+02  0.26218271177E+02  0.68937565540E+02  0.47000000000E+01 0.  1.
         13    1    4    4    0    0 -0.13323783003E+02  0.32443252979E+02  0.52753134314E+01  0.35467122651E+02  0.00000000000E+00 0. -1.
        -14    1    4    4    0    0  0.75223142929E+02  0.25246648224E+02 -0.22128969783E+02  0.82374788512E+02  0.00000000000E+00 0.  1.
<mgrwt>
<rscale>  2 0.20058954E+03</rscale>
<asrwt>0</asrwt>
<pdfrwt beam="1">  1       21 0.16178448E+00 0.20550237E+03</pdfrwt>
<pdfrwt beam="2">  1       21 0.15350739E-01 0.20550237E+03</pdfrwt>
<totfact> 0.90951921E+03</totfact>
</mgrwt>
</event>
<event>
12    1  0.1013215E-001  0.1789787E+03  0.7546771E-02  0.1168805E+00
         21   -1    0    0  501  502  0.00000000000E+00  0.00000000000E+00  0.14649260586E+03  0.14649260586E+03  0.00000000000E+00 0.  1.
         21   -1    0    0  502  503 -0.00000000000E+00 -0.00000000000E+00 -0.22551520967E+03  0.22551520967E+03  0.00000000000E+00 0.  1.
         -6    2    1    2    0  503  0.45845277196E+02  0.57658377622E+01 -0.72035448886E+02  0.19289280217E+03  0.17286842657E+03 0.  0.
        -24    2    3    3    0    0 -0.69044382713E+01 -0.42280138565E+02  0.14981738768E+01  0.90324619966E+02  0.79504786410E+02 0.  0.
          6    2    1    2  501    0 -0.45845277196E+02 -0.57658377622E+01 -0.69871549266E+01  0.17911501336E+03  0.17291134535E+03 0.  0.
         24    2    5    5    0    0 -0.39635890902E+01 -0.22898156939E+02  0.56639405010E+02  0.10089723221E+03  0.80200957835E+02 0.  0.
          5    1    5    5  501    0 -0.41881688105E+02  0.17132319177E+02 -0.63626559936E+02  0.78217781152E+02  0.47000000000E+01 0. -1.
        -11    1    6    6    0    0 -0.65354679595E+00 -0.48946310219E+02  0.56344078800E+02  0.74637950289E+02  0.00000000000E+00 0.  1.
         12    1    6    6    0    0 -0.33100422942E+01  0.26048153281E+02  0.29532620956E+00  0.26259281919E+02  0.00000000000E+00 0. -1.
         -5    1    3    3    0  503  0.52749715467E+02  0.48045976327E+02 -0.73533622763E+02  0.10256818220E+03  0.47000000000E+01 0.  1.
         13    1    4    4    0    0 -0.15413073566E+02 -0.43409053507E+01  0.35326949855E+02  0.38786591525E+02  0.00000000000E+00 0. -1.
        -14    1    4    4    0    0  0.85086352945E+01 -0.37939233214E+02 -0.33828775979E+02  0.51538028441E+02  0.00000000000E+00 0.  1.
<mgrwt>
<rscale>  2 0.17896831E+03</rscale>
<asrwt>0</asrwt>
<pdfrwt beam="1">  1       21 0.22537324E-01 0.17897868E+03</pdfrwt>
<pdfrwt beam="2">  1       21 0.34694647E-01 0.17897868E+03</pdfrwt>
<totfact> 0.14834090E+05</totfact>
</mgrwt>
</event>
<event>
12    1  0.1013215E-001  0.1776845E+03  0.7546771E-02  0.1170393E+00
         21   -1    0    0  503  502  0.00000000000E+00  0.00000000000E+00  0.21483945646E+02  0.21483945646E+02  0.00000000000E+00 0. -1.
         21   -1    0    0  501  503 -0.00000000000E+00 -0.00000000000E+00 -0.17235164535E+04  0.17235164535E+04  0.00000000000E+00 0. -1.
          6    2    1    2  501    0  0.25026255104E+02 -0.33317004164E+02 -0.51162008263E+03  0.54159661199E+03  0.17272939809E+03 0.  0.
         24    2    3    3    0    0  0.49836375343E+02 -0.58058852917E+02 -0.20416471073E+03  0.23211543832E+03  0.79623193178E+02 0.  0.
         -6    2    1    2    0  502 -0.25026255104E+02  0.33317004164E+02 -0.11904124252E+04  0.12034037872E+04  0.17135517673E+03 0.  0.
        -24    2    5    5    0    0 -0.64102024912E+02  0.18112589805E+02 -0.10847511016E+04  0.10896299092E+04  0.78557310423E+02 0.  0.
          5    1    3    3  501    0 -0.24810120239E+02  0.24741848753E+02 -0.30745537190E+03  0.30948117367E+03  0.47000000000E+01 0. -1.
        -13    1    4    4    0    0  0.60963842088E+01  0.16442185841E+02 -0.72846433501E+02  0.74927393185E+02  0.00000000000E+00 0.  1.
         14    1    4    4    0    0  0.43739991134E+02 -0.74501038758E+02 -0.13131827723E+03  0.15718804514E+03  0.00000000000E+00 0. -1.
         -5    1    5    5    0  502  0.39075769808E+02  0.15204414359E+02 -0.10566132365E+03  0.11377387801E+03  0.47000000000E+01 0.  1.
         13    1    6    6    0    0 -0.48597800430E+02  0.45726876979E+02 -0.56737480299E+03  0.57128527073E+03  0.00000000000E+00 0. -1.
        -14    1    6    6    0    0 -0.15504224482E+02 -0.27614287174E+02 -0.51737629860E+03  0.51834463842E+03  0.00000000000E+00 0.  1.
<mgrwt>
<rscale>  2 0.17734965E+03</rscale>
<asrwt>0</asrwt>
<pdfrwt beam="1">  1       21 0.33052225E-02 0.17768450E+03</pdfrwt>
<pdfrwt beam="2">  1       21 0.26515637E+00 0.17768450E+03</pdfrwt>
<totfact> 0.29613633E+04</totfact>
</mgrwt>
</event>
<event>
12    1  0.1013215E-001  0.1834213E+03  0.7546771E-02  0.1164602E+00
         21   -1    0    0  503  502  0.00000000000E+00  0.00000000000E+00  0.43933766568E+02  0.43933766568E+02  0.00000000000E+00 0.  1.
         21   -1    0    0  501  503 -0.00000000000E+00 -0.00000000000E+00 -0.78173322566E+03  0.78173322566E+03  0.00000000000E+00 0. -1.
          6    2    1    2  501    0  0.28165989814E+01  0.61022804713E+02 -0.30798159486E+03  0.35846344343E+03  0.17294988170E+03 0.  0.
         24    2    3    3    0    0 -0.46086306691E+02  0.44003449871E+01 -0.23795637372E+03  0.25588070256E+03  0.81904746202E+02 0.  0.
         -6    2    1    2    0  502 -0.28165989814E+01 -0.61022804713E+02 -0.42981786423E+03  0.46720354879E+03  0.17263847679E+03 0.  0.
        -24    2    5    5    0    0 -0.33714311976E+02 -0.31700512183E+02 -0.40869760175E+03  0.41942676578E+03  0.82118846033E+02 0.  0.
          5    1    3    3  501    0  0.48902905673E+02  0.56622459726E+02 -0.70025221137E+02  0.10258274087E+03  0.47000000000E+01 0. -1.
        -11    1    4    4    0    0  0.34411516264E+01  0.30110767965E+02 -0.39851479789E+02  0.50066359098E+02  0.00000000000E+00 0.  1.
         12    1    4    4    0    0 -0.49527458318E+02 -0.25710422978E+02 -0.19810489393E+03  0.20581434347E+03  0.00000000000E+00 0. -1.
         -5    1    5    5    0  502  0.30897712995E+02 -0.29322292530E+02 -0.21120262481E+02  0.47776783010E+02  0.47000000000E+01 0.  1.
         11    1    6    6    0    0 -0.43428760470E+02 -0.54319086777E+02 -0.31007287407E+03  0.31777634849E+03  0.00000000000E+00 0. -1.
        -12    1    6    6    0    0  0.97144484941E+01  0.22618574594E+02 -0.98624727678E+02  0.10165041729E+03  0.00000000000E+00 0.  1.
<mgrwt>
<rscale>  2 0.18334787E+03</rscale>
<asrwt>0</asrwt>
<pdfrwt beam="1">  1       21 0.67590410E-02 0.18342131E+03</pdfrwt>
<pdfrwt beam="2">  1       21 0.12026665E+00 0.18342131E+03</pdfrwt>
<totfact> 0.84747253E+04</totfact>
</mgrwt>
</event>
<event>
12    1  0.1013215E-001  0.2666193E+03  0.7546771E-02  0.1103429E+00
         21   -1    0    0  501  502  0.00000000000E+00  0.00000000000E+00  0.10708310489E+04  0.10708310489E+04  0.00000000000E+00 0.  1.
         21   -1    0    0  502  503 -0.00000000000E+00 -0.00000000000E+00 -0.82200812440E+02  0.82200812440E+02  0.00000000000E+00 0. -1.
         -6    2    1    2    0  503  0.18469628616E+03  0.86291342392E+02  0.23771604246E+03  0.35618935420E+03  0.16971454065E+03 0.  0.
        -24    2    3    3    0    0  0.14887701191E+03  0.96610896172E+02  0.24924096215E+03  0.31689015099E+03  0.82463814184E+02 0.  0.
          6    2    1    2  501    0 -0.18469628616E+03 -0.86291342392E+02  0.75091419402E+03  0.79684250715E+03  0.17183404940E+03 0.  0.
         24    2    5    5    0    0 -0.38309596261E+02 -0.38740792259E+02  0.16981717639E+03  0.19568865689E+03  0.80546277911E+02 0.  0.
          5    1    5    5  501    0 -0.14638668990E+03 -0.47550550133E+02  0.58109701763E+03  0.60115385027E+03  0.47000000000E+01 0. -1.
        -11    1    6    6    0    0  0.19082137412E+02  0.10231902792E+02  0.33567460113E+02  0.39944889303E+02  0.00000000000E+00 0.  1.
         12    1    6    6    0    0 -0.57391733674E+02 -0.48972695052E+02  0.13624971628E+03  0.15574376758E+03  0.00000000000E+00 0. -1.
         -5    1    3    3    0  503  0.35819274258E+02 -0.10319553780E+02 -0.11524919696E+02  0.39299203206E+02  0.47000000000E+01 0.  1.
         11    1    4    4    0    0  0.10043904241E+03  0.32279180532E+02  0.90940629607E+02  0.13928440275E+03  0.00000000000E+00 0. -1.
        -12    1    4    4    0    0  0.48437969498E+02  0.64331715639E+02  0.15830033254E+03  0.17760574825E+03  0.00000000000E+00 0.  1.
<mgrwt>
<rscale>  2 0.26627839E+03</rscale>
<asrwt>0</asrwt>
<pdfrwt beam="1">  1       21 0.16474323E+00 0.26661931E+03</pdfrwt>
<pdfrwt beam="2">  1       21 0.12646280E-01 0.26661931E+03</pdfrwt>
<totfact> 0.11828126E+04</totfact>
</mgrwt>
</event>
<event>
12    1  0.1013215E-001  0.1808875E+03  0.7546771E-02  0.1167513E+00
         21   -1    0    0  501  502  0.00000000000E+00  0.00000000000E+00  0.28617519340E+03  0.28617519340E+03  0.00000000000E+00 0.  1.
         21   -1    0    0  502  503 -0.00000000000E+00 -0.00000000000E+00 -0.17845218420E+03  0.17845218420E+03  0.00000000000E+00 0.  1.
         -6    2    1    2    0  503  0.97158235747E+01  0.50928150368E+02 -0.87200342229E+02  0.19870367393E+03  0.17085425549E+03 0.  0.
        -24    2    3    3    0    0 -0.23307088427E+01 -0.37030150780E+02 -0.56106002856E+02  0.10451912304E+03  0.79998120321E+02 0.  0.
          6    2    1    2  501    0 -0.97158235747E+01 -0.50928150368E+02  0.19492335143E+03  0.26592370367E+03  0.17329809438E+03 0.  0.
         24    2    5    5    0    0  0.24756131255E+02 -0.62774774699E+02  0.20289420965E+03  0.22831675274E+03  0.80055861105E+02 0.  0.
          5    1    5    5  501    0 -0.34471954830E+02  0.11846624332E+02 -0.79708582207E+01  0.37606950935E+02  0.47000000000E+01 0. -1.
        -11    1    6    6    0    0 -0.44580560182E+01 -0.31202092302E+02  0.17320767734E+03  0.17605210682E+03  0.00000000000E+00 0.  1.
         12    1    6    6    0    0  0.29214187274E+02 -0.31572682398E+02  0.29686532311E+02  0.52264645914E+02  0.00000000000E+00 0. -1.
         -5    1    3    3    0  503  0.12046532417E+02  0.87958301147E+02 -0.31094339373E+02  0.94184550883E+02  0.47000000000E+01 0.  1.
         13    1    4    4    0    0  0.12855752718E+02 -0.51489853326E+02 -0.10187796784E+02  0.54039490901E+02  0.00000000000E+00 0. -1.
        -14    1    4    4    0    0 -0.15186461561E+02  0.14459702546E+02 -0.45918206072E+02  0.50479632143E+02  0.00000000000E+00 0.  1.
<mgrwt>
<rscale>  2 0.18029970E+03</rscale>
<asrwt>0</asrwt>
<pdfrwt beam="1">  1       21 0.44026953E-01 0.18088754E+03</pdfrwt>
<pdfrwt beam="2">  1       21 0.27454182E-01 0.18088754E+03</pdfrwt>
<totfact> 0.63044742E+04</totfact>
</mgrwt>
</event>
<event>
12    1  0.1013215E-001  0.2079492E+03  0.7546771E-02  0.1143256E+00
         21   -1    0    0  501  502  0.00000000000E+00  0.00000000000E+00  0.47014071255E+03  0.47014071255E+03  0.00000000000E+00 0. -1.
         21   -1    0    0  502  503 -0.00000000000E+00 -0.00000000000E+00 -0.94950337064E+02  0.94950337064E+02  0.00000000000E+00 0. -1.
         -6    2    1    2    0  503 -0.95847097163E+02 -0.65834079739E+02  0.13647655697E+03  0.24850432943E+03  0.17206905316E+03 0.  0.
        -24    2    3    3    0    0 -0.12615788653E+03 -0.80183706403E+02  0.12156467104E+03  0.21150284190E+03  0.87236711201E+02 0.  0.
          6    2    1    2  501    0  0.95847097163E+02  0.65834079739E+02  0.23871381852E+03  0.31658672018E+03  0.17240090532E+03 0.  0.
         24    2    5    5    0    0  0.14287681516E+02 -0.25558858185E+02  0.13480127064E+03  0.15588664243E+03  0.72607641799E+02 0.  0.
          5    1    5    5  501    0  0.81559415647E+02  0.91392937923E+02  0.10391254788E+03  0.16070007775E+03  0.47000000000E+01 0. -1.
        -11    1    6    6    0    0  0.37325583157E+02 -0.34578743702E+02  0.70122541248E+02  0.86637517653E+02  0.00000000000E+00 0.  1.
         12    1    6    6    0    0 -0.23037901641E+02  0.90198855175E+01  0.64678729394E+02  0.69249124780E+02  0.00000000000E+00 0. -1.
         -5    1    3    3    0  503  0.30310789368E+02  0.14349626665E+02  0.14911885926E+02  0.37001487529E+02  0.47000000000E+01 0.  1.
         11    1    4    4    0    0 -0.97657293295E+02 -0.88595905667E+02  0.12487383499E+03  0.18160301787E+03  0.00000000000E+00 0. -1.
        -12    1    4    4    0    0 -0.28500593236E+02  0.84121992635E+01 -0.33091639458E+01  0.29899824034E+02  0.00000000000E+00 0.  1.
<mgrwt>
<rscale>  2 0.20788039E+03</rscale>
<asrwt>0</asrwt>
<pdfrwt beam="1">  1       21 0.72329339E-01 0.20794919E+03</pdfrwt>
<pdfrwt beam="2">  1       21 0.14607744E-01 0.20794919E+03</pdfrwt>
<totfact> 0.70459804E+04</totfact>
</mgrwt>
</event>
<event>
12    1  0.1013215E-001  0.3409706E+03  0.7546771E-02  0.1066454E+00
         21   -1    0    0  501  502  0.00000000000E+00  0.00000000000E+00  0.24008267888E+03  0.24008267888E+03  0.00000000000E+00 0. -1.
         21   -1    0    0  502  503 -0.00000000000E+00 -0.00000000000E+00 -0.81273729246E+03  0.81273729246E+03  0.00000000000E+00 0.  1.
         -6    2    1    2    0  503  0.29007711725E+03 -0.44424129073E+02 -0.62163303468E+03  0.70900535584E+03  0.17361661098E+03 0.  0.
        -24    2    3    3    0    0  0.19578391253E+03 -0.11545785692E+01 -0.27477812563E+03  0.34693646683E+03  0.80803590481E+02 0.  0.
          6    2    1    2  501    0 -0.29007711725E+03  0.44424129073E+02  0.48978421090E+02  0.34381461550E+03  0.17231183043E+03 0.  0.
         24    2    5    5    0    0 -0.19168308260E+03  0.96481026804E+02  0.47761731467E+02  0.23239254862E+03  0.75326761317E+02 0.  0.
          5    1    5    5  501    0 -0.98394034645E+02 -0.52056897731E+02  0.12166896223E+01  0.11142206688E+03  0.47000000000E+01 0. -1.
        -13    1    6    6    0    0 -0.97309138003E+02  0.53278368728E+02 -0.13675803021E+02  0.11177960682E+03  0.00000000000E+00 0.  1.
         14    1    6    6    0    0 -0.94373944601E+02  0.43202658076E+02  0.61437534488E+02  0.12061294179E+03  0.00000000000E+00 0. -1.
         -5    1    3    3    0  503  0.94293204723E+02 -0.43269550504E+02 -0.34685490904E+03  0.36206888901E+03  0.47000000000E+01 0.  1.
         11    1    4    4    0    0  0.25250022842E+02  0.25007882080E+02 -0.74847370468E+02  0.82855818659E+02  0.00000000000E+00 0. -1.
        -12    1    4    4    0    0  0.17053388968E+03 -0.26162460649E+02 -0.19993075516E+03  0.26408064817E+03  0.00000000000E+00 0.  1.
<mgrwt>
<rscale>  2 0.34080487E+03</rscale>
<asrwt>0</asrwt>
<pdfrwt beam="1">  1       21 0.36935797E-01 0.34097062E+03</pdfrwt>
<pdfrwt beam="2">  1       21 0.12503651E+00 0.34097062E+03</pdfrwt>
<totfact> 0.30571175E+03</totfact>
</mgrwt>
</event>
<event>
12    1  0.1013215E-001  0.2409086E+03  0.7546771E-02  0.1119483E+00
         21   -1    0    0  501  502  0.00000000000E+00  0.00000000000E+00  0.49199463368E+03  0.49199463368E+03  0.00000000000E+00 0.  1.
         21   -1    0    0  502  503 -0.00000000000E+00 -0.00000000000E+00 -0.12732959033E+03  0.12732959033E+03  0.00000000000E+00 0.  1.
         -6    2    1    2    0  503 -0.48212844518E+02  0.16054192742E+03  0.27072143533E+03  0.36239071145E+03  0.17302815772E+03 0.  0.
        -24    2    3    3    0    0 -0.75767446495E+02  0.80659805946E+02  0.23206783317E+03  0.26934985816E+03  0.80294188171E+02 0.  0.
          6    2    1    2  501    0  0.48212844518E+02 -0.16054192742E+03  0.93943608029E+02  0.25693351255E+03  0.17056154182E+03 0.  0.
         24    2    5    5    0    0  0.74937239821E+02 -0.46539044131E+02  0.28045351572E+02  0.12248827870E+03  0.80220721342E+02 0.  0.
          5    1    5    5  501    0 -0.26724395303E+02 -0.11400288329E+03  0.65898256457E+02  0.13444523386E+03  0.47000000000E+01 0. -1.
        -11    1    6    6    0    0  0.45254958390E+02 -0.46488700873E+02 -0.18338243713E+02  0.67420336325E+02  0.00000000000E+00 0.  1.
         12    1    6    6    0    0  0.29682281431E+02 -0.50343258290E-01  0.46383595285E+02  0.55067942371E+02  0.00000000000E+00 0. -1.
         -5    1    3    3    0  503  0.27554601978E+02  0.79882121478E+02  0.38653602158E+02  0.93040853294E+02  0.47000000000E+01 0.  1.
         11    1    4    4    0    0 -0.40600018966E+02  0.59052445728E+02  0.21134614847E+03  0.22316529157E+03  0.00000000000E+00 0. -1.
        -12    1    4    4    0    0 -0.35167427529E+02  0.21607360218E+02  0.20721684702E+02  0.46184566594E+02  0.00000000000E+00 0.  1.
<mgrwt>
<rscale>  2 0.24046598E+03</rscale>
<asrwt>0</asrwt>
<pdfrwt beam="1">  1       21 0.75691481E-01 0.24090856E+03</pdfrwt>
<pdfrwt beam="2">  1       21 0.19589168E-01 0.24090856E+03</pdfrwt>
<totfact> 0.36490821E+04</totfact>
</mgrwt>
</event>
<event>
12    1  0.1013215E-001  0.1755649E+03  0.7546771E-02  0.1172186E+00
         21   -1    0    0  503  502  0.00000000000E+00  0.00000000000E+00  0.59548704039E+03  0.59548704039E+03  0.00000000000E+00 0.  1.
         21   -1    0    0  501  503 -0.00000000000E+00 -0.00000000000E+00 -0.10705023393E+03  0.10705023393E+03  0.00000000000E+00 0.  1.
          6    2    1    2  501    0 -0.27402514609E+02 -0.10149579927E+02 -0.83071251201E+01  0.17568096165E+03  0.17303433237E+03 0.  0.
         24    2    3    3    0    0 -0.54683418968E+02  0.40942253075E+01 -0.61469622357E+02  0.11407353643E+03  0.78912725523E+02 0.  0.
         -6    2    1    2    0  502  0.27402514609E+02  0.10149579927E+02  0.49674393158E+03  0.52685631267E+03  0.17311594051E+03 0.  0.
        -24    2    5    5    0    0  0.69738694693E+02  0.34656711455E+02  0.42506504835E+03  0.43994886799E+03  0.82523559846E+02 0.  0.
          5    1    3    3  501    0  0.27280904359E+02 -0.14243805235E+02  0.53162497237E+02  0.61607425224E+02  0.47000000000E+01 0. -1.
        -11    1    4    4    0    0  0.92880525214E+01 -0.19857037939E+02 -0.33987850916E+02  0.40444330693E+02  0.00000000000E+00 0.  1.
         12    1    4    4    0    0 -0.63971471489E+02  0.23951263246E+02 -0.27481771441E+02  0.73629205735E+02  0.00000000000E+00 0. -1.
         -5    1    5    5    0  502 -0.42336180085E+02 -0.24507131528E+02  0.71678883230E+02  0.86907444681E+02  0.47000000000E+01 0.  1.
         13    1    6    6    0    0  0.25285150611E+02  0.51890129714E+02  0.14887098280E+03  0.15966995310E+03  0.00000000000E+00 0. -1.
        -14    1    6    6    0    0  0.44453544083E+02 -0.17233418259E+02  0.27619406555E+03  0.28027891489E+03  0.00000000000E+00 0.  1.
<mgrwt>
<rscale>  2 0.17554480E+03</rscale>
<asrwt>0</asrwt>
<pdfrwt beam="1">  1       21 0.91613389E-01 0.17556492E+03</pdfrwt>
<pdfrwt beam="2">  1       21 0.16469267E-01 0.17556492E+03</pdfrwt>
<totfact> 0.33653884E+04</totfact>
</mgrwt>
</event>
<event>
12    1  0.1013215E-001  0.2107255E+03  0.7546771E-02  0.1141218E+00
         21   -1    0    0  501  502  0.00000000000E+00  0.00000000000E+00  0.31140323921E+02  0.31140323921E+02  0.00000000000E+00 0. -1.
         21   -1    0    0  502  503 -0.00000000000E+00 -0.00000000000E+00 -0.16417770720E+04  0.16417770720E+04  0.00000000000E+00 0. -1.
         -6    2    1    2    0  503 -0.80874806419E+02 -0.86433419246E+02 -0.49480076660E+03  0.53735798771E+03  0.17295761921E+03 0.  0.
        -24    2    3    3    0    0 -0.10351877403E+03 -0.11026526841E+02 -0.30244365662E+03  0.32945826079E+03  0.78948459771E+02 0.  0.
          6    2    1    2  501    0  0.80874806419E+02  0.86433419246E+02 -0.11158359815E+04  0.11355594082E+04  0.17433806743E+03 0.  0.
         24    2    5    5    0    0  0.59973600514E+02 -0.16562598841E+02 -0.44418831101E+03  0.45572286654E+03  0.80677896688E+02 0.  0.
          5    1    5    5  501    0  0.20901205905E+02  0.10299601809E+03 -0.67164767047E+03  0.67983654167E+03  0.47000000000E+01 0. -1.
        -11    1    6    6    0    0  0.52656312885E+02 -0.23282404817E+02 -0.44175963181E+03  0.44549560038E+03  0.00000000000E+00 0.  1.
         12    1    6    6    0    0  0.73172876296E+01  0.67198059763E+01 -0.24286792049E+01  0.10227266169E+02  0.00000000000E+00 0. -1.
         -5    1    3    3    0  503  0.22643967614E+02 -0.75406892405E+02 -0.19235710998E+03  0.20789972692E+03  0.47000000000E+01 0.  1.
         11    1    4    4    0    0 -0.38476958629E+02 -0.39607189495E+02 -0.91488312153E+02  0.10686120468E+03  0.00000000000E+00 0. -1.
        -12    1    4    4    0    0 -0.65041815404E+02  0.28580662654E+02 -0.21095534446E+03  0.22259705611E+03  0.00000000000E+00 0.  1.
<mgrwt>
<rscale>  2 0.21043975E+03</rscale>
<asrwt>0</asrwt>
<pdfrwt beam="1">  1       21 0.47908183E-02 0.21072549E+03</pdfrwt>
<pdfrwt beam="2">  1       21 0.25258113E+00 0.21072549E+03</pdfrwt>
<totfact> 0.18280310E+04</totfact>
</mgrwt>
</event>
<event>
12    1  0.1013215E-001  0.2160826E+03  0.7546771E-02  0.1136892E+00
         21   -1    0    0  503  502  0.00000000000E+00  0.00000000000E+00  0.11387131746E+03  0.11387131746E+03  0.00000000000E+00 0.  1.
         21   -1    0    0  501  503 -0.00000000000E+00 -0.00000000000E+00 -0.41083908725E+03  0.41083908725E+03  0.00000000000E+00 0.  1.
          6    2    1    2  501    0 -0.30264471150E+02 -0.12634469793E+03 -0.16354440683E+03  0.27099532485E+03  0.17266375467E+03 0.  0.
         24    2    3    3    0    0 -0.20241801827E+02 -0.17037670468E+02 -0.13305140140E+03  0.15697605660E+03  0.78986037839E+02 0.  0.
         -6    2    1    2    0  502  0.30264471150E+02  0.12634469793E+03 -0.13342336296E+03  0.25371507986E+03  0.17230968358E+03 0.  0.
        -24    2    5    5    0    0  0.44363495714E+02  0.15118159274E+02 -0.22418426796E+02  0.95872401068E+02  0.80574517900E+02 0.  0.
          5    1    3    3  501    0 -0.10022669323E+02 -0.10930702747E+03 -0.30493005426E+02  0.11401926826E+03  0.47000000000E+01 0. -1.
        -13    1    4    4    0    0 -0.44654427795E+02 -0.13923405596E+02 -0.12068686673E+03  0.12943414907E+03  0.00000000000E+00 0.  1.
         14    1    4    4    0    0  0.24412625968E+02 -0.31142648717E+01 -0.12364534670E+02  0.27541907522E+02  0.00000000000E+00 0. -1.
         -5    1    5    5    0  502 -0.14099024564E+02  0.11122653866E+03 -0.11100493616E+03  0.15784267879E+03  0.47000000000E+01 0.  1.
         13    1    6    6    0    0 -0.19889043448E+01  0.20960375468E+02 -0.40604415445E+02  0.45738513682E+02  0.00000000000E+00 0. -1.
        -14    1    6    6    0    0  0.46352400059E+02 -0.58422161940E+01  0.18185988649E+02  0.50133887386E+02  0.00000000000E+00 0.  1.
<mgrwt>
<rscale>  2 0.21601187E+03</rscale>
<asrwt>0</asrwt>
<pdfrwt beam="1">  1       21 0.17518664E-01 0.21608261E+03</pdfrwt>
<pdfrwt beam="2">  1       21 0.63206014E-01 0.21608261E+03</pdfrwt>
<totfact> 0.67650050E+04</totfact>
</mgrwt>
</event>
<event>
12    1  0.1013215E-001  0.1786605E+03  0.7546771E-02  0.1169547E+00
         21   -1    0    0  501  502  0.00000000000E+00  0.00000000000E+00  0.12313164385E+03  0.12313164385E+03  0.00000000000E+00 0.  1.
         21   -1    0    0  502  503 -0.00000000000E+00 -0.00000000000E+00 -0.34445613140E+03  0.34445613140E+03  0.00000000000E+00 0. -1.
         -6    2    1    2    0  503  0.89614191527E+00  0.42253692042E+02 -0.22912827456E+03  0.29055009211E+03  0.17358978155E+03 0.  0.
        -24    2    3    3    0    0 -0.57944239215E+02  0.47617500374E+02 -0.84455305246E+02  0.13420649952E+03  0.72482582248E+02 0.  0.
          6    2    1    2  501    0 -0.89614191527E+00 -0.42253692042E+02  0.78037870184E+01  0.17703768314E+03  0.17174185454E+03 0.  0.
         24    2    5    5    0    0  0.52681402109E-01  0.35078006679E+02 -0.27541086286E+02  0.91876412830E+02  0.80326175515E+02 0.  0.
          5    1    5    5  501    0 -0.94882331738E+00 -0.77331698721E+02  0.35344873304E+02  0.85161270314E+02  0.47000000000E+01 0. -1.
        -13    1    6    6    0    0 -0.18509000523E+02 -0.45753023170E+01  0.19735129506E+02  0.27440696571E+02  0.00000000000E+00 0.  1.
         14    1    6    6    0    0  0.18561681925E+02  0.39653308996E+02 -0.47276215792E+02  0.64435716259E+02  0.00000000000E+00 0. -1.
         -5    1    3    3    0  503  0.58840381131E+02 -0.53638083327E+01 -0.14467296932E+03  0.15634359259E+03  0.47000000000E+01 0.  1.
         11    1    4    4    0    0 -0.44094782525E+02  0.50737225854E+02 -0.95102688384E+02  0.11646088301E+03  0.00000000000E+00 0. -1.
        -12    1    4    4    0    0 -0.13849456691E+02 -0.31197254797E+01  0.10647383138E+02  0.17745616512E+02  0.00000000000E+00 0.  1.
<mgrwt>
<rscale>  2 0.17821011E+03</rscale>
<asrwt>0</asrwt>
<pdfrwt beam="1">  1       21 0.18943330E-01 0.17866054E+03</pdfrwt>
<pdfrwt beam="2">  1       21 0.52993251E-01 0.17866054E+03</pdfrwt>
<totfact> 0.86643943E+04</totfact>
</mgrwt>
</event>
<event>
12    1  0.1013215E-001  0.2146475E+03  0.7546771E-02  0.1138212E+00
         21   -1    0    0  503  502  0.00000000000E+00  0.00000000000E+00  0.51461710763E+02  0.51461710763E+02  0.00000000000E+00 0. -1.
         21   -1    0    0  501  503 -0.00000000000E+00 -0.00000000000E+00 -0.94928240907E+03  0.94928240907E+03  0.00000000000E+00 0. -1.
          6    2    1    2  501    0 -0.36514898131E+02  0.11764015185E+03 -0.57319929761E+03  0.61157497560E+03  0.17405163856E+03 0.  0.
         24    2    3    3    0    0  0.14331331166E+02  0.12755803979E+03 -0.49959128471E+03  0.52144211202E+03  0.76380520143E+02 0.  0.
         -6    2    1    2    0  502  0.36514898131E+02 -0.11764015185E+03 -0.32462140070E+03  0.38916914424E+03  0.17578687641E+03 0.  0.
        -24    2    5    5    0    0  0.11468327726E+02 -0.15091079270E+03 -0.24366067280E+03  0.29800448171E+03  0.80811866420E+02 0.  0.
          5    1    3    3  501    0 -0.50846229296E+02 -0.99178879376E+01 -0.73608012899E+02  0.90132863583E+02  0.47000000000E+01 0. -1.
        -11    1    4    4    0    0 -0.11588288386E+02  0.33970260661E+02 -0.50404816296E+02  0.61878207335E+02  0.00000000000E+00 0.  1.
         12    1    4    4    0    0  0.25919619552E+02  0.93587779131E+02 -0.44918646841E+03  0.45956390468E+03  0.00000000000E+00 0. -1.
         -5    1    5    5    0  502  0.25046570405E+02  0.33270640849E+02 -0.80960727901E+02  0.91164662528E+02  0.47000000000E+01 0.  1.
         11    1    6    6    0    0 -0.27213604765E+02 -0.57641660487E+02 -0.13715249103E+03  0.15124135381E+03  0.00000000000E+00 0. -1.
        -12    1    6    6    0    0  0.38681932491E+02 -0.93269132216E+02 -0.10650818177E+03  0.14676312790E+03  0.00000000000E+00 0.  1.
<mgrwt>
<rscale>  2 0.21429197E+03</rscale>
<asrwt>0</asrwt>
<pdfrwt beam="1">  1       21 0.79171859E-02 0.21464755E+03</pdfrwt>
<pdfrwt beam="2">  1       21 0.14604345E+00 0.21464755E+03</pdfrwt>
<totfact> 0.38679555E+04</totfact>
</mgrwt>
</event>
<event>
12    1  0.1013215E-001  0.4700953E+03  0.7546771E-02  0.1021919E+00
         21   -1    0    0  501  502  0.00000000000E+00  0.00000000000E+00  0.72470108943E+03  0.72470108943E+03  0.00000000000E+00 0.  1.
         21   -1    0    0  502  503 -0.00000000000E+00 -0.00000000000E+00 -0.42819520459E+03  0.42819520459E+03  0.00000000000E+00 0.  1.
         -6    2    1    2    0  503  0.43548361582E+03  0.34842181827E+02 -0.16128002551E+03  0.49699175661E+03  0.17357880696E+03 0.  0.
        -24    2    3    3    0    0  0.43055747886E+03  0.26916670656E+02 -0.12055738576E+03  0.45495006373E+03  0.79631824430E+02 0.  0.
          6    2    1    2  501    0 -0.43548361582E+03 -0.34842181827E+02  0.45778591035E+03  0.65590453742E+03  0.17257712830E+03 0.  0.
         24    2    5    5    0    0 -0.38110994701E+03 -0.81349270537E+02  0.39529749206E+03  0.56079251094E+03  0.79784945789E+02 0.  0.
          5    1    5    5  501    0 -0.54373668813E+02  0.46507088711E+02  0.62488418290E+02  0.95112026479E+02  0.47000000000E+01 0. -1.
        -13    1    6    6    0    0 -0.21365091123E+03 -0.28539460053E+02  0.26793943605E+03  0.34387898168E+03  0.00000000000E+00 0.  1.
         14    1    6    6    0    0 -0.16745903578E+03 -0.52809810484E+02  0.12735805601E+03  0.21691352926E+03  0.00000000000E+00 0. -1.
         -5    1    3    3    0  503  0.49261369617E+01  0.79255111706E+01 -0.40722639742E+02  0.42041692881E+02  0.47000000000E+01 0.  1.
         13    1    4    4    0    0  0.16534831388E+02 -0.11738101273E+02 -0.16911886050E+02  0.26404460993E+02  0.00000000000E+00 0. -1.
        -14    1    4    4    0    0  0.41402264747E+03  0.38654771930E+02 -0.10364549971E+03  0.42854560273E+03  0.00000000000E+00 0.  1.
<mgrwt>
<rscale>  2 0.47000300E+03</rscale>
<asrwt>0</asrwt>
<pdfrwt beam="1">  1       21 0.11149248E+00 0.47009527E+03</pdfrwt>
<pdfrwt beam="2">  1       21 0.65876185E-01 0.47009527E+03</pdfrwt>
<totfact> 0.11305492E+03</totfact>
</mgrwt>
</event>
<event>
12    1  0.1013215E-001  0.2000344E+03  0.7546771E-02  0.1151144E+00
         21   -1    0    0  501  502  0.00000000000E+00  0.00000000000E+00  0.84227979722E+03  0.84227979722E+03  0.00000000000E+00 0.  1.
         21   -1    0    0  502  503 -0.00000000000E+00 -0.00000000000E+00 -0.51752593553E+02  0.51752593553E+02  0.00000000000E+00 0. -1.
         -6    2    1    2    0  503  0.11568408429E+01 -0.10121107337E+03  0.25134658570E+03  0.32123022827E+03  0.17253618102E+03 0.  0.
        -24    2    3    3    0    0 -0.64391309681E+02 -0.53160996485E+02  0.11943007922E+03  0.16621595600E+03  0.79949158206E+02 0.  0.
          6    2    1    2  501    0 -0.11568408429E+01  0.10121107337E+03  0.53918061797E+03  0.57280216250E+03  0.16474695421E+03 0.  0.
         24    2    5    5    0    0  0.17509430413E+02  0.10236418573E+03  0.53811995709E+03  0.55348961859E+03  0.77412292311E+02 0.  0.
          5    1    5    5  501    0 -0.18666271256E+02 -0.11531123606E+01  0.10606608805E+01  0.19312543909E+02  0.47000000000E+01 0. -1.
        -13    1    6    6    0    0 -0.19596863558E+02  0.81925818512E+02  0.40945134727E+03  0.41802665296E+03  0.00000000000E+00 0.  1.
         14    1    6    6    0    0  0.37106293971E+02  0.20438367214E+02  0.12866860982E+03  0.13546296564E+03  0.00000000000E+00 0. -1.
         -5    1    3    3    0  503  0.65548150523E+02 -0.48050076881E+02  0.13191650648E+03  0.15501427227E+03  0.47000000000E+01 0.  1.
         11    1    4    4    0    0 -0.84213054500E+01 -0.19465939539E+02 -0.82781697790E+01  0.22767724579E+02  0.00000000000E+00 0. -1.
        -12    1    4    4    0    0 -0.55970004231E+02 -0.33695056946E+02  0.12770824900E+03  0.14344823142E+03  0.00000000000E+00 0.  1.
<mgrwt>
<rscale>  2 0.19834349E+03</rscale>
<asrwt>0</asrwt>
<pdfrwt beam="1">  1       21 0.12958150E+00 0.20003438E+03</pdfrwt>
<pdfrwt beam="2">  1       21 0.79619381E-02 0.20003438E+03</pdfrwt>
<totfact> 0.52521999E+04</totfact>
</mgrwt>
</event>
<event>
12    1  0.1013215E-001  0.1903871E+03  0.7546771E-02  0.1158918E+00
         21   -1    0    0  501  502  0.00000000000E+00  0.00000000000E+00  0.28621451644E+03  0.28621451644E+03  0.00000000000E+00 0.  1.
         21   -1    0    0  502  503 -0.00000000000E+00 -0.00000000000E+00 -0.17420189796E+03  0.17420189796E+03  0.00000000000E+00 0.  1.
         -6    2    1    2    0  503  0.70518855697E+02  0.60651394889E+00 -0.66829818140E+02  0.20177578348E+03  0.17684446651E+03 0.  0.
        -24    2    3    3    0    0 -0.29995014197E+02 -0.14120323120E+02 -0.32146506183E+02  0.94328401472E+02  0.82251839267E+02 0.  0.
          6    2    1    2  501    0 -0.70518855697E+02 -0.60651394889E+00  0.17884243661E+03  0.25864063093E+03  0.17302335670E+03 0.  0.
         24    2    5    5    0    0 -0.22660603855E+02  0.15571247722E+02  0.18865026445E+03  0.20696456559E+03  0.80557075480E+02 0.  0.
          5    1    5    5  501    0 -0.47858251842E+02 -0.16177761671E+02 -0.98078278346E+01  0.51676065338E+02  0.47000000000E+01 0. -1.
        -11    1    6    6    0    0 -0.33008134405E+02 -0.11590071060E+02  0.16725232227E+03  0.17087189935E+03  0.00000000000E+00 0.  1.
         12    1    6    6    0    0  0.10347530549E+02  0.27161318783E+02  0.21397942180E+02  0.36092666236E+02  0.00000000000E+00 0. -1.
         -5    1    3    3    0  503  0.10051386989E+03  0.14726837069E+02 -0.34683311957E+02  0.10744738200E+03  0.47000000000E+01 0.  1.
         11    1    4    4    0    0  0.13663764257E+02 -0.36215079487E+02 -0.70760653499E+01  0.39348457870E+02  0.00000000000E+00 0. -1.
        -12    1    4    4    0    0 -0.43658778453E+02  0.22094756367E+02 -0.25070440833E+02  0.54979943602E+02  0.00000000000E+00 0.  1.
<mgrwt>
<rscale>  2 0.18949485E+03</rscale>
<asrwt>0</asrwt>
<pdfrwt beam="1">  1       21 0.44033002E-01 0.19038709E+03</pdfrwt>
<pdfrwt beam="2">  1       21 0.26800292E-01 0.19038709E+03</pdfrwt>
<totfact> 0.65749424E+04</totfact>
</mgrwt>
</event>
<event>
12    1  0.1013215E-001  0.2006675E+03  0.7546771E-02  0.1149458E+00
         21   -1    0    0  503  502  0.00000000000E+00  0.00000000000E+00  0.11533871534E+03  0.11533871534E+03  0.00000000000E+00 0.  1.
         21   -1    0    0  501  503 -0.00000000000E+00 -0.00000000000E+00 -0.38445194340E+03  0.38445194340E+03  0.00000000000E+00 0. -1.
          6    2    1    2  501    0 -0.10037247240E+03  0.97274013052E+01 -0.21234799651E+03  0.29124873943E+03  0.17194447082E+03 0.  0.
         24    2    3    3    0    0 -0.13733733207E+03  0.28973686921E+01 -0.13899611068E+03  0.20869185389E+03  0.73228638991E+02 0.  0.
         -6    2    1    2    0  502  0.10037247240E+03 -0.97274013052E+01 -0.56765231553E+02  0.20854191931E+03  0.17348828503E+03 0.  0.
        -24    2    5    5    0    0  0.41715225290E+02 -0.61612909837E+02 -0.54608632724E+02  0.13005931262E+03  0.91635208033E+02 0.  0.
          5    1    3    3  501    0  0.36964859673E+02  0.68300326130E+01 -0.73351885825E+02  0.82556885541E+02  0.47000000000E+01 0. -1.
        -11    1    4    4    0    0 -0.85365180595E+02  0.32948524266E+02 -0.10655666390E+03  0.14045334432E+03  0.00000000000E+00 0.  1.
         12    1    4    4    0    0 -0.51972151478E+02 -0.30051155574E+02 -0.32439446783E+02  0.68238509569E+02  0.00000000000E+00 0. -1.
         -5    1    5    5    0  502  0.58657247110E+02  0.51885508532E+02 -0.21565988296E+01  0.78482606689E+02  0.47000000000E+01 0.  1.
         11    1    6    6    0    0  0.81629348931E+01  0.11212321748E+02 -0.47590297160E+02  0.49570011588E+02  0.00000000000E+00 0. -1.
        -12    1    6    6    0    0  0.33552290397E+02 -0.72825231585E+02 -0.70183355632E+01  0.80489301030E+02  0.00000000000E+00 0.  1.
<mgrwt>
<rscale>  2 0.20033335E+03</rscale>
<asrwt>0</asrwt>
<pdfrwt beam="1">  1       21 0.17744418E-01 0.20066749E+03</pdfrwt>
<pdfrwt beam="2">  1       21 0.59146452E-01 0.20066749E+03</pdfrwt>
<totfact> 0.76757661E+04</totfact>
</mgrwt>
</event>
<event>
12    1  0.1013215E-001  0.2042789E+03  0.7546771E-02  0.1146222E+00
         21   -1    0    0  503  502  0.00000000000E+00  0.00000000000E+00  0.10592244984E+03  0.10592244984E+03  0.00000000000E+00 0. -1.
         21   -1    0    0  501  503 -0.00000000000E+00 -0.00000000000E+00 -0.43193926327E+03  0.43193926327E+03  0.00000000000E+00 0. -1.
          6    2    1    2  501    0  0.33436871516E+02 -0.10575808353E+03 -0.24324959601E+03  0.31764798845E+03  0.17154323654E+03 0.  0.
         24    2    3    3    0    0  0.58394362197E+02 -0.12385530296E+03 -0.23824073990E+03  0.28606374663E+03  0.79522194231E+02 0.  0.
         -6    2    1    2    0  502 -0.33436871516E+02  0.10575808353E+03 -0.82767217417E+02  0.22021372466E+03  0.17129178509E+03 0.  0.
        -24    2    5    5    0    0  0.22213215271E+02  0.10353290352E+03 -0.15693311858E+02  0.13290460490E+03  0.78770964974E+02 0.  0.
          5    1    3    3  501    0 -0.24957490682E+02  0.18097219433E+02 -0.50088561038E+01  0.31584241828E+02  0.47000000000E+01 0. -1.
        -11    1    4    4    0    0  0.59654918317E+02 -0.38959942602E+02 -0.13262037173E+03  0.15054816307E+03  0.00000000000E+00 0.  1.
         12    1    4    4    0    0 -0.12605561198E+01 -0.84895360360E+02 -0.10562036818E+03  0.13551558355E+03  0.00000000000E+00 0. -1.
         -5    1    5    5    0  502 -0.55650086787E+02  0.22251800066E+01 -0.67073905559E+02  0.87309119755E+02  0.47000000000E+01 0.  1.
         11    1    6    6    0    0  0.22775309570E+02 -0.49211257338E+01 -0.57118396936E+01  0.23990775669E+02  0.00000000000E+00 0. -1.
        -12    1    6    6    0    0 -0.56209429853E+00  0.10845402926E+03 -0.99814721648E+01  0.10891382923E+03  0.00000000000E+00 0.  1.
<mgrwt>
<rscale>  2 0.20422613E+03</rscale>
<asrwt>0</asrwt>
<pdfrwt beam="1">  1       21 0.16295762E-01 0.20427892E+03</pdfrwt>
<pdfrwt beam="2">  1       21 0.66452194E-01 0.20427892E+03</pdfrwt>
<totfact> 0.69662163E+04</totfact>
</mgrwt>
</event>
<event>
12    1  0.1013215E-001  0.1881193E+03  0.7546771E-02  0.1160511E+00
         21   -1    0    0  503  502  0.00000000000E+00  0.00000000000E+00  0.37852487985E+03  0.37852487985E+03  0.00000000000E+00 0.  1.
         21   -1    0    0  501  503 -0.00000000000E+00 -0.00000000000E+00 -0.92845132064E+02  0.92845132064E+02  0.00000000000E+00 0.  1.
          6    2    1    2  501    0 -0.86555086415E-01 -0.69223993012E+02  0.15088801213E+03  0.24115571625E+03  0.17491974895E+03 0.  0.
         24    2    3    3    0    0 -0.54009952351E+02 -0.85913093433E+02  0.12279030232E+03  0.17792731961E+03  0.79262463636E+02 0.  0.
         -6    2    1    2    0  502  0.86555086415E-01  0.69223993012E+02  0.13479173565E+03  0.23021429566E+03  0.17331428455E+03 0.  0.
        -24    2    5    5    0    0  0.83303414541E+01  0.85103092794E+00  0.57040699589E+01  0.83829400978E+02  0.83214861725E+02 0.  0.
          5    1    3    3  501    0  0.53923397265E+02  0.16689100420E+02  0.28097709810E+02  0.63228396643E+02  0.47000000000E+01 0. -1.
        -13    1    4    4    0    0 -0.74322469061E+02 -0.62358108161E+02  0.85025350951E+02  0.12900260992E+03  0.00000000000E+00 0.  1.
         14    1    4    4    0    0  0.20312516709E+02 -0.23554985272E+02  0.37764951371E+02  0.48924709691E+02  0.00000000000E+00 0. -1.
         -5    1    5    5    0  502 -0.82437863677E+01  0.68372962084E+02  0.12908766570E+03  0.14638489469E+03  0.47000000000E+01 0.  1.
         11    1    6    6    0    0 -0.20020015152E+01 -0.13006528443E+02  0.41792195600E+02  0.43815127585E+02  0.00000000000E+00 0. -1.
        -12    1    6    6    0    0  0.10332342969E+02  0.13857559371E+02 -0.36088125641E+02  0.40014273394E+02  0.00000000000E+00 0.  1.
<mgrwt>
<rscale>  2 0.18774526E+03</rscale>
<asrwt>0</asrwt>
<pdfrwt beam="1">  1       21 0.58234596E-01 0.18811934E+03</pdfrwt>
<pdfrwt beam="2">  1       21 0.14283867E-01 0.18811934E+03</pdfrwt>
<totfact> 0.11863234E+05</totfact>
</mgrwt>
</event>
<event>
12    1  0.1013215E-001  0.2125668E+03  0.7546771E-02  0.1139655E+00
         21   -1    0    0  503  502  0.00000000000E+00  0.00000000000E+00  0.36094254447E+03  0.36094254447E+03  0.00000000000E+00 0. -1.
         21   -1    0    0  501  503 -0.00000000000E+00 -0.00000000000E+00 -0.13507692256E+03  0.13507692256E+03  0.00000000000E+00 0.  1.
          6    2    1    2  501    0  0.25585913662E+02  0.12050275117E+03  0.44617604573E+02  0.21667113429E+03  0.17256911016E+03 0.  0.
         24    2    3    3    0    0 -0.50901149700E+00  0.51754319401E+02 -0.40746893074E+02  0.10390376557E+03  0.80354928506E+02 0.  0.
         -6    2    1    2    0  502 -0.25585913662E+02 -0.12050275117E+03  0.18124801734E+03  0.27934833273E+03  0.17323133432E+03 0.  0.
        -24    2    5    5    0    0 -0.49894233642E+02 -0.69375224246E+01  0.65641412878E+02  0.11541257520E+03  0.80459329244E+02 0.  0.
          5    1    3    3  501    0  0.26094925159E+02  0.68748431772E+02  0.85364497648E+02  0.11276736872E+03  0.47000000000E+01 0. -1.
        -13    1    4    4    0    0  0.57831290236E+01  0.70787383775E+02 -0.44068502326E+02  0.83584275916E+02  0.00000000000E+00 0.  1.
         14    1    4    4    0    0 -0.62921405206E+01 -0.19033064374E+02  0.33216092523E+01  0.20319489655E+02  0.00000000000E+00 0. -1.
         -5    1    5    5    0  502  0.24308319980E+02 -0.11356522875E+03  0.11560660446E+03  0.16393575753E+03  0.47000000000E+01 0.  1.
         13    1    6    6    0    0 -0.16368753847E+02 -0.14194148235E+02  0.76439988656E+02  0.79451128452E+02  0.00000000000E+00 0. -1.
        -14    1    6    6    0    0 -0.33525479794E+02  0.72566258106E+01 -0.10798575778E+02  0.35961446751E+02  0.00000000000E+00 0.  1.
<mgrwt>
<rscale>  2 0.21243184E+03</rscale>
<asrwt>0</asrwt>
<pdfrwt beam="1">  1       21 0.55529622E-01 0.21256681E+03</pdfrwt>
<pdfrwt beam="2">  1       21 0.20781065E-01 0.21256681E+03</pdfrwt>
<totfact> 0.65084927E+04</totfact>
</mgrwt>
</event>
<event>
12    1  0.1013215E-001  0.1953851E+03  0.7546771E-02  0.1153886E+00
         21   -1    0    0  503  502  0.00000000000E+00  0.00000000000E+00  0.24853151984E+02  0.24853151984E+02  0.00000000000E+00 0. -1.
         21   -1    0    0  501  503 -0.00000000000E+00 -0.00000000000E+00 -0.15917170818E+04  0.15917170818E+04  0.00000000000E+00 0.  1.
          6    2    1    2  501    0  0.47595108761E+02 -0.78839191567E+02 -0.94551824503E+03  0.96549472885E+03  0.17232065243E+03 0.  0.
         24    2    3    3    0    0  0.73223755785E+02 -0.74599731229E+02 -0.91749584167E+03  0.92699608391E+03  0.81217496865E+02 0.  0.
         -6    2    1    2    0  502 -0.47595108761E+02  0.78839191567E+02 -0.62134568475E+03  0.65107550490E+03  0.17131240647E+03 0.  0.
        -24    2    5    5    0    0 -0.76568923174E+02  0.97291387923E+02 -0.38855966423E+03  0.41572175663E+03  0.80731357666E+02 0.  0.
          5    1    3    3  501    0 -0.25628647023E+02 -0.42394603378E+01 -0.28022403361E+02  0.38498644941E+02  0.47000000000E+01 0. -1.
        -13    1    4    4    0    0  0.38218432377E+00 -0.41041277753E+02 -0.51217683686E+03  0.51381868860E+03  0.00000000000E+00 0.  1.
         14    1    4    4    0    0  0.72841571461E+02 -0.33558453476E+02 -0.40531900481E+03  0.41317739531E+03  0.00000000000E+00 0. -1.
         -5    1    5    5    0  502  0.28973814413E+02 -0.18452196355E+02 -0.23278602053E+03  0.23535374827E+03  0.47000000000E+01 0.  1.
         11    1    6    6    0    0 -0.50008591810E+02  0.83981545545E+01 -0.92783858616E+02  0.10573661936E+03  0.00000000000E+00 0. -1.
        -12    1    6    6    0    0 -0.26560331365E+02  0.88893233368E+02 -0.29577580561E+03  0.30998513727E+03  0.00000000000E+00 0.  1.
<mgrwt>
<rscale>  2 0.19516251E+03</rscale>
<asrwt>0</asrwt>
<pdfrwt beam="1">  1       21 0.38235619E-02 0.19538506E+03</pdfrwt>
<pdfrwt beam="2">  1       21 0.24487955E+00 0.19538506E+03</pdfrwt>
<totfact> 0.30056127E+04</totfact>
</mgrwt>
</event>
<event>
12    1  0.1013215E-001  0.1811765E+03  0.7546771E-02  0.1167048E+00
         21   -1    0    0  503  502  0.00000000000E+00  0.00000000000E+00  0.46210025088E+03  0.46210025088E+03  0.00000000000E+00 0.  1.
         21   -1    0    0  501  503 -0.00000000000E+00 -0.00000000000E+00 -0.80384958635E+02  0.80384958635E+02  0.00000000000E+00 0.  1.
          6    2    1    2  501    0 -0.49163053641E+02 -0.22997713497E+02  0.94630254896E+02  0.20301101967E+03  0.17120948658E+03 0.  0.
         24    2    3    3    0    0  0.29407727847E+02 -0.37083468722E+02  0.74568291615E+02  0.12057105015E+03  0.82078924884E+02 0.  0.
         -6    2    1    2    0  502  0.49163053641E+02  0.22997713497E+02  0.28708503735E+03  0.33947418985E+03  0.17285544895E+03 0.  0.
        -24    2    5    5    0    0 -0.36507374037E+02  0.15153492872E+02  0.10243683915E+03  0.13571452486E+03  0.79766594122E+02 0.  0.
          5    1    3    3  501    0 -0.78570781488E+02  0.14085755225E+02  0.20061963281E+02  0.82439969521E+02  0.47000000000E+01 0. -1.
        -11    1    4    4    0    0 -0.45405946296E+01 -0.34547800662E+02 -0.38745525949E+01  0.35059658983E+02  0.00000000000E+00 0.  1.
         12    1    4    4    0    0  0.33948322476E+02 -0.25356680598E+01  0.78442844210E+02  0.85511391166E+02  0.00000000000E+00 0. -1.
         -5    1    5    5    0  502  0.85670427679E+02  0.78442206248E+01  0.18464819820E+03  0.20375966499E+03  0.47000000000E+01 0.  1.
         11    1    6    6    0    0 -0.49592915583E+02  0.21419776321E+02  0.10753090072E+03  0.12033768613E+03  0.00000000000E+00 0. -1.
        -12    1    6    6    0    0  0.13085541546E+02 -0.62662834490E+01 -0.50940615766E+01  0.15376838724E+02  0.00000000000E+00 0.  1.
<mgrwt>
<rscale>  2 0.18078275E+03</rscale>
<asrwt>0</asrwt>
<pdfrwt beam="1">  1       21 0.71092344E-01 0.18117645E+03</pdfrwt>
<pdfrwt beam="2">  1       21 0.12366917E-01 0.18117645E+03</pdfrwt>
<totfact> 0.10000412E+05</totfact>
</mgrwt>
</event>
<event>
12    1  0.1013215E-001  0.1806850E+03  0.7546771E-02  0.1167673E+00
         21   -1    0    0  503  502  0.00000000000E+00  0.00000000000E+00  0.43037781538E+02  0.43037781538E+02  0.00000000000E+00 0. -1.
         21   -1    0    0  501  503 -0.00000000000E+00 -0.00000000000E+00 -0.76405259882E+03  0.76405259882E+03  0.00000000000E+00 0. -1.
          6    2    1    2  501    0 -0.30021324891E+02  0.27853945618E+02 -0.41855277477E+03  0.45588760245E+03  0.17598283601E+03 0.  0.
         24    2    3    3    0    0 -0.16650578271E+02 -0.50938341774E+02 -0.27444231147E+03  0.29103337275E+03  0.80683860296E+02 0.  0.
         -6    2    1    2    0  502  0.30021324891E+02 -0.27853945618E+02 -0.30246204252E+03  0.35120277791E+03  0.17373250074E+03 0.  0.
        -24    2    5    5    0    0 -0.16914547748E+01 -0.75643730704E+02 -0.15176367565E+03  0.18989049775E+03  0.85447954190E+02 0.  0.
          5    1    3    3  501    0 -0.13370746619E+02  0.78792287393E+02 -0.14411046330E+03  0.16485422970E+03  0.47000000000E+01 0. -1.
        -13    1    4    4    0    0 -0.45585471950E+02 -0.10648011299E+02 -0.14718892202E+03  0.15445385771E+03  0.00000000000E+00 0.  1.
         14    1    4    4    0    0  0.28934893679E+02 -0.40290330475E+02 -0.12725338945E+03  0.13657951504E+03  0.00000000000E+00 0. -1.
         -5    1    5    5    0  502  0.31712779666E+02  0.47789785086E+02 -0.15069836687E+03  0.16131228016E+03  0.47000000000E+01 0.  1.
         11    1    6    6    0    0 -0.11975256301E+02 -0.30192469198E+02 -0.14433523849E+01  0.32512693303E+02  0.00000000000E+00 0. -1.
        -12    1    6    6    0    0  0.10283801527E+02 -0.45451261507E+02 -0.15032032326E+03  0.15737780445E+03  0.00000000000E+00 0.  1.
<mgrwt>
<rscale>  2 0.18013476E+03</rscale>
<asrwt>0</asrwt>
<pdfrwt beam="1">  1       21 0.66211976E-02 0.18068503E+03</pdfrwt>
<pdfrwt beam="2">  1       21 0.11754655E+00 0.18068503E+03</pdfrwt>
<totfact> 0.93011881E+04</totfact>
</mgrwt>
</event>
<event>
12    1  0.1013215E-001  0.2409430E+03  0.7546771E-02  0.1119200E+00
         21   -1    0    0  503  502  0.00000000000E+00  0.00000000000E+00  0.11876116318E+04  0.11876116318E+04  0.00000000000E+00 0. -1.
         21   -1    0    0  501  503 -0.00000000000E+00 -0.00000000000E+00 -0.71818522285E+02  0.71818522285E+02  0.00000000000E+00 0.  1.
          6    2    1    2  501    0 -0.16668644188E+03  0.65947727313E+01  0.20187469112E+03  0.31433565872E+03  0.17385526883E+03 0.  0.
         24    2    3    3    0    0 -0.18863967570E+03 -0.18412003028E+02  0.18607397056E+03  0.27720028368E+03  0.79325567438E+02 0.  0.
         -6    2    1    2    0  502  0.16668644188E+03 -0.65947727313E+01  0.91391841838E+03  0.94509449534E+03  0.17357669412E+03 0.  0.
        -24    2    5    5    0    0  0.65177559030E+02  0.12769749378E+02  0.21509998274E+03  0.23866096414E+03  0.79245646766E+02 0.  0.
          5    1    3    3  501    0  0.21953233828E+02  0.25006775759E+02  0.15800720563E+02  0.37135375044E+02  0.47000000000E+01 0. -1.
        -13    1    4    4    0    0 -0.33407957022E+02  0.27769191438E+02  0.36460852281E+02  0.56715194917E+02  0.00000000000E+00 0.  1.
         14    1    4    4    0    0 -0.15523171868E+03 -0.46181194465E+02  0.14961311827E+03  0.22048508876E+03  0.00000000000E+00 0. -1.
         -5    1    5    5    0  502  0.10150888285E+03 -0.19364522109E+02  0.69881843564E+03  0.70643353120E+03  0.47000000000E+01 0.  1.
         13    1    6    6    0    0 -0.18520807403E+02  0.47186711087E+01  0.45876018946E+02  0.49698040990E+02  0.00000000000E+00 0. -1.
        -14    1    6    6    0    0  0.83698366434E+02  0.80510782692E+01  0.16922396379E+03  0.18896292315E+03  0.00000000000E+00 0.  1.
<mgrwt>
<rscale>  2 0.24089272E+03</rscale>
<asrwt>0</asrwt>
<pdfrwt beam="1">  1       21 0.18270947E+00 0.24094297E+03</pdfrwt>
<pdfrwt beam="2">  1       21 0.11049004E-01 0.24094297E+03</pdfrwt>
<totfact> 0.11449358E+04</totfact>
</mgrwt>
</event>
<event>
12    1  0.1013215E-001  0.2159487E+03  0.7546771E-02  0.1137294E+00
         21   -1    0    0  501  502  0.00000000000E+00  0.00000000000E+00  0.61498878543E+03  0.61498878543E+03  0.00000000000E+00 0. -1.
         21   -1    0    0  502  503 -0.00000000000E+00 -0.00000000000E+00 -0.14153912854E+03  0.14153912854E+03  0.00000000000E+00 0.  1.
         -6    2    1    2    0  503 -0.12669003623E+03  0.11367876039E+02 -0.22811696413E+02  0.21531709218E+03  0.17222509343E+03 0.  0.
        -24    2    3    3    0    0 -0.14756707102E+03 -0.24136449410E+02 -0.31950353159E+02  0.17286697140E+03  0.80644628422E+02 0.  0.
          6    2    1    2  501    0  0.12669003623E+03 -0.11367876039E+02  0.49626135330E+03  0.54121082179E+03  0.17451140066E+03 0.  0.
         24    2    5    5    0    0  0.15519361927E+02  0.38404333074E+02  0.18256865999E+03  0.20466752969E+03  0.82714803418E+02 0.  0.
          5    1    5    5  501    0  0.11117067430E+03 -0.49772209113E+02  0.31369269331E+03  0.33654329210E+03  0.47000000000E+01 0. -1.
        -13    1    6    6    0    0 -0.48097302237E+00  0.26013414248E+02  0.56872455998E+01  0.26632195148E+02  0.00000000000E+00 0.  1.
         14    1    6    6    0    0  0.16000334950E+02  0.12390918826E+02  0.17688141439E+03  0.17803533454E+03  0.00000000000E+00 0. -1.
         -5    1    3    3    0  503  0.20877034793E+02  0.35504325448E+02  0.91386567455E+01  0.42450120782E+02  0.47000000000E+01 0.  1.
         11    1    4    4    0    0 -0.92014610826E+02  0.15891986088E+02  0.77852630040E+01  0.93700875915E+02  0.00000000000E+00 0. -1.
        -12    1    4    4    0    0 -0.55552460199E+02 -0.40028435498E+02 -0.39735616163E+02  0.79166095485E+02  0.00000000000E+00 0.  1.
<mgrwt>
<rscale>  2 0.21548633E+03</rscale>
<asrwt>0</asrwt>
<pdfrwt beam="1">  1       21 0.94613658E-01 0.21594866E+03</pdfrwt>
<pdfrwt beam="2">  1       21 0.21775251E-01 0.21594866E+03</pdfrwt>
<totfact> 0.18143553E+04</totfact>
</mgrwt>
</event>
<event>
12    1  0.1013215E-001  0.2247195E+03  0.7546771E-02  0.1130699E+00
         21   -1    0    0  501  502  0.00000000000E+00  0.00000000000E+00  0.36439654679E+03  0.36439654679E+03  0.00000000000E+00 0.  1.
         21   -1    0    0  502  503 -0.00000000000E+00 -0.00000000000E+00 -0.24860663576E+03  0.24860663576E+03  0.00000000000E+00 0. -1.
         -6    2    1    2    0  503  0.48481272292E+02 -0.13047433923E+03 -0.14678789088E+03  0.26841298258E+03  0.17642238336E+03 0.  0.
        -24    2    3    3    0    0 -0.20387945357E+02 -0.10663150480E+03 -0.14292383106E+03  0.19527974218E+03  0.76948099983E+02 0.  0.
          6    2    1    2  501    0 -0.48481272292E+02  0.13047433923E+03  0.26257780191E+03  0.34459019997E+03  0.17441707743E+03 0.  0.
         24    2    5    5    0    0 -0.89302742982E+02  0.56799138786E+02  0.13910818272E+03  0.19505336674E+03  0.86565624269E+02 0.  0.
          5    1    5    5  501    0  0.40821470690E+02  0.73675200441E+02  0.12346961920E+03  0.14953683323E+03  0.47000000000E+01 0. -1.
        -13    1    6    6    0    0 -0.36628425849E+02  0.66714414539E+02  0.49986739229E+02  0.91055635664E+02  0.00000000000E+00 0.  1.
         14    1    6    6    0    0 -0.52674317132E+02 -0.99152757524E+01  0.89121443488E+02  0.10399773107E+03  0.00000000000E+00 0. -1.
         -5    1    3    3    0  503  0.68869217648E+02 -0.23842834431E+02 -0.38640598230E+01  0.73133240401E+02  0.47000000000E+01 0.  1.
         13    1    4    4    0    0 -0.29984137167E+01 -0.10032276990E+03 -0.76136287165E+02  0.12597770783E+03  0.00000000000E+00 0. -1.
        -14    1    4    4    0    0 -0.17389531640E+02 -0.63087348942E+01 -0.66787543891E+02  0.69302034354E+02  0.00000000000E+00 0.  1.
<mgrwt>
<rscale>  2 0.22432573E+03</rscale>
<asrwt>0</asrwt>
<pdfrwt beam="1">  1       21 0.56061007E-01 0.22471948E+03</pdfrwt>
<pdfrwt beam="2">  1       21 0.38247175E-01 0.22471948E+03</pdfrwt>
<totfact> 0.19382301E+04</totfact>
</mgrwt>
</event>
<event>
12    1  0.1013215E-001  0.2183923E+03  0.7546771E-02  0.1135545E+00
         21   -1    0    0  503  502  0.00000000000E+00  0.00000000000E+00  0.19904971560E+03  0.19904971560E+03  0.00000000000E+00 0.  1.
         21   -1    0    0  501  503 -0.00000000000E+00 -0.00000000000E+00 -0.42632886455E+03  0.42632886455E+03  0.00000000000E+00 0.  1.
          6    2    1    2  501    0 -0.12451039660E+03  0.35946069631E+02  0.95103130862E+02  0.23598733583E+03  0.17277285200E+03 0.  0.
         24    2    3    3    0    0 -0.32797693269E+02 -0.15422682330E+02 -0.55372565333E+01  0.90383262374E+02  0.82613104853E+02 0.  0.
         -6    2    1    2    0  502  0.12451039660E+03 -0.35946069631E+02 -0.32238227981E+03  0.38939124433E+03  0.17578466384E+03 0.  0.
        -24    2    5    5    0    0  0.13411407402E+03 -0.61794021769E+02 -0.31868796975E+03  0.36117626291E+03  0.84149776270E+02 0.  0.
          5    1    3    3  501    0 -0.91712703332E+02  0.51368751960E+02  0.10064038740E+03  0.14560407345E+03  0.47000000000E+01 0. -1.
        -11    1    4    4    0    0 -0.32375330524E+02 -0.16136818112E+02  0.34706573638E+02  0.50130880493E+02  0.00000000000E+00 0.  1.
         12    1    4    4    0    0 -0.42236274450E+00  0.71413578228E+00 -0.40243830172E+02  0.40252381881E+02  0.00000000000E+00 0. -1.
         -5    1    5    5    0  502 -0.96036774230E+01  0.25847952139E+02 -0.36943100586E+01  0.28214981421E+02  0.47000000000E+01 0.  1.
         11    1    6    6    0    0  0.53626323974E+02 -0.69921049711E+02 -0.18507458155E+03  0.20498130781E+03  0.00000000000E+00 0. -1.
        -12    1    6    6    0    0  0.80487750050E+02  0.81270279422E+01 -0.13361338820E+03  0.15619495510E+03  0.00000000000E+00 0.  1.
<mgrwt>
<rscale>  2 0.21778559E+03</rscale>
<asrwt>0</asrwt>
<pdfrwt beam="1">  1       21 0.30623033E-01 0.21839232E+03</pdfrwt>
<pdfrwt beam="2">  1       21 0.65589055E-01 0.21839232E+03</pdfrwt>
<totfact> 0.21554592E+04</totfact>
</mgrwt>
</event>
<event>
12    1  0.1013215E-001  0.2179644E+03  0.7546771E-02  0.1135694E+00
         21   -1    0    0  503  502  0.00000000000E+00  0.00000000000E+00  0.31093685035E+03  0.31093685035E+03  0.00000000000E+00 0. -1.
         21   -1    0    0  501  503 -0.00000000000E+00 -0.00000000000E+00 -0.19482564862E+03  0.19482564862E+03  0.00000000000E+00 0. -1.
          6    2    1    2  501    0  0.13012241215E+03 -0.95647085207E+01 -0.60708484071E+02  0.22626091128E+03  0.17459998322E+03 0.  0.
         24    2    3    3    0    0  0.69938025664E+02 -0.46232500344E+02  0.30204679368E+02  0.11113497753E+03  0.66406995518E+02 0.  0.
         -6    2    1    2    0  502 -0.13012241215E+03  0.95647085207E+01  0.17681968580E+03  0.27950158769E+03  0.17272119281E+03 0.  0.
        -24    2    5    5    0    0 -0.12526238355E+03  0.50931282731E+02  0.17702865883E+03  0.23758563596E+03  0.82602228030E+02 0.  0.
          5    1    3    3  501    0  0.60184386481E+02  0.36667791823E+02 -0.90913163440E+02  0.11512593374E+03  0.47000000000E+01 0. -1.
        -11    1    4    4    0    0  0.34981460879E+02  0.11571147732E+02  0.22433926343E+02  0.43137861749E+02  0.00000000000E+00 0.  1.
         12    1    4    4    0    0  0.34956564785E+02 -0.57803648076E+02  0.77707530249E+01  0.67997115784E+02  0.00000000000E+00 0. -1.
         -5    1    5    5    0  502 -0.48600285970E+01 -0.41366574210E+02 -0.20897302852E+00  0.41915951732E+02  0.47000000000E+01 0.  1.
         11    1    6    6    0    0 -0.75756027684E+02 -0.13619377889E+02  0.81173526595E+02  0.11186422397E+03  0.00000000000E+00 0. -1.
        -12    1    6    6    0    0 -0.49506355864E+02  0.64550660620E+02  0.95855132237E+02  0.12572141199E+03  0.00000000000E+00 0.  1.
<mgrwt>
<rscale>  2 0.21758791E+03</rscale>
<asrwt>0</asrwt>
<pdfrwt beam="1">  1       21 0.47836439E-01 0.21796440E+03</pdfrwt>
<pdfrwt beam="2">  1       21 0.29973177E-01 0.21796440E+03</pdfrwt>
<totfact> 0.44041628E+04</totfact>
</mgrwt>
</event>
<event>
12    1  0.1013215E-001  0.2076589E+03  0.7546771E-02  0.1143791E+00
         21   -1    0    0  503  502  0.00000000000E+00  0.00000000000E+00  0.63422515539E+03  0.63422515539E+03  0.00000000000E+00 0.  1.
         21   -1    0    0  501  503 -0.00000000000E+00 -0.00000000000E+00 -0.81503095547E+02  0.81503095547E+02  0.00000000000E+00 0.  1.
          6    2    1    2  501    0  0.11381339392E+03  0.90505529074E+01  0.42613181229E+03  0.47403643338E+03  0.17345552047E+03 0.  0.
         24    2    3    3    0    0  0.10397054406E+03  0.74493286303E+01  0.16329261648E+03  0.21096614150E+03  0.83527646540E+02 0.  0.
         -6    2    1    2    0  502 -0.11381339392E+03 -0.90505529074E+01  0.12659024755E+03  0.24169181756E+03  0.17133138287E+03 0.  0.
        -24    2    5    5    0    0 -0.42163142148E+02 -0.52594958268E+02  0.11556922016E+03  0.15699573228E+03  0.82142894484E+02 0.  0.
          5    1    3    3  501    0  0.98428498643E+01  0.16012242772E+01  0.26283919582E+03  0.26307029188E+03  0.47000000000E+01 0. -1.
        -11    1    4    4    0    0  0.29631826386E+01  0.14831561229E+02  0.75297824360E+02  0.76801809961E+02  0.00000000000E+00 0.  1.
         12    1    4    4    0    0  0.10100736142E+03 -0.73822325986E+01  0.87994792116E+02  0.13416433154E+03  0.00000000000E+00 0. -1.
         -5    1    5    5    0  502 -0.71650251771E+02  0.43544405360E+02  0.11021027397E+02  0.84696085281E+02  0.47000000000E+01 0.  1.
         11    1    6    6    0    0  0.41745317698E+01 -0.23149260922E+01  0.79587101965E+02  0.79730122272E+02  0.00000000000E+00 0. -1.
        -12    1    6    6    0    0 -0.46337673918E+02 -0.50280032175E+02  0.35982118192E+02  0.77265610004E+02  0.00000000000E+00 0.  1.
<mgrwt>
<rscale>  2 0.20721474E+03</rscale>
<asrwt>0</asrwt>
<pdfrwt beam="1">  1       21 0.97573097E-01 0.20765890E+03</pdfrwt>
<pdfrwt beam="2">  1       21 0.12538938E-01 0.20765890E+03</pdfrwt>
<totfact> 0.46824862E+04</totfact>
</mgrwt>
</event>
<event>
12    1  0.1013215E-001  0.2120512E+03  0.7546771E-02  0.1140156E+00
         21   -1    0    0  501  502  0.00000000000E+00  0.00000000000E+00  0.16252028140E+04  0.16252028140E+04  0.00000000000E+00 0. -1.
         21   -1    0    0  502  503 -0.00000000000E+00 -0.00000000000E+00 -0.35658877250E+02  0.35658877250E+02  0.00000000000E+00 0. -1.
         -6    2    1    2    0  503 -0.58320433953E+02  0.10614497925E+03  0.39984025610E+03  0.45259024896E+03  0.17406226879E+03 0.  0.
        -24    2    3    3    0    0  0.92811983430E+01  0.11021307740E+03  0.21069852765E+03  0.25163449873E+03  0.81810685857E+02 0.  0.
          6    2    1    2  501    0  0.58320433953E+02 -0.10614497925E+03  0.11897036807E+04  0.12082714423E+04  0.17279178474E+03 0.  0.
         24    2    5    5    0    0 -0.25154739764E+01 -0.79837734534E+02  0.10152501811E+04  0.10215920585E+04  0.80851792568E+02 0.  0.
          5    1    5    5  501    0  0.60835907929E+02 -0.26307244714E+02  0.17445349959E+03  0.18667938380E+03  0.47000000000E+01 0. -1.
        -13    1    6    6    0    0  0.10971232594E+02  0.14005929966E+02  0.21791101275E+03  0.21863609834E+03  0.00000000000E+00 0.  1.
         14    1    6    6    0    0 -0.13486706571E+02 -0.93843664500E+02  0.79733916833E+03  0.80295596017E+03  0.00000000000E+00 0. -1.
         -5    1    3    3    0  503 -0.67601632296E+02 -0.40680981539E+01  0.18914172844E+03  0.20095575023E+03  0.47000000000E+01 0.  1.
         11    1    4    4    0    0 -0.12513224019E+02  0.41954713894E+02  0.15446539606E+03  0.16055010861E+03  0.00000000000E+00 0. -1.
        -12    1    4    4    0    0  0.21794422362E+02  0.68258363507E+02  0.56233131595E+02  0.91084390121E+02  0.00000000000E+00 0.  1.
<mgrwt>
<rscale>  2 0.21179029E+03</rscale>
<asrwt>0</asrwt>
<pdfrwt beam="1">  1       21 0.25003114E+00 0.21205118E+03</pdfrwt>
<pdfrwt beam="2">  1       21 0.54859824E-02 0.21205118E+03</pdfrwt>
<totfact> 0.15012638E+04</totfact>
</mgrwt>
</event>
<event>
12    1  0.1013215E-001  0.1933273E+03  0.7546771E-02  0.1155539E+00
         21   -1    0    0  501  502  0.00000000000E+00  0.00000000000E+00  0.53253305327E+03  0.53253305327E+03  0.00000000000E+00 0.  1.
         21   -1    0    0  502  503 -0.00000000000E+00 -0.00000000000E+00 -0.77301624280E+02  0.77301624280E+02  0.00000000000E+00 0.  1.
         -6    2    1    2    0  503 -0.17312790662E+02 -0.83578096672E+02  0.32072781539E+03  0.37448869959E+03  0.17346591477E+03 0.  0.
        -24    2    3    3    0    0 -0.75020794016E+02 -0.26265554121E+02  0.19445444837E+03  0.22421563346E+03  0.78371671719E+02 0.  0.
          6    2    1    2  501    0  0.17312790662E+02  0.83578096672E+02  0.13450361360E+03  0.23534597796E+03  0.17323820684E+03 0.  0.
         24    2    5    5    0    0  0.52343540450E+02  0.93299296421E+02  0.49845583833E+02  0.14309237555E+03  0.80908842362E+02 0.  0.
          5    1    5    5  501    0 -0.35030749788E+02 -0.97211997497E+01  0.84658029765E+02  0.92253602417E+02  0.47000000000E+01 0. -1.
        -13    1    6    6    0    0 -0.18844244998E+02  0.12177525685E+02 -0.34877096858E+01  0.22705986440E+02  0.00000000000E+00 0.  1.
         14    1    6    6    0    0  0.71187785449E+02  0.81121770736E+02  0.53333293519E+02  0.12038638911E+03  0.00000000000E+00 0. -1.
         -5    1    3    3    0  503  0.57708003354E+02 -0.57312542550E+02  0.12627336702E+03  0.15027306613E+03  0.47000000000E+01 0.  1.
         11    1    4    4    0    0 -0.37571868301E+02 -0.30381731711E+02  0.33216523397E+02  0.58634736599E+02  0.00000000000E+00 0. -1.
        -12    1    4    4    0    0 -0.37448925715E+02  0.41161775902E+01  0.16123792497E+03  0.16558089686E+03  0.00000000000E+00 0.  1.
<mgrwt>
<rscale>  2 0.19327623E+03</rscale>
<asrwt>0</asrwt>
<pdfrwt beam="1">  1       21 0.81928160E-01 0.19332732E+03</pdfrwt>
<pdfrwt beam="2">  1       21 0.11892558E-01 0.19332732E+03</pdfrwt>
<totfact> 0.77691376E+04</totfact>
</mgrwt>
</event>
<event>
12    1  0.1013215E-001  0.1904377E+03  0.7546771E-02  0.1159079E+00
         21   -1    0    0  503  502  0.00000000000E+00  0.00000000000E+00  0.51375615140E+03  0.51375615140E+03  0.00000000000E+00 0. -1.
         21   -1    0    0  501  503 -0.00000000000E+00 -0.00000000000E+00 -0.17569019443E+03  0.17569019443E+03  0.00000000000E+00 0. -1.
          6    2    1    2  501    0  0.25024904999E+02  0.68006559522E+02 -0.10043422571E+03  0.21137843973E+03  0.17129703174E+03 0.  0.
         24    2    3    3    0    0 -0.31642900812E+02  0.81900717869E+02 -0.95919086038E+02  0.15266928936E+03  0.79990249947E+02 0.  0.
         -6    2    1    2    0  502 -0.25024904999E+02 -0.68006559522E+02  0.43850018268E+03  0.47806790610E+03  0.17611182420E+03 0.  0.
        -24    2    5    5    0    0  0.10332175404E+01 -0.67641138451E+01  0.38195753956E+03  0.39061035414E+03  0.81474327025E+02 0.  0.
          5    1    3    3  501    0  0.56667805811E+02 -0.13894158347E+02 -0.45151396699E+01  0.58709150376E+02  0.47000000000E+01 0. -1.
        -11    1    4    4    0    0 -0.14045288863E+02  0.14732699077E+02  0.12525724838E+02  0.23900132720E+02  0.00000000000E+00 0.  1.
         12    1    4    4    0    0 -0.17597611950E+02  0.67168018793E+02 -0.10844481088E+03  0.12876915664E+03  0.00000000000E+00 0. -1.
         -5    1    5    5    0  502 -0.26058122539E+02 -0.61242445677E+02  0.56542643122E+02  0.87457551955E+02  0.47000000000E+01 0.  1.
         13    1    6    6    0    0 -0.46760351279E+01 -0.23879440888E+02  0.36512584432E+03  0.36593575282E+03  0.00000000000E+00 0. -1.
        -14    1    6    6    0    0  0.57092526683E+01  0.17115327043E+02  0.16831695233E+02  0.24674601319E+02  0.00000000000E+00 0.  1.
<mgrwt>
<rscale>  2 0.18931694E+03</rscale>
<asrwt>0</asrwt>
<pdfrwt beam="1">  1       21 0.79039407E-01 0.19043769E+03</pdfrwt>
<pdfrwt beam="2">  1       21 0.27029261E-01 0.19043769E+03</pdfrwt>
<totfact> 0.18458801E+04</totfact>
</mgrwt>
</event>
<event>
12    1  0.1013215E-001  0.2549490E+03  0.7546771E-02  0.1110261E+00
         21   -1    0    0  501  502  0.00000000000E+00  0.00000000000E+00  0.19662626548E+03  0.19662626548E+03  0.00000000000E+00 0. -1.
         21   -1    0    0  502  503 -0.00000000000E+00 -0.00000000000E+00 -0.55351690621E+03  0.55351690621E+03  0.00000000000E+00 0.  1.
         -6    2    1    2    0  503  0.17972841701E+03 -0.51602803850E+02 -0.41674715967E+03  0.48854601617E+03  0.17330280313E+03 0.  0.
        -24    2    3    3    0    0  0.12292309533E+03 -0.10109016463E+03 -0.26891495771E+03  0.32255718104E+03  0.79991073325E+02 0.  0.
          6    2    1    2  501    0 -0.17972841701E+03  0.51602803850E+02  0.59856518943E+02  0.26159715553E+03  0.17287312016E+03 0.  0.
         24    2    5    5    0    0 -0.40417840399E+02 -0.17759419825E+02 -0.51298446143E+01  0.92884760380E+02  0.81561416062E+02 0.  0.
          5    1    5    5  501    0 -0.13931057661E+03  0.69362223675E+02  0.64986363557E+02  0.16871239515E+03  0.47000000000E+01 0. -1.
        -11    1    6    6    0    0 -0.35558737111E+02 -0.46243419720E+02 -0.18288971001E+02  0.61133984924E+02  0.00000000000E+00 0.  1.
         12    1    6    6    0    0 -0.48591032878E+01  0.28483999895E+02  0.13159126387E+02  0.31750775456E+02  0.00000000000E+00 0. -1.
         -5    1    3    3    0  503  0.56805321680E+02  0.49487360784E+02 -0.14783220196E+03  0.16598883512E+03  0.47000000000E+01 0.  1.
         13    1    4    4    0    0  0.91611689397E+02 -0.39901023831E+02 -0.10567985409E+03  0.14544079516E+03  0.00000000000E+00 0. -1.
        -14    1    4    4    0    0  0.31311405932E+02 -0.61189140803E+02 -0.16323510362E+03  0.17711638588E+03  0.00000000000E+00 0.  1.
<mgrwt>
<rscale>  2 0.25487604E+03</rscale>
<asrwt>0</asrwt>
<pdfrwt beam="1">  1       21 0.30250195E-01 0.25494904E+03</pdfrwt>
<pdfrwt beam="2">  1       21 0.85156446E-01 0.25494904E+03</pdfrwt>
<totfact> 0.12049726E+04</totfact>
</mgrwt>
</event>
<event>
12    1  0.1013215E-001  0.2193860E+03  0.7546771E-02  0.1134424E+00
         21   -1    0    0  501  502  0.00000000000E+00  0.00000000000E+00  0.12443227974E+03  0.12443227974E+03  0.00000000000E+00 0. -1.
         21   -1    0    0  502  503 -0.00000000000E+00 -0.00000000000E+00 -0.40027358742E+03  0.40027358742E+03  0.00000000000E+00 0. -1.
         -6    2    1    2    0  503 -0.12071530820E+03  0.59848488636E+02 -0.18728401265E+03  0.28812057991E+03  0.17258082149E+03 0.  0.
        -24    2    3    3    0    0 -0.13732796023E+03  0.67145578462E+02 -0.10178406201E+03  0.20059024638E+03  0.80678090559E+02 0.  0.
          6    2    1    2  501    0  0.12071530820E+03 -0.59848488636E+02 -0.88557295025E+02  0.23658528725E+03  0.17313629433E+03 0.  0.
         24    2    5    5    0    0 -0.90442188256E+01  0.99968769466E+01 -0.60550270190E+02  0.86510661187E+02  0.60299451374E+02 0.  0.
          5    1    5    5  501    0  0.12975952702E+03 -0.69845365582E+02 -0.28007024835E+02  0.15007462606E+03  0.47000000000E+01 0. -1.
        -13    1    6    6    0    0 -0.28760798777E+02  0.23789596736E+02 -0.41538680340E+02  0.55844341016E+02  0.00000000000E+00 0.  1.
         14    1    6    6    0    0  0.19716579951E+02 -0.13792719790E+02 -0.19011589850E+02  0.30666320171E+02  0.00000000000E+00 0. -1.
         -5    1    3    3    0  503  0.16612652031E+02 -0.72970898268E+01 -0.85499950642E+02  0.87530333526E+02  0.47000000000E+01 0.  1.
         13    1    4    4    0    0 -0.34397239503E+02  0.60474947547E+02 -0.44807282857E+02  0.82753138691E+02  0.00000000000E+00 0. -1.
        -14    1    4    4    0    0 -0.10293072073E+03  0.66706309156E+01 -0.56976779153E+02  0.11783710769E+03  0.00000000000E+00 0.  1.
<mgrwt>
<rscale>  2 0.21927636E+03</rscale>
<asrwt>0</asrwt>
<pdfrwt beam="1">  1       21 0.19143427E-01 0.21938597E+03</pdfrwt>
<pdfrwt beam="2">  1       21 0.61580553E-01 0.21938597E+03</pdfrwt>
<totfact> 0.60623253E+04</totfact>
</mgrwt>
</event>
<event>
12    1  0.1013215E-001  0.1779615E+03  0.7546771E-02  0.1170210E+00
         21   -1    0    0  501  502  0.00000000000E+00  0.00000000000E+00  0.87740314791E+02  0.87740314791E+02  0.00000000000E+00 0. -1.
         21   -1    0    0  502  503 -0.00000000000E+00 -0.00000000000E+00 -0.46993544417E+03  0.46993544417E+03  0.00000000000E+00 0. -1.
         -6    2    1    2    0  503  0.40000828115E+02 -0.20522618399E+02 -0.32678012285E+03  0.37128610409E+03  0.17043144747E+03 0.  0.
        -24    2    3    3    0    0  0.87564200058E+02 -0.12620677221E+02 -0.27623067896E+03  0.30127145346E+03  0.81451396850E+02 0.  0.
          6    2    1    2  501    0 -0.40000828115E+02  0.20522618399E+02 -0.55415006523E+02  0.18638965486E+03  0.17218895544E+03 0.  0.
         24    2    5    5    0    0 -0.26741026516E+02  0.45332310453E+02 -0.96586673288E+02  0.13630433463E+03  0.80497113693E+02 0.  0.
          5    1    5    5  501    0 -0.13259801599E+02 -0.24809692054E+02  0.41171666765E+02  0.50085320229E+02  0.47000000000E+01 0. -1.
        -11    1    6    6    0    0  0.54839523728E+01 -0.11435220460E+02  0.65288864629E+01  0.14264093348E+02  0.00000000000E+00 0.  1.
         12    1    6    6    0    0 -0.32224978889E+02  0.56767530912E+02 -0.10311555975E+03  0.12204024129E+03  0.00000000000E+00 0. -1.
         -5    1    3    3    0  503 -0.47563371942E+02 -0.79019411778E+01 -0.50549443892E+02  0.70014650629E+02  0.47000000000E+01 0.  1.
         11    1    4    4    0    0  0.78350619962E+02  0.14739576157E+02 -0.24949522898E+03  0.26192354616E+03  0.00000000000E+00 0. -1.
        -12    1    4    4    0    0  0.92135800951E+01 -0.27360253378E+02 -0.26735449984E+02  0.39347907300E+02  0.00000000000E+00 0.  1.
<mgrwt>
<rscale>  2 0.17753494E+03</rscale>
<asrwt>0</asrwt>
<pdfrwt beam="1">  1       21 0.13498510E-01 0.17796146E+03</pdfrwt>
<pdfrwt beam="2">  1       21 0.72297763E-01 0.17796146E+03</pdfrwt>
<totfact> 0.82442189E+04</totfact>
</mgrwt>
</event>
<event>
12    1  0.1013215E-001  0.1822525E+03  0.7546771E-02  0.1165818E+00
         21   -1    0    0  501  502  0.00000000000E+00  0.00000000000E+00  0.41052809764E+03  0.41052809764E+03  0.00000000000E+00 0. -1.
         21   -1    0    0  502  503 -0.00000000000E+00 -0.00000000000E+00 -0.60499134912E+03  0.60499134912E+03  0.00000000000E+00 0. -1.
         -6    2    1    2    0  503  0.52798868043E+02 -0.33033826301E+01 -0.56994190645E+03  0.59814649941E+03  0.17362841133E+03 0.  0.
        -24    2    3    3    0    0 -0.22787980128E+02 -0.46406363740E+02 -0.27614369866E+03  0.29169794663E+03  0.78482527515E+02 0.  0.
          6    2    1    2  501    0 -0.52798868043E+02  0.33033826301E+01  0.37547865498E+03  0.41737294736E+03  0.17440563075E+03 0.  0.
         24    2    5    5    0    0 -0.60967616771E+02  0.58436653909E+02  0.32088741125E+03  0.33921477472E+03  0.70470134649E+02 0.  0.
          5    1    5    5  501    0  0.81687487276E+01 -0.55133271279E+02  0.54591243733E+02  0.78158172637E+02  0.47000000000E+01 0. -1.
        -13    1    6    6    0    0 -0.16046851815E+02  0.45773173222E+02  0.77755837011E+02  0.91644176189E+02  0.00000000000E+00 0.  1.
         14    1    6    6    0    0 -0.44920764956E+02  0.12663480687E+02  0.24313157423E+03  0.24757059853E+03  0.00000000000E+00 0. -1.
         -5    1    3    3    0  503  0.75586848171E+02  0.43102981110E+02 -0.29379820779E+03  0.30644855277E+03  0.47000000000E+01 0.  1.
         11    1    4    4    0    0 -0.47236198566E+02 -0.33433130235E+02 -0.23563267690E+03  0.24263509860E+03  0.00000000000E+00 0. -1.
        -12    1    4    4    0    0  0.24448218438E+02 -0.12973233506E+02 -0.40511021766E+02  0.49062848031E+02  0.00000000000E+00 0.  1.
<mgrwt>
<rscale>  2 0.18206626E+03</rscale>
<asrwt>0</asrwt>
<pdfrwt beam="1">  1       21 0.63158169E-01 0.18225245E+03</pdfrwt>
<pdfrwt beam="2">  1       21 0.93075592E-01 0.18225245E+03</pdfrwt>
<totfact> 0.22756125E+03</totfact>
</mgrwt>
</event>
<event>
12    1  0.1013215E-001  0.1907886E+03  0.7546771E-02  0.1157814E+00
         21   -1    0    0  501  502  0.00000000000E+00  0.00000000000E+00  0.60474047649E+03  0.60474047649E+03  0.00000000000E+00 0. -1.
         21   -1    0    0  502  503 -0.00000000000E+00 -0.00000000000E+00 -0.22745677591E+03  0.22745677591E+03  0.00000000000E+00 0.  1.
         -6    2    1    2    0  503 -0.68227830231E+02  0.39502658186E+02 -0.16823556751E+03  0.25436884374E+03  0.17373774970E+03 0.  0.
        -24    2    3    3    0    0 -0.72806513558E+02  0.48095025376E+01 -0.32752047298E+02  0.11436008103E+03  0.81741126728E+02 0.  0.
          6    2    1    2  501    0  0.68227830231E+02 -0.39502658186E+02  0.54551926808E+03  0.57782840866E+03  0.17343269928E+03 0.  0.
         24    2    5    5    0    0 -0.19926703539E+02 -0.20194549017E+02  0.15148770351E+03  0.17356736826E+03  0.79826146633E+02 0.  0.
          5    1    5    5  501    0  0.88154533770E+02 -0.19308109169E+02  0.39403156457E+03  0.40426104039E+03  0.47000000000E+01 0. -1.
        -13    1    6    6    0    0 -0.12200910946E+02 -0.66963131498E+01 -0.61130498110E+01  0.15201059690E+02  0.00000000000E+00 0.  1.
         14    1    6    6    0    0 -0.77257925929E+01 -0.13498235867E+02  0.15760075332E+03  0.15836630857E+03  0.00000000000E+00 0. -1.
         -5    1    3    3    0  503  0.45786833270E+01  0.34693155648E+02 -0.13548352021E+03  0.14000876272E+03  0.47000000000E+01 0.  1.
         13    1    4    4    0    0 -0.28932929453E+02 -0.37529500772E+02 -0.22780909299E+02  0.52578965979E+02  0.00000000000E+00 0. -1.
        -14    1    4    4    0    0 -0.43873584105E+02  0.42339003309E+02 -0.99711379996E+01  0.61781115047E+02  0.00000000000E+00 0.  1.
<mgrwt>
<rscale>  2 0.19071916E+03</rscale>
<asrwt>0</asrwt>
<pdfrwt beam="1">  1       21 0.93036996E-01 0.19078863E+03</pdfrwt>
<pdfrwt beam="2">  1       21 0.34993350E-01 0.19078863E+03</pdfrwt>
<totfact> 0.76677581E+03</totfact>
</mgrwt>
</event>
<event>
12    1  0.1013215E-001  0.2748501E+03  0.7546771E-02  0.1098547E+00
         21   -1    0    0  501  502  0.00000000000E+00  0.00000000000E+00  0.14673604217E+03  0.14673604217E+03  0.00000000000E+00 0.  1.
         21   -1    0    0  502  503 -0.00000000000E+00 -0.00000000000E+00 -0.52104303834E+03  0.52104303834E+03  0.00000000000E+00 0.  1.
         -6    2    1    2    0  503 -0.19363547853E+03  0.90091513938E+02 -0.15017865113E+03  0.31312981588E+03  0.17287415916E+03 0.  0.
        -24    2    3    3    0    0  0.51496762913E+01  0.40789604744E+02 -0.13896372244E+02  0.67078671670E+02  0.51148098795E+02 0.  0.
          6    2    1    2  501    0  0.19363547853E+03 -0.90091513938E+02 -0.22412834503E+03  0.35464926463E+03  0.17300695484E+03 0.  0.
         24    2    5    5    0    0  0.21839644005E+03 -0.73038543753E+02 -0.18620860829E+03  0.30602925390E+03  0.77127326838E+02 0.  0.
          5    1    5    5  501    0 -0.24760961521E+02 -0.17052970185E+02 -0.37919736748E+02  0.48620010722E+02  0.47000000000E+01 0. -1.
        -13    1    6    6    0    0  0.19803507448E+03 -0.44313158675E+02 -0.13445195844E+03  0.24343146034E+03  0.00000000000E+00 0.  1.
         14    1    6    6    0    0  0.20361365571E+02 -0.28725385078E+02 -0.51756649840E+02  0.62597793559E+02  0.00000000000E+00 0. -1.
         -5    1    3    3    0  503 -0.19878515482E+03  0.49301909193E+02 -0.13628227889E+03  0.24605114421E+03  0.47000000000E+01 0.  1.
         13    1    4    4    0    0 -0.16216503388E+02  0.26679788110E+02  0.92496494781E+01  0.32562894392E+02  0.00000000000E+00 0. -1.
        -14    1    4    4    0    0  0.21366179679E+02  0.14109816634E+02 -0.23146021722E+02  0.34515777278E+02  0.00000000000E+00 0.  1.
<mgrwt>
<rscale>  2 0.27482922E+03</rscale>
<asrwt>0</asrwt>
<pdfrwt beam="1">  1       21 0.22574775E-01 0.27485012E+03</pdfrwt>
<pdfrwt beam="2">  1       21 0.80160468E-01 0.27485012E+03</pdfrwt>
<totfact> 0.24147427E+04</totfact>
</mgrwt>
</event>
<event>
12    1  0.1013215E-001  0.2100023E+03  0.7546771E-02  0.1141568E+00
         21   -1    0    0  503  502  0.00000000000E+00  0.00000000000E+00  0.88169596483E+02  0.88169596483E+02  0.00000000000E+00 0.  1.
         21   -1    0    0  501  503 -0.00000000000E+00 -0.00000000000E+00 -0.51918443567E+03  0.51918443567E+03  0.00000000000E+00 0.  1.
          6    2    1    2  501    0 -0.23510985343E+01 -0.11841662093E+03 -0.27367118725E+03  0.34494597882E+03  0.17338911672E+03 0.  0.
         24    2    3    3    0    0  0.30963438674E+02 -0.20559316221E+02 -0.19854392993E+03  0.21707062832E+03  0.79489279454E+02 0.  0.
         -6    2    1    2    0  502  0.23510985343E+01  0.11841662093E+03 -0.15734365194E+03  0.26240805333E+03  0.17341550643E+03 0.  0.
        -24    2    5    5    0    0  0.30766345052E+02  0.53935808431E+02 -0.11817700187E+02  0.10065177355E+03  0.78329318024E+02 0.  0.
          5    1    3    3  501    0 -0.33314537209E+02 -0.97857304710E+02 -0.75127257319E+02  0.12787535050E+03  0.47000000000E+01 0. -1.
        -11    1    4    4    0    0  0.16799816942E+02 -0.50742612990E+02 -0.13733363697E+03  0.14736883818E+03  0.00000000000E+00 0.  1.
         12    1    4    4    0    0  0.14163621733E+02  0.30183296769E+02 -0.61210292955E+02  0.69701790135E+02  0.00000000000E+00 0. -1.
         -5    1    5    5    0  502 -0.28415246518E+02  0.64480812500E+02 -0.14552595176E+03  0.16175627978E+03  0.47000000000E+01 0.  1.
         11    1    6    6    0    0  0.44277165668E+01 -0.18665217598E+02 -0.13407821461E+02  0.23404373486E+02  0.00000000000E+00 0. -1.
        -12    1    6    6    0    0  0.26338628485E+02  0.72601026029E+02  0.15901212739E+01  0.77247400064E+02  0.00000000000E+00 0.  1.
<mgrwt>
<rscale>  2 0.20999684E+03</rscale>
<asrwt>0</asrwt>
<pdfrwt beam="1">  1       21 0.13564553E-01 0.21000229E+03</pdfrwt>
<pdfrwt beam="2">  1       21 0.79874529E-01 0.21000229E+03</pdfrwt>
<totfact> 0.64458427E+04</totfact>
</mgrwt>
</event>
<event>
12    1  0.1013215E-001  0.1918968E+03  0.7546771E-02  0.1156970E+00
         21   -1    0    0  503  502  0.00000000000E+00  0.00000000000E+00  0.71956034816E+03  0.71956034816E+03  0.00000000000E+00 0.  1.
         21   -1    0    0  501  503 -0.00000000000E+00 -0.00000000000E+00 -0.51118369923E+02  0.51118369923E+02  0.00000000000E+00 0.  1.
          6    2    1    2  501    0  0.76965156590E+02  0.35819699532E+02  0.35696071844E+03  0.40483044736E+03  0.17105569384E+03 0.  0.
         24    2    3    3    0    0  0.70887341701E+02  0.82352155251E+02  0.28375996003E+03  0.31775203269E+03  0.92950237630E+02 0.  0.
         -6    2    1    2    0  502 -0.76965156590E+02 -0.35819699532E+02  0.31148125980E+03  0.36584827073E+03  0.17209792499E+03 0.  0.
        -24    2    5    5    0    0 -0.10220766303E+03 -0.71092243242E+02  0.23597277687E+03  0.27864186348E+03  0.80359338138E+02 0.  0.
          5    1    3    3  501    0  0.60778148890E+01 -0.46532455719E+02  0.73200758408E+02  0.87078414665E+02  0.47000000000E+01 0. -1.
        -11    1    4    4    0    0 -0.18866886040E+02  0.32838118742E+02  0.51948552499E+02  0.64288051286E+02  0.00000000000E+00 0.  1.
         12    1    4    4    0    0  0.89754227741E+02  0.49514036509E+02  0.23181140753E+03  0.25346398141E+03  0.00000000000E+00 0. -1.
         -5    1    5    5    0  502  0.25242506443E+02  0.35272543711E+02  0.75508482930E+02  0.87206407252E+02  0.47000000000E+01 0.  1.
         13    1    6    6    0    0 -0.21023015829E+02  0.17752176607E+02  0.51321188726E+02  0.58232047715E+02  0.00000000000E+00 0. -1.
        -14    1    6    6    0    0 -0.81184647204E+02 -0.88844419849E+02  0.18465158814E+03  0.22040981576E+03  0.00000000000E+00 0.  1.
<mgrwt>
<rscale>  2 0.19166284E+03</rscale>
<asrwt>0</asrwt>
<pdfrwt beam="1">  1       21 0.11070158E+00 0.19189680E+03</pdfrwt>
<pdfrwt beam="2">  1       21 0.78643651E-02 0.19189680E+03</pdfrwt>
<totfact> 0.79537589E+04</totfact>
</mgrwt>
</event>
<event>
12    1  0.1013215E-001  0.2006521E+03  0.7546771E-02  0.1149378E+00
         21   -1    0    0  501  502  0.00000000000E+00  0.00000000000E+00  0.38091553514E+03  0.38091553514E+03  0.00000000000E+00 0.  1.
         21   -1    0    0  502  503 -0.00000000000E+00 -0.00000000000E+00 -0.25663129402E+03  0.25663129402E+03  0.00000000000E+00 0.  1.
         -6    2    1    2    0  503  0.25964348993E+02 -0.96356372631E+02 -0.18276243072E+03  0.27075134495E+03  0.17304764298E+03 0.  0.
        -24    2    3    3    0    0 -0.23313648249E+02 -0.82295863531E+02 -0.18529943217E+03  0.21922906525E+03  0.80058529473E+02 0.  0.
          6    2    1    2  501    0 -0.25964348993E+02  0.96356372631E+02  0.30704667184E+03  0.36679548421E+03  0.17407633552E+03 0.  0.
         24    2    5    5    0    0 -0.11774695548E+02  0.13563145798E+03  0.25467050207E+03  0.29964467071E+03  0.79970796008E+02 0.  0.
          5    1    5    5  501    0 -0.14189653446E+02 -0.39275085351E+02  0.52376169770E+02  0.67150813502E+02  0.47000000000E+01 0. -1.
        -11    1    6    6    0    0 -0.38895613117E+02  0.10034956357E+03  0.13960670609E+03  0.17627517129E+03  0.00000000000E+00 0.  1.
         12    1    6    6    0    0  0.27120917569E+02  0.35281894415E+02  0.11506379598E+03  0.12336949942E+03  0.00000000000E+00 0. -1.
         -5    1    3    3    0  503  0.49277997242E+02 -0.14060509101E+02  0.25370014478E+01  0.51522279692E+02  0.47000000000E+01 0.  1.
         13    1    4    4    0    0  0.14447374610E+02 -0.11042304621E+02 -0.11776696828E+01  0.18222130236E+02  0.00000000000E+00 0. -1.
        -14    1    4    4    0    0 -0.37761022858E+02 -0.71253558909E+02 -0.18412176249E+03  0.20100693502E+03  0.00000000000E+00 0.  1.
<mgrwt>
<rscale>  2 0.20042879E+03</rscale>
<asrwt>0</asrwt>
<pdfrwt beam="1">  1       21 0.58602390E-01 0.20065211E+03</pdfrwt>
<pdfrwt beam="2">  1       21 0.39481738E-01 0.20065211E+03</pdfrwt>
<totfact> 0.16770699E+04</totfact>
</mgrwt>
</event>
<event>
12    1  0.1013215E-001  0.2066958E+03  0.7546771E-02  0.1144531E+00
         21   -1    0    0  501  502  0.00000000000E+00  0.00000000000E+00  0.28056956017E+03  0.28056956017E+03  0.00000000000E+00 0.  1.
         21   -1    0    0  502  503 -0.00000000000E+00 -0.00000000000E+00 -0.16551583573E+03  0.16551583573E+03  0.00000000000E+00 0.  1.
         -6    2    1    2    0  503  0.81326173141E+01  0.11146679808E+03 -0.80791620329E+01  0.20685368123E+03  0.17387405223E+03 0.  0.
        -24    2    3    3    0    0  0.13186939669E+02  0.14815927053E+03 -0.23964488265E+01  0.16908773177E+03  0.80373212250E+02 0.  0.
          6    2    1    2  501    0 -0.81326173141E+01 -0.11146679808E+03  0.12313288647E+03  0.23923171467E+03  0.17198581056E+03 0.  0.
         24    2    5    5    0    0 -0.23364737162E+02 -0.72458812949E+01  0.10038333952E+03  0.13137232075E+03  0.81138511608E+02 0.  0.
          5    1    5    5  501    0  0.15232119848E+02 -0.10422091679E+03  0.22749546948E+02  0.10785939392E+03  0.47000000000E+01 0. -1.
        -13    1    6    6    0    0  0.27709230801E+02  0.11945462033E+02  0.34740824422E+02  0.46015436717E+02  0.00000000000E+00 0.  1.
         14    1    6    6    0    0 -0.51073967963E+02 -0.19191343328E+02  0.65642515102E+02  0.85356884029E+02  0.00000000000E+00 0. -1.
         -5    1    3    3    0  503 -0.50543223546E+01 -0.36692472449E+02 -0.56827132064E+01  0.37765949456E+02  0.47000000000E+01 0.  1.
         13    1    4    4    0    0  0.39606435461E+02  0.10203708884E+03  0.20249398564E+02  0.11131161382E+03  0.00000000000E+00 0. -1.
        -14    1    4    4    0    0 -0.26419495792E+02  0.46122181693E+02 -0.22645847391E+02  0.57776117956E+02  0.00000000000E+00 0.  1.
<mgrwt>
<rscale>  2 0.20629823E+03</rscale>
<asrwt>0</asrwt>
<pdfrwt beam="1">  1       21 0.43164548E-01 0.20669585E+03</pdfrwt>
<pdfrwt beam="2">  1       21 0.25463975E-01 0.20669585E+03</pdfrwt>
<totfact> 0.75003572E+04</totfact>
</mgrwt>
</event>
<event>
12    1  0.1013215E-001  0.2062748E+03  0.7546771E-02  0.1146037E+00
         21   -1    0    0  501  502  0.00000000000E+00  0.00000000000E+00  0.44588714674E+03  0.44588714674E+03  0.00000000000E+00 0. -1.
         21   -1    0    0  502  503 -0.00000000000E+00 -0.00000000000E+00 -0.10310422527E+03  0.10310422527E+03  0.00000000000E+00 0. -1.
         -6    2    1    2    0  503  0.99430074639E+02  0.21684712891E+02  0.25823246416E+03  0.32606073288E+03  0.17109947242E+03 0.  0.
        -24    2    3    3    0    0  0.53918763274E+02  0.17572406644E+02  0.44956859436E+02  0.10789390658E+03  0.80024704676E+02 0.  0.
          6    2    1    2  501    0 -0.99430074639E+02 -0.21684712891E+02  0.84550457306E+02  0.22293063912E+03  0.17942330817E+03 0.  0.
         24    2    5    5    0    0 -0.29512137365E+02  0.32345722519E+02  0.97415847669E+02  0.13351355925E+03  0.80117483177E+02 0.  0.
          5    1    5    5  501    0 -0.69917937274E+02 -0.54030435410E+02 -0.12865390363E+02  0.89417079870E+02  0.47000000000E+01 0. -1.
        -11    1    6    6    0    0  0.10710537191E+02  0.27300697611E+02  0.14790909326E+01  0.29363777124E+02  0.00000000000E+00 0.  1.
         12    1    6    6    0    0 -0.40222674556E+02  0.50450249075E+01  0.95936756736E+02  0.10414978213E+03  0.00000000000E+00 0. -1.
         -5    1    3    3    0  503  0.45511311365E+02  0.41123062477E+01  0.21327560473E+03  0.21816682630E+03  0.47000000000E+01 0.  1.
         13    1    4    4    0    0  0.37490903554E+02  0.48163109756E+02  0.39611678636E+02  0.72762202242E+02  0.00000000000E+00 0. -1.
        -14    1    4    4    0    0  0.16427859720E+02 -0.30590703113E+02  0.53451807992E+01  0.35131704338E+02  0.00000000000E+00 0.  1.
<mgrwt>
<rscale>  2 0.20445127E+03</rscale>
<asrwt>0</asrwt>
<pdfrwt beam="1">  1       21 0.68598022E-01 0.20627479E+03</pdfrwt>
<pdfrwt beam="2">  1       21 0.15862189E-01 0.20627479E+03</pdfrwt>
<totfact> 0.68202128E+04</totfact>
</mgrwt>
</event>
<event>
12    1  0.1013215E-001  0.1862243E+03  0.7546771E-02  0.1162432E+00
         21   -1    0    0  501  502  0.00000000000E+00  0.00000000000E+00  0.46844497628E+03  0.46844497628E+03  0.00000000000E+00 0.  1.
         21   -1    0    0  502  503 -0.00000000000E+00 -0.00000000000E+00 -0.76061213930E+02  0.76061213930E+02  0.00000000000E+00 0.  1.
         -6    2    1    2    0  503  0.58931650226E+02 -0.23224919555E+02  0.25063810134E+03  0.31224821669E+03  0.17512040058E+03 0.  0.
        -24    2    3    3    0    0 -0.15130970126E+02  0.29758956829E+02  0.70919950500E+02  0.11072088199E+03  0.78198034261E+02 0.  0.
          6    2    1    2  501    0 -0.58931650226E+02  0.23224919555E+02  0.14174566102E+03  0.23225797352E+03  0.17274141820E+03 0.  0.
         24    2    5    5    0    0 -0.10528452283E+03  0.83566364504E+01  0.85050861994E+02  0.15738444764E+03  0.79884611247E+02 0.  0.
          5    1    5    5  501    0  0.46352872603E+02  0.14868283105E+02  0.56694799025E+02  0.74873525879E+02  0.47000000000E+01 0. -1.
        -11    1    6    6    0    0 -0.42029201765E+02 -0.34913103908E+02  0.25330725712E+02  0.60224781366E+02  0.00000000000E+00 0.  1.
         12    1    6    6    0    0 -0.63255321064E+02  0.43269740358E+02  0.59720136282E+02  0.97159666278E+02  0.00000000000E+00 0. -1.
         -5    1    3    3    0  503  0.74062620353E+02 -0.52983876384E+02  0.17971815084E+03  0.20152733470E+03  0.47000000000E+01 0.  1.
         11    1    4    4    0    0  0.20497215241E+02  0.26839154257E+02  0.29197377137E+01  0.33896915821E+02  0.00000000000E+00 0. -1.
        -12    1    4    4    0    0 -0.35628185367E+02  0.29198025715E+01  0.68000212787E+02  0.76823966174E+02  0.00000000000E+00 0.  1.
<mgrwt>
<rscale>  2 0.18566293E+03</rscale>
<asrwt>0</asrwt>
<pdfrwt beam="1">  1       21 0.72068456E-01 0.18622430E+03</pdfrwt>
<pdfrwt beam="2">  1       21 0.11701726E-01 0.18622430E+03</pdfrwt>
<totfact> 0.10690509E+05</totfact>
</mgrwt>
</event>
<event>
12    1  0.1013215E-001  0.2098818E+03  0.7546771E-02  0.1141756E+00
         21   -1    0    0  503  502  0.00000000000E+00  0.00000000000E+00  0.56022414851E+02  0.56022414851E+02  0.00000000000E+00 0.  1.
         21   -1    0    0  501  503 -0.00000000000E+00 -0.00000000000E+00 -0.12287706877E+04  0.12287706877E+04  0.00000000000E+00 0.  1.
          6    2    1    2  501    0 -0.71783572126E+02 -0.92729924070E+02 -0.97309272900E+03  0.99546965345E+03  0.17406507883E+03 0.  0.
         24    2    3    3    0    0 -0.83749310059E+02 -0.12222491739E+01 -0.61273124755E+03  0.62344906160E+03  0.78953846381E+02 0.  0.
         -6    2    1    2    0  502  0.71783572126E+02  0.92729924070E+02 -0.19965554385E+03  0.28932344910E+03  0.17347622881E+03 0.  0.
        -24    2    5    5    0    0 -0.25524096642E+02  0.51902137544E+02 -0.73681435597E+02  0.12492376387E+03  0.82653986211E+02 0.  0.
          5    1    3    3  501    0  0.11965737933E+02 -0.91507674897E+02 -0.36036148145E+03  0.37202059185E+03  0.47000000000E+01 0. -1.
        -11    1    4    4    0    0 -0.59579174887E+01 -0.28225262319E+02 -0.97461212542E+02  0.10164078986E+03  0.00000000000E+00 0.  1.
         12    1    4    4    0    0 -0.77791392570E+02  0.27003013145E+02 -0.51527003501E+03  0.52180827174E+03  0.00000000000E+00 0. -1.
         -5    1    5    5    0  502  0.97307668768E+02  0.40827786527E+02 -0.12597410826E+03  0.16439968523E+03  0.47000000000E+01 0.  1.
         11    1    6    6    0    0 -0.21661965633E+02 -0.14791127617E+02 -0.45287101904E+02  0.52334881390E+02  0.00000000000E+00 0. -1.
        -12    1    6    6    0    0 -0.38621310094E+01  0.66693265160E+02 -0.28394333693E+02  0.72588882479E+02  0.00000000000E+00 0.  1.
<mgrwt>
<rscale>  2 0.20975967E+03</rscale>
<asrwt>0</asrwt>
<pdfrwt beam="1">  1       21 0.86188333E-02 0.20988180E+03</pdfrwt>
<pdfrwt beam="2">  1       21 0.18904164E+00 0.20988180E+03</pdfrwt>
<totfact> 0.16462256E+04</totfact>
</mgrwt>
</event>
<event>
12    1  0.1013215E-001  0.1982178E+03  0.7546771E-02  0.1151419E+00
         21   -1    0    0  503  502  0.00000000000E+00  0.00000000000E+00  0.19156716228E+03  0.19156716228E+03  0.00000000000E+00 0. -1.
         21   -1    0    0  501  503 -0.00000000000E+00 -0.00000000000E+00 -0.33415423723E+03  0.33415423723E+03  0.00000000000E+00 0. -1.
          6    2    1    2  501    0 -0.74824787243E+02  0.57890653144E+02 -0.23524771169E+03  0.30762281079E+03  0.17418447508E+03 0.  0.
         24    2    3    3    0    0  0.70013206975E+01  0.59791485716E+02 -0.18994735308E+03  0.21395671450E+03  0.77932268542E+02 0.  0.
         -6    2    1    2    0  502  0.74824787243E+02 -0.57890653144E+02  0.92660636738E+02  0.21809858871E+03  0.17329432850E+03 0.  0.
        -24    2    5    5    0    0  0.27261450960E+02 -0.98178430543E+02  0.79295125935E+02  0.15417595700E+03  0.84263383430E+02 0.  0.
          5    1    3    3  501    0 -0.81826107940E+02 -0.19008325713E+01 -0.45300358606E+02  0.93666096294E+02  0.47000000000E+01 0. -1.
        -11    1    4    4    0    0  0.86065009646E+01 -0.73574522616E+01 -0.10525629561E+03  0.10586355240E+03  0.00000000000E+00 0.  1.
         12    1    4    4    0    0 -0.16051802671E+01  0.67148937977E+02 -0.84691057476E+02  0.10809316209E+03  0.00000000000E+00 0. -1.
         -5    1    5    5    0  502  0.47563336283E+02  0.40287777399E+02  0.13365510803E+02  0.63922631713E+02  0.47000000000E+01 0.  1.
         13    1    6    6    0    0  0.56462703666E+02 -0.67735874211E+02  0.65311158490E+02  0.10973483031E+03  0.00000000000E+00 0. -1.
        -14    1    6    6    0    0 -0.29201252706E+02 -0.30442556332E+02  0.13983967445E+02  0.44441126686E+02  0.00000000000E+00 0.  1.
<mgrwt>
<rscale>  2 0.19802210E+03</rscale>
<asrwt>0</asrwt>
<pdfrwt beam="1">  1       21 0.29471871E-01 0.19821783E+03</pdfrwt>
<pdfrwt beam="2">  1       21 0.51408344E-01 0.19821783E+03</pdfrwt>
<totfact> 0.39549354E+04</totfact>
</mgrwt>
</event>
<event>
12    1  0.1013215E-001  0.2286508E+03  0.7546771E-02  0.1128006E+00
         21   -1    0    0  503  502  0.00000000000E+00  0.00000000000E+00  0.97044539675E+02  0.97044539675E+02  0.00000000000E+00 0. -1.
         21   -1    0    0  501  503 -0.00000000000E+00 -0.00000000000E+00 -0.79619421613E+03  0.79619421613E+03  0.00000000000E+00 0.  1.
          6    2    1    2  501    0  0.70045234393E+02 -0.12960018989E+03 -0.60740295895E+03  0.64901430285E+03  0.17486756899E+03 0.  0.
         24    2    3    3    0    0  0.49042621943E+02 -0.25276619639E+02 -0.13259604516E+03  0.16240541224E+03  0.75826911219E+02 0.  0.
         -6    2    1    2    0  502 -0.70045234393E+02  0.12960018989E+03 -0.91746717512E+02  0.24422445296E+03  0.17183008808E+03 0.  0.
        -24    2    5    5    0    0 -0.54602013523E+02  0.15772368788E+03 -0.52342337181E+02  0.19319289998E+03  0.82009967350E+02 0.  0.
          5    1    3    3  501    0  0.21002612450E+02 -0.10432357025E+03 -0.47480691379E+03  0.48660889061E+03  0.47000000000E+01 0. -1.
        -13    1    4    4    0    0  0.80384496471E+01 -0.20565762705E+02 -0.11573130273E+03  0.11781893608E+03  0.00000000000E+00 0.  1.
         14    1    4    4    0    0  0.41004172296E+02 -0.47108569340E+01 -0.16864742430E+02  0.44586476155E+02  0.00000000000E+00 0. -1.
         -5    1    5    5    0  502 -0.15443220870E+02 -0.28123497989E+02 -0.39404380332E+02  0.51031552978E+02  0.47000000000E+01 0.  1.
         11    1    6    6    0    0 -0.75071257531E+02  0.12016516184E+03 -0.50365576824E+02  0.15037303999E+03  0.00000000000E+00 0. -1.
        -12    1    6    6    0    0  0.20469244008E+02  0.37558526040E+02 -0.19767603565E+01  0.42819859996E+02  0.00000000000E+00 0.  1.
<mgrwt>
<rscale>  2 0.22807000E+03</rscale>
<asrwt>0</asrwt>
<pdfrwt beam="1">  1       21 0.14929929E-01 0.22865085E+03</pdfrwt>
<pdfrwt beam="2">  1       21 0.12249142E+00 0.22865085E+03</pdfrwt>
<totfact> 0.19419437E+04</totfact>
</mgrwt>
</event>
<event>
12    1  0.1013215E-001  0.2044430E+03  0.7546771E-02  0.1148494E+00
         21   -1    0    0  501  502  0.00000000000E+00  0.00000000000E+00  0.37906407769E+03  0.37906407769E+03  0.00000000000E+00 0.  1.
         21   -1    0    0  502  503 -0.00000000000E+00 -0.00000000000E+00 -0.10682525539E+03  0.10682525539E+03  0.00000000000E+00 0. -1.
         -6    2    1    2    0  503  0.22751136586E+01 -0.10218282161E+03  0.17875560820E+03  0.27157044835E+03  0.17706054270E+03 0.  0.
        -24    2    3    3    0    0  0.25562663365E+02 -0.12758215764E+03  0.17912180509E+03  0.23679027667E+03  0.83990221797E+02 0.  0.
          6    2    1    2  501    0 -0.22751136586E+01  0.10218282161E+03  0.93483214101E+02  0.21431888473E+03  0.16354500255E+03 0.  0.
         24    2    5    5    0    0 -0.20531720706E+02  0.49266546619E+00  0.14567861454E+02  0.84226938631E+02  0.80375122578E+02 0.  0.
          5    1    5    5  501    0  0.18256607047E+02  0.10169015614E+03  0.78915352648E+02  0.13009194610E+03  0.47000000000E+01 0. -1.
        -11    1    6    6    0    0 -0.22559059525E+00 -0.36171999496E+02 -0.73768654996E+01  0.36917239648E+02  0.00000000000E+00 0.  1.
         12    1    6    6    0    0 -0.20306130111E+02  0.36664664962E+02  0.21944726953E+02  0.47309698983E+02  0.00000000000E+00 0. -1.
         -5    1    3    3    0  503 -0.23287549706E+02  0.25399336033E+02 -0.36619689399E+00  0.34780171685E+02  0.47000000000E+01 0.  1.
         11    1    4    4    0    0 -0.14353081211E+01 -0.68044100580E+02  0.30806711443E+02  0.74706848435E+02  0.00000000000E+00 0. -1.
        -12    1    4    4    0    0  0.26997971486E+02 -0.59538057062E+02  0.14831509365E+03  0.16208342823E+03  0.00000000000E+00 0.  1.
<mgrwt>
<rscale>  2 0.20148259E+03</rscale>
<asrwt>0</asrwt>
<pdfrwt beam="1">  1       21 0.58317550E-01 0.20444300E+03</pdfrwt>
<pdfrwt beam="2">  1       21 0.16434655E-01 0.20444300E+03</pdfrwt>
<totfact> 0.90973350E+04</totfact>
</mgrwt>
</event>
<event>
12    1  0.1013215E-001  0.2043836E+03  0.7546771E-02  0.1146230E+00
         21   -1    0    0  503  502  0.00000000000E+00  0.00000000000E+00  0.66829386829E+03  0.66829386829E+03  0.00000000000E+00 0.  1.
         21   -1    0    0  501  503 -0.00000000000E+00 -0.00000000000E+00 -0.68268155433E+02  0.68268155433E+02  0.00000000000E+00 0. -1.
          6    2    1    2  501    0  0.89544986862E+02  0.61613289313E+02  0.19159103946E+03  0.28014242933E+03  0.17308423446E+03 0.  0.
         24    2    3    3    0    0  0.12956019029E+03  0.32530876940E+02  0.14078102891E+03  0.20907379781E+03  0.77771807008E+02 0.  0.
         -6    2    1    2    0  502 -0.89544986862E+02 -0.61613289313E+02  0.40843467339E+03  0.45641959439E+03  0.17229469411E+03 0.  0.
        -24    2    5    5    0    0 -0.60191211952E+02  0.19714672460E+02  0.30033947401E+03  0.31791853447E+03  0.82805462424E+02 0.  0.
          5    1    3    3  501    0 -0.40015203429E+02  0.29082412373E+02  0.50810010548E+02  0.71068631524E+02  0.47000000000E+01 0. -1.
        -11    1    4    4    0    0  0.51215247892E+02  0.49924574055E+02  0.86252437650E+02  0.11204886305E+03  0.00000000000E+00 0.  1.
         12    1    4    4    0    0  0.78344942399E+02 -0.17393697115E+02  0.54528591263E+02  0.97024934754E+02  0.00000000000E+00 0. -1.
         -5    1    5    5    0  502 -0.29353774910E+02 -0.81327961773E+02  0.10809519938E+03  0.13850105991E+03  0.47000000000E+01 0.  1.
         13    1    6    6    0    0 -0.81097271312E+02  0.19159472235E+02  0.23845608239E+03  0.25259682504E+03  0.00000000000E+00 0. -1.
        -14    1    6    6    0    0  0.20906059360E+02  0.55520022454E+00  0.61883391623E+02  0.65321709438E+02  0.00000000000E+00 0.  1.
<mgrwt>
<rscale>  2 0.20421634E+03</rscale>
<asrwt>0</asrwt>
<pdfrwt beam="1">  1       21 0.10281444E+00 0.20438360E+03</pdfrwt>
<pdfrwt beam="2">  1       21 0.10502794E-01 0.20438360E+03</pdfrwt>
<totfact> 0.56831995E+04</totfact>
</mgrwt>
</event>
<event>
12    1  0.1013215E-001  0.2145050E+03  0.7546771E-02  0.1140789E+00
         21   -1    0    0  503  502  0.00000000000E+00  0.00000000000E+00  0.94353768959E+02  0.94353768959E+02  0.00000000000E+00 0.  1.
         21   -1    0    0  501  503 -0.00000000000E+00 -0.00000000000E+00 -0.75575235475E+03  0.75575235475E+03  0.00000000000E+00 0.  1.
          6    2    1    2  501    0  0.12091848001E+03  0.38231662909E+02 -0.60450358844E+03  0.64143355330E+03  0.17300137574E+03 0.  0.
         24    2    3    3    0    0  0.36998775904E+02 -0.31363043864E+02 -0.17478889468E+03  0.19807957736E+03  0.79572679517E+02 0.  0.
         -6    2    1    2    0  502 -0.12091848001E+03 -0.38231662909E+02 -0.56894997351E+02  0.20867257041E+03  0.15564145354E+03 0.  0.
        -24    2    5    5    0    0 -0.10769753193E+03 -0.57720666145E+01 -0.89905087331E+02  0.16029721614E+03  0.77331737587E+02 0.  0.
          5    1    3    3  501    0  0.83919704104E+02  0.69594706773E+02 -0.42971469377E+03  0.44335397595E+03  0.47000000000E+01 0. -1.
        -13    1    4    4    0    0  0.16588534754E+02 -0.38024622607E+02 -0.17139361822E+03  0.17634291530E+03  0.00000000000E+00 0.  1.
         14    1    4    4    0    0  0.20410241149E+02  0.66615787426E+01 -0.33952764522E+01  0.21736662055E+02  0.00000000000E+00 0. -1.
         -5    1    5    5    0  502 -0.13220948076E+02 -0.32459596295E+02  0.33010089980E+02  0.48375354264E+02  0.47000000000E+01 0.  1.
         11    1    6    6    0    0 -0.41363968145E+02 -0.38418649610E+02 -0.24326048583E+02  0.61471352175E+02  0.00000000000E+00 0. -1.
        -12    1    6    6    0    0 -0.66333563787E+02  0.32646582996E+02 -0.65579038748E+02  0.98825863969E+02  0.00000000000E+00 0.  1.
<mgrwt>
<rscale>  2 0.21098470E+03</rscale>
<asrwt>0</asrwt>
<pdfrwt beam="1">  1       21 0.14515964E-01 0.21450505E+03</pdfrwt>
<pdfrwt beam="2">  1       21 0.11626960E+00 0.21450505E+03</pdfrwt>
<totfact> 0.23454569E+04</totfact>
</mgrwt>
</event>
<event>
12    1  0.1013215E-001  0.1863191E+03  0.7546771E-02  0.1164603E+00
         21   -1    0    0  501  502  0.00000000000E+00  0.00000000000E+00  0.38712339772E+03  0.38712339772E+03  0.00000000000E+00 0. -1.
         21   -1    0    0  502  503 -0.00000000000E+00 -0.00000000000E+00 -0.93465046225E+02  0.93465046225E+02  0.00000000000E+00 0. -1.
         -6    2    1    2    0  503 -0.86388156002E+01  0.60017632043E+02  0.75354066759E+02  0.20098017099E+03  0.17617618586E+03 0.  0.
        -24    2    3    3    0    0  0.33108668543E+02  0.71455032914E+02  0.10092712775E+03  0.15048524036E+03  0.79104467576E+02 0.  0.
          6    2    1    2  501    0  0.86388156002E+01 -0.60017632043E+02  0.21830428473E+03  0.27960827295E+03  0.16385139693E+03 0.  0.
         24    2    5    5    0    0  0.22314062361E+02  0.19452648398E+02  0.15507361166E+03  0.17702783687E+03  0.80091866550E+02 0.  0.
          5    1    5    5  501    0 -0.13675246760E+02 -0.79470280441E+02  0.63230673078E+02  0.10258043607E+03  0.47000000000E+01 0. -1.
        -13    1    6    6    0    0 -0.18036316308E+02  0.24405137283E+02  0.20942843073E+02  0.36871697924E+02  0.00000000000E+00 0.  1.
         14    1    6    6    0    0  0.40350378669E+02 -0.49524888854E+01  0.13413076858E+03  0.14015613895E+03  0.00000000000E+00 0. -1.
         -5    1    3    3    0  503 -0.41747484143E+02 -0.11437400870E+02 -0.25573060990E+02  0.50494930630E+02  0.47000000000E+01 0.  1.
         11    1    4    4    0    0  0.35874571450E+02  0.34966440847E+02  0.81533951427E+01  0.50755440246E+02  0.00000000000E+00 0. -1.
        -12    1    4    4    0    0 -0.27659029074E+01  0.36488592066E+02  0.92773732606E+02  0.99729800118E+02  0.00000000000E+00 0.  1.
<mgrwt>
<rscale>  2 0.18334674E+03</rscale>
<asrwt>0</asrwt>
<pdfrwt beam="1">  1       21 0.59557445E-01 0.18631906E+03</pdfrwt>
<pdfrwt beam="2">  1       21 0.14379238E-01 0.18631906E+03</pdfrwt>
<totfact> 0.11178309E+05</totfact>
</mgrwt>
</event>
<event>
12    1  0.1013215E-001  0.2050627E+03  0.7546771E-02  0.1145617E+00
         21   -1    0    0  503  502  0.00000000000E+00  0.00000000000E+00  0.23121971466E+04  0.23121971466E+04  0.00000000000E+00 0.  1.
         21   -1    0    0  501  503 -0.00000000000E+00 -0.00000000000E+00 -0.21501159915E+02  0.21501159915E+02  0.00000000000E+00 0.  1.
          6    2    1    2  501    0  0.43181827475E+02 -0.99825137665E+02  0.68571592375E+03  0.71572135528E+03  0.17384188789E+03 0.  0.
         24    2    3    3    0    0  0.21179387613E+02 -0.11412836865E+03  0.67046651368E+03  0.68500777060E+03  0.78971189805E+02 0.  0.
         -6    2    1    2    0  502 -0.43181827475E+02  0.99825137665E+02  0.16049800630E+04  0.16179769513E+04  0.17337440406E+03 0.  0.
        -24    2    5    5    0    0  0.11381477870E+02 -0.13388127467E+02  0.67503614616E+03  0.67956756507E+03  0.76351141988E+02 0.  0.
          5    1    3    3  501    0  0.22002439862E+02  0.14303230990E+02  0.15249410072E+02  0.30713584684E+02  0.47000000000E+01 0. -1.
        -13    1    4    4    0    0  0.30552006963E+02 -0.14938088264E+02  0.27884846496E+03  0.28091464544E+03  0.00000000000E+00 0.  1.
         14    1    4    4    0    0 -0.93726193496E+01 -0.99190280390E+02  0.39161804872E+03  0.40409312515E+03  0.00000000000E+00 0. -1.
         -5    1    5    5    0  502 -0.54563305344E+02  0.11321326513E+03  0.92994391680E+03  0.93840938619E+03  0.47000000000E+01 0.  1.
         11    1    6    6    0    0  0.35060160254E+02 -0.74680263534E+01  0.59026900488E+03  0.59135647826E+03  0.00000000000E+00 0. -1.
        -12    1    6    6    0    0 -0.23678682384E+02 -0.59201011137E+01  0.84767141272E+02  0.88211086810E+02  0.00000000000E+00 0.  1.
<mgrwt>
<rscale>  2 0.20496364E+03</rscale>
<asrwt>0</asrwt>
<pdfrwt beam="1">  1       21 0.35572244E+00 0.20506275E+03</pdfrwt>
<pdfrwt beam="2">  1       21 0.33078726E-02 0.20506275E+03</pdfrwt>
<totfact> 0.85768397E+03</totfact>
</mgrwt>
</event>
<event>
12    1  0.1013215E-001  0.1779646E+03  0.7546771E-02  0.1170330E+00
         21   -1    0    0  501  502  0.00000000000E+00  0.00000000000E+00  0.24671363056E+03  0.24671363056E+03  0.00000000000E+00 0. -1.
         21   -1    0    0  502  503 -0.00000000000E+00 -0.00000000000E+00 -0.13428390301E+03  0.13428390301E+03  0.00000000000E+00 0. -1.
         -6    2    1    2    0  503 -0.22297332190E+02 -0.31239541761E+02  0.10904388512E+02  0.17611026676E+03  0.17153087296E+03 0.  0.
        -24    2    3    3    0    0  0.18348588569E+02 -0.65948798091E+02  0.42058714709E+02  0.11406588434E+03  0.80970215602E+02 0.  0.
          6    2    1    2  501    0  0.22297332190E+02  0.31239541761E+02  0.10152533904E+03  0.20488726681E+03  0.17377663145E+03 0.  0.
         24    2    5    5    0    0 -0.48155930825E+02  0.52356667701E+02  0.90354587928E+02  0.13034552710E+03  0.61366037430E+02 0.  0.
          5    1    5    5  501    0  0.70453263015E+02 -0.21117125940E+02  0.11170751114E+02  0.74541739703E+02  0.47000000000E+01 0. -1.
        -13    1    6    6    0    0  0.13556220838E+02  0.12312849744E+02  0.81939499618E+01  0.20062856432E+02  0.00000000000E+00 0.  1.
         14    1    6    6    0    0 -0.61712151663E+02  0.40043817957E+02  0.82160637967E+02  0.11028267067E+03  0.00000000000E+00 0. -1.
         -5    1    3    3    0  503 -0.40645920759E+02  0.34709256330E+02 -0.31154326197E+02  0.62044382422E+02  0.47000000000E+01 0.  1.
         13    1    4    4    0    0  0.39733255840E+02 -0.72709477554E+02  0.27392167593E+02  0.87268153363E+02  0.00000000000E+00 0. -1.
        -14    1    4    4    0    0 -0.21384667271E+02  0.67606794634E+01  0.14666547117E+02  0.26797730975E+02  0.00000000000E+00 0.  1.
<mgrwt>
<rscale>  2 0.17741399E+03</rscale>
<asrwt>0</asrwt>
<pdfrwt beam="1">  1       21 0.37955943E-01 0.17796460E+03</pdfrwt>
<pdfrwt beam="2">  1       21 0.20659062E-01 0.17796460E+03</pdfrwt>
<totfact> 0.14612674E+05</totfact>
</mgrwt>
</event>
<event>
12    1  0.1013215E-001  0.3310133E+03  0.7546771E-02  0.1070858E+00
         21   -1    0    0  501  502  0.00000000000E+00  0.00000000000E+00  0.14884031658E+03  0.14884031658E+03  0.00000000000E+00 0. -1.
         21   -1    0    0  502  503 -0.00000000000E+00 -0.00000000000E+00 -0.10253612327E+04  0.10253612327E+04  0.00000000000E+00 0.  1.
         -6    2    1    2    0  503 -0.14549211877E+03 -0.23910415907E+03 -0.75115832745E+03  0.82024452935E+03  0.17384907107E+03 0.  0.
        -24    2    3    3    0    0 -0.20914935099E+02 -0.10796716761E+03 -0.44675929751E+03  0.46612979560E+03  0.74758094209E+02 0.  0.
          6    2    1    2  501    0  0.14549211877E+03  0.23910415907E+03 -0.12536258868E+03  0.35395701996E+03  0.17672305404E+03 0.  0.
         24    2    5    5    0    0  0.12064179767E+03  0.15798632177E+03 -0.15519192462E+02  0.21508548335E+03  0.80664729602E+02 0.  0.
          5    1    5    5  501    0  0.24850321097E+02  0.81117837297E+02 -0.10984339622E+03  0.13887153661E+03  0.47000000000E+01 0. -1.
        -11    1    6    6    0    0 -0.10579210816E+02  0.27156120083E+02 -0.69332070711E-01  0.29144113752E+02  0.00000000000E+00 0.  1.
         12    1    6    6    0    0  0.13122100849E+03  0.13083020169E+03 -0.15449860391E+02  0.18594136960E+03  0.00000000000E+00 0. -1.
         -5    1    3    3    0  503 -0.12457718367E+03 -0.13113699146E+03 -0.30439902995E+03  0.35411473374E+03  0.47000000000E+01 0.  1.
         11    1    4    4    0    0  0.14112801957E+02 -0.26944950405E+02 -0.42000764391E+02  0.51858130903E+02  0.00000000000E+00 0. -1.
        -12    1    4    4    0    0 -0.35027737056E+02 -0.81022217204E+02 -0.40475853312E+03  0.41427166470E+03  0.00000000000E+00 0.  1.
<mgrwt>
<rscale>  2 0.33063127E+03</rscale>
<asrwt>0</asrwt>
<pdfrwt beam="1">  1       21 0.22898511E-01 0.33101328E+03</pdfrwt>
<pdfrwt beam="2">  1       21 0.15774788E+00 0.33101328E+03</pdfrwt>
<totfact> 0.42672064E+03</totfact>
</mgrwt>
</event>
<event>
12    1  0.1013215E-001  0.3941833E+03  0.7546771E-02  0.1045878E+00
         21   -1    0    0  501  502  0.00000000000E+00  0.00000000000E+00  0.25715962279E+03  0.25715962279E+03  0.00000000000E+00 0.  1.
         21   -1    0    0  502  503 -0.00000000000E+00 -0.00000000000E+00 -0.60692526727E+03  0.60692526727E+03  0.00000000000E+00 0. -1.
         -6    2    1    2    0  503  0.23873760655E+03 -0.26246044452E+03 -0.14064994328E+03  0.41852465261E+03  0.17175374400E+03 0.  0.
        -24    2    3    3    0    0  0.20285831166E+03 -0.23349263810E+03 -0.59906417532E+02  0.32542221139E+03  0.81489448077E+02 0.  0.
          6    2    1    2  501    0 -0.23873760655E+03  0.26246044452E+03 -0.20911570120E+03  0.44556023745E+03  0.17003946304E+03 0.  0.
         24    2    5    5    0    0 -0.95494050968E+02  0.14580787267E+03 -0.16885337501E+03  0.25643148859E+03  0.82864929771E+02 0.  0.
          5    1    5    5  501    0 -0.14324355558E+03  0.11665257185E+03 -0.40262326191E+02  0.18912874886E+03  0.47000000000E+01 0. -1.
        -13    1    6    6    0    0  0.41161760091E+01  0.21973763301E+01 -0.37526760876E+02  0.37815726219E+02  0.00000000000E+00 0.  1.
         14    1    6    6    0    0 -0.99610226977E+02  0.14361049634E+03 -0.13132661414E+03  0.21861576237E+03  0.00000000000E+00 0. -1.
         -5    1    3    3    0  503  0.35879294887E+02 -0.28967806415E+02 -0.80743525746E+02  0.93102441214E+02  0.47000000000E+01 0.  1.
         11    1    4    4    0    0  0.39887762809E+02 -0.29270351130E+02  0.18204824276E+02  0.52718143974E+02  0.00000000000E+00 0. -1.
        -12    1    4    4    0    0  0.16297054885E+03 -0.20422228697E+03 -0.78111241809E+02  0.27270406742E+03  0.00000000000E+00 0.  1.
<mgrwt>
<rscale>  2 0.39399719E+03</rscale>
<asrwt>0</asrwt>
<pdfrwt beam="1">  1       21 0.39563019E-01 0.39418331E+03</pdfrwt>
<pdfrwt beam="2">  1       21 0.93373118E-01 0.39418331E+03</pdfrwt>
<totfact> 0.53283159E+03</totfact>
</mgrwt>
</event>
<event>
12    1  0.1013215E-001  0.1937592E+03  0.7546771E-02  0.1155220E+00
         21   -1    0    0  501  502  0.00000000000E+00  0.00000000000E+00  0.12010306396E+03  0.12010306396E+03  0.00000000000E+00 0.  1.
         21   -1    0    0  502  503 -0.00000000000E+00 -0.00000000000E+00 -0.56191348116E+03  0.56191348116E+03  0.00000000000E+00 0. -1.
         -6    2    1    2    0  503 -0.93727359056E+00  0.87156781044E+02 -0.44856349818E+03  0.48862237264E+03  0.17304747378E+03 0.  0.
        -24    2    3    3    0    0  0.63809698897E+02  0.77587007809E+02 -0.28298713716E+03  0.31051742511E+03  0.79043848874E+02 0.  0.
          6    2    1    2  501    0  0.93727359056E+00 -0.87156781044E+02  0.67530809786E+01  0.19339417249E+03  0.17250657635E+03 0.  0.
         24    2    5    5    0    0 -0.42906339573E+01 -0.22660683729E+02 -0.57677339912E+02  0.10195869402E+03  0.80851614829E+02 0.  0.
          5    1    5    5  501    0  0.52279075479E+01 -0.64496097315E+02  0.64430420890E+02  0.91435478466E+02  0.47000000000E+01 0. -1.
        -13    1    6    6    0    0  0.15634022821E+02  0.26192243612E+02 -0.28100753709E+02  0.41474192627E+02  0.00000000000E+00 0.  1.
         14    1    6    6    0    0 -0.19924656778E+02 -0.48852927342E+02 -0.29576586202E+02  0.60484501395E+02  0.00000000000E+00 0. -1.
         -5    1    3    3    0  503 -0.64746972488E+02  0.95697732354E+01 -0.16557636101E+03  0.17810494752E+03  0.47000000000E+01 0.  1.
         13    1    4    4    0    0  0.20860950970E+02  0.61326747725E+02 -0.23634519144E+03  0.24506162241E+03  0.00000000000E+00 0. -1.
        -14    1    4    4    0    0  0.42948747928E+02  0.16260260084E+02 -0.46641945725E+02  0.65455802703E+02  0.00000000000E+00 0.  1.
<mgrwt>
<rscale>  2 0.19363831E+03</rscale>
<asrwt>0</asrwt>
<pdfrwt beam="1">  1       21 0.18477394E-01 0.19375916E+03</pdfrwt>
<pdfrwt beam="2">  1       21 0.86448228E-01 0.19375916E+03</pdfrwt>
<totfact> 0.30816257E+04</totfact>
</mgrwt>
</event>
<event>
12    1  0.1013215E-001  0.2102764E+03  0.7546771E-02  0.1142284E+00
         21   -1    0    0  503  502  0.00000000000E+00  0.00000000000E+00  0.35179363423E+03  0.35179363423E+03  0.00000000000E+00 0. -1.
         21   -1    0    0  501  503 -0.00000000000E+00 -0.00000000000E+00 -0.14558279229E+03  0.14558279229E+03  0.00000000000E+00 0. -1.
          6    2    1    2  501    0 -0.15738353022E+02  0.10991006006E+03  0.59378158337E+01  0.21036020065E+03  0.17857278432E+03 0.  0.
         24    2    3    3    0    0  0.39964863560E+02  0.41720885662E+01  0.90093659084E+01  0.90715345457E+02  0.80830121768E+02 0.  0.
         -6    2    1    2    0  502  0.15738353022E+02 -0.10991006006E+03  0.20027302611E+03  0.28701622587E+03  0.17303500185E+03 0.  0.
        -24    2    5    5    0    0  0.22448049607E+02 -0.35394787416E+01  0.32366561235E+02  0.88083092516E+02  0.78705743501E+02 0.  0.
          5    1    3    3  501    0 -0.55703216582E+02  0.10573797150E+03 -0.30715500747E+01  0.11964485519E+03  0.47000000000E+01 0. -1.
        -13    1    4    4    0    0 -0.12929004883E+02 -0.21458702065E+02  0.18545591813E+02  0.31170082407E+02  0.00000000000E+00 0.  1.
         14    1    4    4    0    0  0.52893868443E+02  0.25630790631E+02 -0.95362259042E+01  0.59545263051E+02  0.00000000000E+00 0. -1.
         -5    1    5    5    0  502 -0.67096965855E+01 -0.10637058132E+03  0.16790646488E+03  0.19893313335E+03  0.47000000000E+01 0.  1.
         13    1    6    6    0    0 -0.10957324967E+02 -0.11649435716E+02  0.47798004680E+02  0.50402594916E+02  0.00000000000E+00 0. -1.
        -14    1    6    6    0    0  0.33405374574E+02  0.81099569742E+01 -0.15431443445E+02  0.37680497599E+02  0.00000000000E+00 0.  1.
<mgrwt>
<rscale>  2 0.20909597E+03</rscale>
<asrwt>0</asrwt>
<pdfrwt beam="1">  1       21 0.54122098E-01 0.21027638E+03</pdfrwt>
<pdfrwt beam="2">  1       21 0.22397353E-01 0.21027638E+03</pdfrwt>
<totfact> 0.59733714E+04</totfact>
</mgrwt>
</event>
<event>
12    1  0.1013215E-001  0.2885440E+03  0.7546771E-02  0.1091256E+00
         21   -1    0    0  503  502  0.00000000000E+00  0.00000000000E+00  0.35536772003E+03  0.35536772003E+03  0.00000000000E+00 0. -1.
         21   -1    0    0  501  503 -0.00000000000E+00 -0.00000000000E+00 -0.23486180640E+03  0.23486180640E+03  0.00000000000E+00 0.  1.
          6    2    1    2  501    0 -0.22570482836E+03 -0.43659068214E+02  0.37082306602E+02  0.29091710590E+03  0.17438142464E+03 0.  0.
         24    2    3    3    0    0 -0.20844393793E+03 -0.81308358971E+02  0.55920894174E+02  0.24517445824E+03  0.83207235688E+02 0.  0.
         -6    2    1    2    0  502  0.22570482836E+03  0.43659068214E+02  0.83423607032E+02  0.29931242053E+03  0.17256779275E+03 0.  0.
        -24    2    5    5    0    0  0.14392235199E+03  0.92767351096E+02  0.75283674796E+02  0.20345656320E+03  0.80046964882E+02 0.  0.
          5    1    3    3  501    0 -0.17260890430E+02  0.37649290758E+02 -0.18838587573E+02  0.45742647658E+02  0.47000000000E+01 0. -1.
        -13    1    4    4    0    0 -0.79674245809E+01 -0.29464951956E+02  0.15351703958E+02  0.34166329370E+02  0.00000000000E+00 0.  1.
         14    1    4    4    0    0 -0.20047651335E+03 -0.51843407015E+02  0.40569190216E+02  0.21100812887E+03  0.00000000000E+00 0. -1.
         -5    1    5    5    0  502  0.81782476366E+02 -0.49108282883E+02  0.81399322360E+01  0.95855857333E+02  0.47000000000E+01 0.  1.
         13    1    6    6    0    0  0.54953077769E+02  0.84283932495E+01  0.56799110646E+02  0.79479667458E+02  0.00000000000E+00 0. -1.
        -14    1    6    6    0    0  0.88969274223E+02  0.84338957847E+02  0.18484564150E+02  0.12397689574E+03  0.00000000000E+00 0.  1.
<mgrwt>
<rscale>  2 0.28827055E+03</rscale>
<asrwt>0</asrwt>
<pdfrwt beam="1">  1       21 0.54671957E-01 0.28854404E+03</pdfrwt>
<pdfrwt beam="2">  1       21 0.36132586E-01 0.28854404E+03</pdfrwt>
<totfact> 0.22254615E+04</totfact>
</mgrwt>
</event>
<event>
12    1  0.1013215E-001  0.1994280E+03  0.7546771E-02  0.1150257E+00
         21   -1    0    0  501  502  0.00000000000E+00  0.00000000000E+00  0.41957196489E+02  0.41957196489E+02  0.00000000000E+00 0.  1.
         21   -1    0    0  502  503 -0.00000000000E+00 -0.00000000000E+00 -0.95765490014E+03  0.95765490014E+03  0.00000000000E+00 0. -1.
         -6    2    1    2    0  503  0.91304817916E+02 -0.35931732481E+02 -0.51004722504E+03  0.54759015390E+03  0.17343340425E+03 0.  0.
        -24    2    3    3    0    0  0.17522897071E+02 -0.46787032949E+02 -0.14069646493E+03  0.17075639296E+03  0.82862368542E+02 0.  0.
          6    2    1    2  501    0 -0.91304817916E+02  0.35931732481E+02 -0.40565047861E+03  0.45202194273E+03  0.17361989152E+03 0.  0.
         24    2    5    5    0    0  0.58135617002E+01  0.36901407969E+02 -0.11317202388E+03  0.14380342217E+03  0.80473634373E+02 0.  0.
          5    1    5    5  501    0 -0.97118379616E+02 -0.96967548758E+00 -0.29247845473E+03  0.30821852055E+03  0.47000000000E+01 0. -1.
        -13    1    6    6    0    0 -0.12344730917E+02 -0.11363632481E+02  0.26813447832E+01  0.16991590108E+02  0.00000000000E+00 0.  1.
         14    1    6    6    0    0  0.18158292617E+02  0.48265040449E+02 -0.11585336867E+03  0.12681183206E+03  0.00000000000E+00 0. -1.
         -5    1    3    3    0  503  0.73781920844E+02  0.10855300468E+02 -0.36935076011E+03  0.37683376094E+03  0.47000000000E+01 0.  1.
         11    1    4    4    0    0  0.18599403446E+02 -0.20300863711E+02 -0.14158130592E+03  0.14423359201E+03  0.00000000000E+00 0. -1.
        -12    1    4    4    0    0 -0.10765063745E+01 -0.26486169238E+02  0.88484099786E+00  0.26522800955E+02  0.00000000000E+00 0.  1.
<mgrwt>
<rscale>  2 0.19938740E+03</rscale>
<asrwt>0</asrwt>
<pdfrwt beam="1">  1       21 0.64549539E-02 0.19942800E+03</pdfrwt>
<pdfrwt beam="2">  1       21 0.14733151E+00 0.19942800E+03</pdfrwt>
<totfact> 0.54295701E+04</totfact>
</mgrwt>
</event>
<event>
12    1  0.1013215E-001  0.2235547E+03  0.7546771E-02  0.1131528E+00
         21   -1    0    0  501  502  0.00000000000E+00  0.00000000000E+00  0.25219949629E+03  0.25219949629E+03  0.00000000000E+00 0. -1.
         21   -1    0    0  502  503 -0.00000000000E+00 -0.00000000000E+00 -0.88610861817E+03  0.88610861817E+03  0.00000000000E+00 0.  1.
         -6    2    1    2    0  503  0.12410128235E+03 -0.65864021586E+02 -0.81914661561E+03  0.84910415414E+03  0.17388930122E+03 0.  0.
        -24    2    3    3    0    0  0.13793264749E+03 -0.11637313856E+02 -0.50349297239E+03  0.52849355704E+03  0.81482662361E+02 0.  0.
          6    2    1    2  501    0 -0.12410128235E+03  0.65864021586E+02  0.18523749374E+03  0.28920396032E+03  0.17200815084E+03 0.  0.
         24    2    5    5    0    0 -0.10649325398E+02  0.51040031889E+02  0.37928380627E+02  0.10262110469E+03  0.79837560615E+02 0.  0.
          5    1    5    5  501    0 -0.11345195696E+03  0.14823989696E+02  0.14730911311E+03  0.18658285563E+03  0.47000000000E+01 0. -1.
        -11    1    6    6    0    0  0.11250902156E+02 -0.10362460608E+02 -0.12858157152E+02  0.19982382103E+02  0.00000000000E+00 0.  1.
         12    1    6    6    0    0 -0.21900227554E+02  0.61402492497E+02  0.50786537779E+02  0.82638722590E+02  0.00000000000E+00 0. -1.
         -5    1    3    3    0  503 -0.13831365136E+02 -0.54226707729E+02 -0.31565364323E+03  0.32061059710E+03  0.47000000000E+01 0.  1.
         11    1    4    4    0    0  0.39181733973E+02  0.29211246320E+02 -0.10329991611E+03  0.11427763498E+03  0.00000000000E+00 0. -1.
        -12    1    4    4    0    0  0.98750913517E+02 -0.40848560176E+02 -0.40019305628E+03  0.41421592205E+03  0.00000000000E+00 0.  1.
<mgrwt>
<rscale>  2 0.22318874E+03</rscale>
<asrwt>0</asrwt>
<pdfrwt beam="1">  1       21 0.38799923E-01 0.22355466E+03</pdfrwt>
<pdfrwt beam="2">  1       21 0.13632440E+00 0.22355466E+03</pdfrwt>
<totfact> 0.23888742E+03</totfact>
</mgrwt>
</event>
<event>
12    1  0.1013215E-001  0.2100201E+03  0.7546771E-02  0.1141590E+00
         21   -1    0    0  501  502  0.00000000000E+00  0.00000000000E+00  0.26942289439E+03  0.26942289439E+03  0.00000000000E+00 0.  1.
         21   -1    0    0  502  503 -0.00000000000E+00 -0.00000000000E+00 -0.37078990922E+03  0.37078990922E+03  0.00000000000E+00 0.  1.
         -6    2    1    2    0  503  0.61036674121E+01  0.11917230523E+03 -0.29000458658E+03  0.35806579235E+03  0.17282696063E+03 0.  0.
        -24    2    3    3    0    0 -0.50268486127E+02  0.38817415152E+02 -0.93842716697E+02  0.13866593535E+03  0.79925426072E+02 0.  0.
          6    2    1    2  501    0 -0.61036674121E+01 -0.11917230523E+03  0.18863757174E+03  0.28214701126E+03  0.17257899467E+03 0.  0.
         24    2    5    5    0    0 -0.62603663114E+02 -0.73120186657E+02  0.73526216952E+02  0.14581740648E+03  0.81183933880E+02 0.  0.
          5    1    5    5  501    0  0.56499995701E+02 -0.46052118570E+02  0.11511135479E+03  0.13632960479E+03  0.47000000000E+01 0. -1.
        -11    1    6    6    0    0 -0.25181074228E+02 -0.81918448355E+02  0.39046541423E+02  0.94177232266E+02  0.00000000000E+00 0.  1.
         12    1    6    6    0    0 -0.37422588886E+02  0.87982616986E+01  0.34479675529E+02  0.51640174210E+02  0.00000000000E+00 0. -1.
         -5    1    3    3    0  503  0.56372153539E+02  0.80354890074E+02 -0.19616186988E+03  0.21939985700E+03  0.47000000000E+01 0.  1.
         11    1    4    4    0    0  0.18703488233E+02 -0.23975236585E+01 -0.63977636923E+01  0.19912307050E+02  0.00000000000E+00 0. -1.
        -12    1    4    4    0    0 -0.68971974360E+02  0.41214938811E+02 -0.87444953005E+02  0.11875362830E+03  0.00000000000E+00 0.  1.
<mgrwt>
<rscale>  2 0.20996910E+03</rscale>
<asrwt>0</asrwt>
<pdfrwt beam="1">  1       21 0.41449676E-01 0.21002012E+03</pdfrwt>
<pdfrwt beam="2">  1       21 0.57044601E-01 0.21002012E+03</pdfrwt>
<totfact> 0.16004741E+04</totfact>
</mgrwt>
</event>
<event>
12    1  0.1013215E-001  0.1966144E+03  0.7546771E-02  0.1152675E+00
         21   -1    0    0  503  502  0.00000000000E+00  0.00000000000E+00  0.91147704345E+03  0.91147704345E+03  0.00000000000E+00 0. -1.
         21   -1    0    0  501  503 -0.00000000000E+00 -0.00000000000E+00 -0.56563740635E+02  0.56563740635E+02  0.00000000000E+00 0. -1.
          6    2    1    2  501    0  0.54455972214E+02  0.74552445513E+02  0.18512239019E+03  0.27005095397E+03  0.17359060559E+03 0.  0.
         24    2    3    3    0    0 -0.41354935830E+01  0.64208833264E+02  0.34547890895E+02  0.10807959843E+03  0.79672870254E+02 0.  0.
         -6    2    1    2    0  502 -0.54455972214E+02 -0.74552445513E+02  0.66979091263E+03  0.69798983012E+03  0.17333902119E+03 0.  0.
        -24    2    5    5    0    0 -0.91812312217E+02 -0.42225128884E+02  0.59102398214E+03  0.60489379972E+03  0.79841713923E+02 0.  0.
          5    1    3    3  501    0  0.58591465797E+02  0.10343612249E+02  0.15057449929E+03  0.16197135554E+03  0.47000000000E+01 0. -1.
        -11    1    4    4    0    0 -0.18832804687E+02  0.17929563657E+02  0.50639735108E+02  0.56925623027E+02  0.00000000000E+00 0.  1.
         12    1    4    4    0    0  0.14697311104E+02  0.46279269607E+02 -0.16091844212E+02  0.51153975399E+02  0.00000000000E+00 0. -1.
         -5    1    5    5    0  502  0.37356340003E+02 -0.32327316629E+02  0.78766930487E+02  0.93096030405E+02  0.47000000000E+01 0.  1.
         11    1    6    6    0    0  0.14812292710E+02 -0.69348616990E+01  0.66737860215E+02  0.68712723045E+02  0.00000000000E+00 0. -1.
        -12    1    6    6    0    0 -0.10662460493E+03 -0.35290267185E+02  0.52428612193E+03  0.53618107667E+03  0.00000000000E+00 0.  1.
<mgrwt>
<rscale>  2 0.19655884E+03</rscale>
<asrwt>0</asrwt>
<pdfrwt beam="1">  1       21 0.14022723E+00 0.19661439E+03</pdfrwt>
<pdfrwt beam="2">  1       21 0.87021146E-02 0.19661439E+03</pdfrwt>
<totfact> 0.36835794E+04</totfact>
</mgrwt>
</event>
<event>
12    1  0.1013215E-001  0.1847207E+03  0.7546771E-02  0.1163374E+00
         21   -1    0    0  501  502  0.00000000000E+00  0.00000000000E+00  0.11982110581E+03  0.11982110581E+03  0.00000000000E+00 0. -1.
         21   -1    0    0  502  503 -0.00000000000E+00 -0.00000000000E+00 -0.30683067875E+03  0.30683067875E+03  0.00000000000E+00 0. -1.
         -6    2    1    2    0  503  0.63443405625E+02 -0.94129925176E+01 -0.15117405109E+03  0.23848713661E+03  0.17294175453E+03 0.  0.
        -24    2    3    3    0    0  0.68349243906E+02  0.55270324233E+02 -0.99820297497E+02  0.15561798238E+03  0.80786364957E+02 0.  0.
          6    2    1    2  501    0 -0.63443405625E+02  0.94129925176E+01 -0.35835521851E+02  0.18816464796E+03  0.17322840405E+03 0.  0.
         24    2    5    5    0    0  0.28240032846E+02 -0.29898758760E+01  0.76976912259E+01  0.85807847131E+02  0.80605789905E+02 0.  0.
          5    1    5    5  501    0 -0.91683438471E+02  0.12402868394E+02 -0.43533213077E+02  0.10235680082E+03  0.47000000000E+01 0. -1.
        -13    1    6    6    0    0  0.44868200447E+01  0.61185695911E+00 -0.35816692368E+02  0.36101819556E+02  0.00000000000E+00 0.  1.
         14    1    6    6    0    0  0.23753212801E+02 -0.36017328351E+01  0.43514383594E+02  0.49706027576E+02  0.00000000000E+00 0. -1.
         -5    1    3    3    0  503 -0.49058382805E+01 -0.64683316751E+02 -0.51353753591E+02  0.82869154231E+02  0.47000000000E+01 0.  1.
         13    1    4    4    0    0  0.50687165624E+02 -0.85241365836E+01 -0.30489804116E+02  0.59761842496E+02  0.00000000000E+00 0. -1.
        -14    1    4    4    0    0  0.17662078281E+02  0.63794460817E+02 -0.69330493381E+02  0.95856139880E+02  0.00000000000E+00 0.  1.
<mgrwt>
<rscale>  2 0.18465350E+03</rscale>
<asrwt>0</asrwt>
<pdfrwt beam="1">  1       21 0.18434016E-01 0.18472074E+03</pdfrwt>
<pdfrwt beam="2">  1       21 0.47204720E-01 0.18472074E+03</pdfrwt>
<totfact> 0.11568031E+05</totfact>
</mgrwt>
</event>
<event>
12    1  0.1013215E-001  0.1751942E+03  0.7546771E-02  0.1172916E+00
         21   -1    0    0  501  502  0.00000000000E+00  0.00000000000E+00  0.25909682636E+04  0.25909682636E+04  0.00000000000E+00 0.  1.
         21   -1    0    0  502  503 -0.00000000000E+00 -0.00000000000E+00 -0.12025034869E+02  0.12025034869E+02  0.00000000000E+00 0.  1.
         -6    2    1    2    0  503 -0.82234801791E+01  0.20725683211E+02  0.10961169016E+04  0.11100294043E+04  0.17376949317E+03 0.  0.
        -24    2    3    3    0    0  0.59009179313E+02 -0.61789832567E+01  0.71927540797E+03  0.72626425093E+03  0.81131908610E+02 0.  0.
          6    2    1    2  501    0  0.82234801791E+01 -0.20725683211E+02  0.14828263271E+04  0.14929638942E+04  0.17225008980E+03 0.  0.
         24    2    5    5    0    0  0.29098396325E+02 -0.66240732063E+02  0.66443902225E+03  0.67303264553E+03  0.79114956857E+02 0.  0.
          5    1    5    5  501    0 -0.20874916146E+02  0.45515048851E+02  0.81838730486E+03  0.81993124867E+03  0.47000000000E+01 0. -1.
        -11    1    6    6    0    0  0.31344029529E+02 -0.13702566169E+02  0.48072711994E+03  0.48194270650E+03  0.00000000000E+00 0.  1.
         12    1    6    6    0    0 -0.22456332045E+01 -0.52538165893E+02  0.18371190231E+03  0.19108993902E+03  0.00000000000E+00 0. -1.
         -5    1    3    3    0  503 -0.67232659492E+02  0.26904666468E+02  0.37684149365E+03  0.38376515334E+03  0.47000000000E+01 0.  1.
         13    1    4    4    0    0 -0.11015128680E+02 -0.19146520988E+02  0.31427633231E+03  0.31505163923E+03  0.00000000000E+00 0. -1.
        -14    1    4    4    0    0  0.70024307993E+02  0.12967537732E+02  0.40499907566E+03  0.41121261171E+03  0.00000000000E+00 0.  1.
<mgrwt>
<rscale>  2 0.17481627E+03</rscale>
<asrwt>0</asrwt>
<pdfrwt beam="1">  1       21 0.39861006E+00 0.17519422E+03</pdfrwt>
<pdfrwt beam="2">  1       21 0.18500074E-02 0.17519422E+03</pdfrwt>
<totfact> 0.12707608E+04</totfact>
</mgrwt>
</event>
<event>
12    1  0.1013215E-001  0.2247946E+03  0.7546771E-02  0.1130393E+00
         21   -1    0    0  503  502  0.00000000000E+00  0.00000000000E+00  0.10851891375E+03  0.10851891375E+03  0.00000000000E+00 0.  1.
         21   -1    0    0  501  503 -0.00000000000E+00 -0.00000000000E+00 -0.47172857952E+03  0.47172857952E+03  0.00000000000E+00 0.  1.
          6    2    1    2  501    0  0.13943143903E+03  0.35670746544E+02 -0.14771733157E+03  0.26898513599E+03  0.17268197645E+03 0.  0.
         24    2    3    3    0    0  0.97101876245E+02 -0.22842970035E+02 -0.38335810123E+02  0.13782853438E+03  0.87043063487E+02 0.  0.
         -6    2    1    2    0  502 -0.13943143903E+03 -0.35670746544E+02 -0.21549233420E+03  0.31126235727E+03  0.17243485902E+03 0.  0.
        -24    2    5    5    0    0 -0.64910483180E+02 -0.21678838918E+02 -0.28368314161E+02  0.10930534398E+03  0.80371351186E+02 0.  0.
          5    1    3    3  501    0  0.42329562781E+02  0.58513716578E+02 -0.10938152144E+03  0.13115660161E+03  0.47000000000E+01 0. -1.
        -11    1    4    4    0    0  0.79789082171E+02  0.71644496436E+01  0.74021781545E+01  0.80451346874E+02  0.00000000000E+00 0.  1.
         12    1    4    4    0    0  0.17312794074E+02 -0.30007419678E+02 -0.45737988278E+02  0.57377187506E+02  0.00000000000E+00 0. -1.
         -5    1    5    5    0  502 -0.74520955847E+02 -0.13991907625E+02 -0.18712402004E+03  0.20195701329E+03  0.47000000000E+01 0.  1.
         13    1    6    6    0    0 -0.29396856303E+02 -0.51223870593E+02 -0.11797034168E+02  0.60226489971E+02  0.00000000000E+00 0. -1.
        -14    1    6    6    0    0 -0.35513626876E+02  0.29545031674E+02 -0.16571279992E+02  0.49078854012E+02  0.00000000000E+00 0.  1.
<mgrwt>
<rscale>  2 0.22474710E+03</rscale>
<asrwt>0</asrwt>
<pdfrwt beam="1">  1       21 0.16695218E-01 0.22479456E+03</pdfrwt>
<pdfrwt beam="2">  1       21 0.72573627E-01 0.22479456E+03</pdfrwt>
<totfact> 0.54349681E+04</totfact>
</mgrwt>
</event>
<event>
12    1  0.1013215E-001  0.2666659E+03  0.7546771E-02  0.1103268E+00
         21   -1    0    0  501  502  0.00000000000E+00  0.00000000000E+00  0.61849400675E+03  0.61849400675E+03  0.00000000000E+00 0.  1.
         21   -1    0    0  502  503 -0.00000000000E+00 -0.00000000000E+00 -0.11952532977E+03  0.11952532977E+03  0.00000000000E+00 0.  1.
         -6    2    1    2    0  503  0.48897874855E+02  0.19562512570E+03  0.17576857189E+03  0.31900974811E+03  0.17381725045E+03 0.  0.
        -24    2    3    3    0    0 -0.28559162839E+00  0.23706834844E+02  0.84475021396E+02  0.11818267208E+03  0.79177137851E+02 0.  0.
          6    2    1    2  501    0 -0.48897874855E+02 -0.19562512570E+03  0.32320010509E+03  0.41900958842E+03  0.17450081743E+03 0.  0.
         24    2    5    5    0    0 -0.52337886172E+02 -0.19181254790E+03  0.19256055421E+03  0.28818469904E+03  0.80246780994E+02 0.  0.
          5    1    5    5  501    0  0.34400113174E+01 -0.38125778015E+01  0.13063955088E+03  0.13082488938E+03  0.47000000000E+01 0. -1.
        -11    1    6    6    0    0 -0.40230570584E+02 -0.33297678529E+02  0.70597633885E+02  0.87813780895E+02  0.00000000000E+00 0.  1.
         12    1    6    6    0    0 -0.12107315588E+02 -0.15851486937E+03  0.12196292033E+03  0.20037091814E+03  0.00000000000E+00 0. -1.
         -5    1    3    3    0  503  0.49183466483E+02  0.17191829086E+03  0.91293550490E+02  0.20082707603E+03  0.47000000000E+01 0.  1.
         13    1    4    4    0    0  0.18642467561E+02 -0.20433151737E+02  0.96974828967E+01  0.29310347340E+02  0.00000000000E+00 0. -1.
        -14    1    4    4    0    0 -0.18928059190E+02  0.44139986580E+02  0.74777538499E+02  0.88872324736E+02  0.00000000000E+00 0.  1.
<mgrwt>
<rscale>  2 0.26655417E+03</rscale>
<asrwt>0</asrwt>
<pdfrwt beam="1">  1       21 0.95152922E-01 0.26666595E+03</pdfrwt>
<pdfrwt beam="2">  1       21 0.18388513E-01 0.26666595E+03</pdfrwt>
<totfact> 0.23960393E+04</totfact>
</mgrwt>
</event>
<event>
12    1  0.1013215E-001  0.1879174E+03  0.7546771E-02  0.1160501E+00
         21   -1    0    0  501  502  0.00000000000E+00  0.00000000000E+00  0.17145134513E+03  0.17145134513E+03  0.00000000000E+00 0. -1.
         21   -1    0    0  502  503 -0.00000000000E+00 -0.00000000000E+00 -0.32378942600E+03  0.32378942600E+03  0.00000000000E+00 0. -1.
         -6    2    1    2    0  503 -0.13326111930E+02 -0.72919291014E+02 -0.22607374823E+03  0.29397665321E+03  0.17267925392E+03 0.  0.
        -24    2    3    3    0    0 -0.40123761875E+02 -0.34873429834E+02 -0.22794517584E+03  0.24716646375E+03  0.79411493125E+02 0.  0.
          6    2    1    2  501    0  0.13326111930E+02  0.72919291014E+02  0.73735667351E+02  0.20126411793E+03  0.17197525480E+03 0.  0.
         24    2    5    5    0    0  0.47442745878E+01 -0.17698487181E+02  0.64210513874E+02  0.10962325255E+03  0.86939765463E+02 0.  0.
          5    1    5    5  501    0  0.85818373422E+01  0.90617778195E+02  0.95251534775E+01  0.91640865371E+02  0.47000000000E+01 0. -1.
        -13    1    6    6    0    0 -0.18091416346E+02 -0.15738487905E+02 -0.14243125562E+02  0.27890248704E+02  0.00000000000E+00 0.  1.
         14    1    6    6    0    0  0.22835690934E+02 -0.19599992757E+01  0.78453639436E+02  0.81733003850E+02  0.00000000000E+00 0. -1.
         -5    1    3    3    0  503  0.26797649945E+02 -0.38045861180E+02  0.18714276132E+01  0.46810189455E+02  0.47000000000E+01 0.  1.
         13    1    4    4    0    0 -0.29580751039E+02 -0.57968474564E+02 -0.12256816741E+03  0.13877435115E+03  0.00000000000E+00 0. -1.
        -14    1    4    4    0    0 -0.10543010836E+02  0.23095044730E+02 -0.10537700843E+03  0.10839211260E+03  0.00000000000E+00 0.  1.
<mgrwt>
<rscale>  2 0.18775547E+03</rscale>
<asrwt>0</asrwt>
<pdfrwt beam="1">  1       21 0.26377130E-01 0.18791736E+03</pdfrwt>
<pdfrwt beam="2">  1       21 0.49813758E-01 0.18791736E+03</pdfrwt>
<totfact> 0.52606649E+04</totfact>
</mgrwt>
</event>
<event>
12    1  0.1013215E-001  0.1866484E+03  0.7546771E-02  0.1162021E+00
         21   -1    0    0  503  502  0.00000000000E+00  0.00000000000E+00  0.23959231075E+03  0.23959231075E+03  0.00000000000E+00 0.  1.
         21   -1    0    0  501  503 -0.00000000000E+00 -0.00000000000E+00 -0.45184365856E+03  0.45184365856E+03  0.00000000000E+00 0.  1.
          6    2    1    2  501    0 -0.61234473447E+02  0.25111937117E+02 -0.39180692131E+03  0.43399342769E+03  0.17452037579E+03 0.  0.
         24    2    3    3    0    0 -0.75182180451E+02 -0.40758884091E+02 -0.27141564963E+03  0.29597295125E+03  0.81362682609E+02 0.  0.
         -6    2    1    2    0  502  0.61234473447E+02 -0.25111937117E+02  0.17955557350E+03  0.25744254163E+03  0.17220972138E+03 0.  0.
        -24    2    5    5    0    0  0.80471170933E+02  0.25712164792E+01  0.49898001299E+02  0.12339186631E+03  0.79079211127E+02 0.  0.
          5    1    3    3  501    0  0.13947707004E+02  0.65870821208E+02 -0.12039127168E+03  0.13802047643E+03  0.47000000000E+01 0. -1.
        -13    1    4    4    0    0 -0.60728531003E+02 -0.55370956605E+02 -0.13521888995E+03  0.15823414775E+03  0.00000000000E+00 0.  1.
         14    1    4    4    0    0 -0.14453649448E+02  0.14612072513E+02 -0.13619675968E+03  0.13773880351E+03  0.00000000000E+00 0. -1.
         -5    1    5    5    0  502 -0.19236697485E+02 -0.27683153596E+02  0.12965757220E+03  0.13405067532E+03  0.47000000000E+01 0.  1.
         13    1    6    6    0    0  0.10808441595E+02  0.26215444963E+02 -0.83478839741E+01  0.29559416963E+02  0.00000000000E+00 0. -1.
        -14    1    6    6    0    0  0.69662729337E+02 -0.23644228484E+02  0.58245885273E+02  0.93832449348E+02  0.00000000000E+00 0.  1.
<mgrwt>
<rscale>  2 0.18610639E+03</rscale>
<asrwt>0</asrwt>
<pdfrwt beam="1">  1       21 0.36860356E-01 0.18664842E+03</pdfrwt>
<pdfrwt beam="2">  1       21 0.69514408E-01 0.18664842E+03</pdfrwt>
<totfact> 0.13408007E+04</totfact>
</mgrwt>
</event>
<event>
12    1  0.1013215E-001  0.2298999E+03  0.7546771E-02  0.1127030E+00
         21   -1    0    0  503  502  0.00000000000E+00  0.00000000000E+00  0.37232098367E+03  0.37232098367E+03  0.00000000000E+00 0.  1.
         21   -1    0    0  501  503 -0.00000000000E+00 -0.00000000000E+00 -0.17646108400E+03  0.17646108400E+03  0.00000000000E+00 0.  1.
          6    2    1    2  501    0  0.11860328435E+02  0.15072712490E+03 -0.25653310431E+02  0.22952970861E+03  0.17078191130E+03 0.  0.
         24    2    3    3    0    0  0.67873501601E+02  0.94575317138E+02  0.58243832325E+01  0.14406956421E+03  0.84680653400E+02 0.  0.
         -6    2    1    2    0  502 -0.11860328435E+02 -0.15072712490E+03  0.22151321011E+03  0.31925235906E+03  0.17318958671E+03 0.  0.
        -24    2    5    5    0    0 -0.21263025421E+02 -0.72506277005E+01  0.53431264769E+02  0.98011435390E+02  0.79035773927E+02 0.  0.
          5    1    3    3  501    0 -0.56013173166E+02  0.56151807761E+02 -0.31477693663E+02  0.85460144402E+02  0.47000000000E+01 0. -1.
        -13    1    4    4    0    0  0.61819319823E+02  0.89353539008E+02 -0.25612547342E+02  0.11163192114E+03  0.00000000000E+00 0.  1.
         14    1    4    4    0    0  0.60541817780E+01  0.52217781298E+01  0.31436930574E+02  0.32437643067E+02  0.00000000000E+00 0. -1.
         -5    1    5    5    0  502  0.94026969868E+01 -0.14347649720E+03  0.16808194534E+03  0.22124092367E+03  0.47000000000E+01 0.  1.
         11    1    6    6    0    0  0.13002020944E+02  0.48407350782E+01  0.59566831924E+02  0.61161202818E+02  0.00000000000E+00 0. -1.
        -12    1    6    6    0    0 -0.34265046365E+02 -0.12091362779E+02 -0.61355671553E+01  0.36850232572E+02  0.00000000000E+00 0.  1.
<mgrwt>
<rscale>  2 0.22944650E+03</rscale>
<asrwt>0</asrwt>
<pdfrwt beam="1">  1       21 0.57280151E-01 0.22989991E+03</pdfrwt>
<pdfrwt beam="2">  1       21 0.27147859E-01 0.22989991E+03</pdfrwt>
<totfact> 0.36320528E+04</totfact>
</mgrwt>
</event>
<event>
12    1  0.1013215E-001  0.1971211E+03  0.7546771E-02  0.1155856E+00
         21   -1    0    0  503  502  0.00000000000E+00  0.00000000000E+00  0.53818484267E+02  0.53818484267E+02  0.00000000000E+00 0. -1.
         21   -1    0    0  501  503 -0.00000000000E+00 -0.00000000000E+00 -0.72384817098E+03  0.72384817098E+03  0.00000000000E+00 0. -1.
          6    2    1    2  501    0  0.83959223235E+02  0.39837687764E+02 -0.46034425080E+03  0.50077295388E+03  0.17384052910E+03 0.  0.
         24    2    3    3    0    0  0.20973088645E+02  0.58710840310E+02 -0.13719082188E+03  0.17096440690E+03  0.80750687925E+02 0.  0.
         -6    2    1    2    0  502 -0.83959223235E+02 -0.39837687764E+02 -0.20968543590E+03  0.27689370136E+03  0.15513203180E+03 0.  0.
        -24    2    5    5    0    0 -0.62773156865E+02 -0.68901659547E+02 -0.94597058697E+02  0.15622478062E+03  0.82278008336E+02 0.  0.
          5    1    3    3  501    0  0.62986134590E+02 -0.18873152546E+02 -0.32315342892E+03  0.32980854698E+03  0.47000000000E+01 0. -1.
        -13    1    4    4    0    0  0.39284294357E+02  0.44381578682E+02 -0.41164014343E+02  0.72162707725E+02  0.00000000000E+00 0.  1.
         14    1    4    4    0    0 -0.18311205712E+02  0.14329261628E+02 -0.96026807539E+02  0.98801699174E+02  0.00000000000E+00 0. -1.
         -5    1    5    5    0  502 -0.21186066370E+02  0.29063971783E+02 -0.11508837721E+03  0.12066892074E+03  0.47000000000E+01 0.  1.
         11    1    6    6    0    0 -0.30349433014E+02 -0.78583692706E+02 -0.87863363568E+02  0.12172286351E+03  0.00000000000E+00 0. -1.
        -12    1    6    6    0    0 -0.32423723851E+02  0.96820331590E+01 -0.67336951287E+01  0.34501917114E+02  0.00000000000E+00 0.  1.
<mgrwt>
<rscale>  2 0.19291759E+03</rscale>
<asrwt>0</asrwt>
<pdfrwt beam="1">  1       21 0.82797670E-02 0.19712108E+03</pdfrwt>
<pdfrwt beam="2">  1       21 0.11136125E+00 0.19712108E+03</pdfrwt>
<totfact> 0.71497136E+04</totfact>
</mgrwt>
</event>
<event>
12    1  0.1013215E-001  0.2145925E+03  0.7546771E-02  0.1138111E+00
         21   -1    0    0  503  502  0.00000000000E+00  0.00000000000E+00  0.11542599660E+03  0.11542599660E+03  0.00000000000E+00 0. -1.
         21   -1    0    0  501  503 -0.00000000000E+00 -0.00000000000E+00 -0.62442529251E+03  0.62442529251E+03  0.00000000000E+00 0. -1.
          6    2    1    2  501    0  0.12232758677E+03  0.34524645795E+02 -0.47766427345E+03  0.52365360207E+03  0.17289866159E+03 0.  0.
         24    2    3    3    0    0  0.33223731926E+02 -0.38560877680E+02 -0.21197016932E+03  0.23400478426E+03  0.85065437902E+02 0.  0.
         -6    2    1    2    0  502 -0.12232758677E+03 -0.34524645795E+02 -0.31335022458E+02  0.21619768703E+03  0.17205687024E+03 0.  0.
        -24    2    5    5    0    0 -0.11663634320E+03 -0.51826108700E+02  0.29095171418E+02  0.15290764671E+03  0.79020486747E+02 0.  0.
          5    1    3    3  501    0  0.89103854841E+02  0.73085523475E+02 -0.26569410413E+03  0.28964881781E+03  0.47000000000E+01 0. -1.
        -13    1    4    4    0    0  0.55339404326E+02 -0.46640192517E+02 -0.13078186472E+03  0.14947124596E+03  0.00000000000E+00 0.  1.
         14    1    4    4    0    0 -0.22115672400E+02  0.80793148374E+01 -0.81188304604E+02  0.84533538305E+02  0.00000000000E+00 0. -1.
         -5    1    5    5    0  502 -0.56912435692E+01  0.17301462905E+02 -0.60430193876E+02  0.63290040322E+02  0.47000000000E+01 0.  1.
         11    1    6    6    0    0 -0.30671192010E+02 -0.54444873879E+02  0.12323366494E+01  0.62501879689E+02  0.00000000000E+00 0. -1.
        -12    1    6    6    0    0 -0.85965151188E+02  0.26187651792E+01  0.27862834769E+02  0.90405767024E+02  0.00000000000E+00 0.  1.
<mgrwt>
<rscale>  2 0.21442288E+03</rscale>
<asrwt>0</asrwt>
<pdfrwt beam="1">  1       21 0.17757845E-01 0.21459249E+03</pdfrwt>
<pdfrwt beam="2">  1       21 0.96065432E-01 0.21459249E+03</pdfrwt>
<totfact> 0.25651867E+04</totfact>
</mgrwt>
</event>
<event>
12    1  0.1013215E-001  0.1818298E+03  0.7546771E-02  0.1167453E+00
         21   -1    0    0  503  502  0.00000000000E+00  0.00000000000E+00  0.59344822786E+03  0.59344822786E+03  0.00000000000E+00 0. -1.
         21   -1    0    0  501  503 -0.00000000000E+00 -0.00000000000E+00 -0.57199422706E+02  0.57199422706E+02  0.00000000000E+00 0. -1.
          6    2    1    2  501    0 -0.33794129142E+02  0.46989038785E+02  0.19467649659E+03  0.26638508117E+03  0.17237186608E+03 0.  0.
         24    2    3    3    0    0  0.41998396968E+02  0.15903403671E+02  0.65300324168E+02  0.11318224923E+03  0.80804118761E+02 0.  0.
         -6    2    1    2    0  502  0.33794129142E+02 -0.46989038785E+02  0.34157230856E+03  0.38426256939E+03  0.16624099172E+03 0.  0.
        -24    2    5    5    0    0  0.32981453860E+02 -0.40475811800E+02  0.35545875471E+03  0.36820000567E+03  0.80586911080E+02 0.  0.
          5    1    3    3  501    0 -0.75792526110E+02  0.31085635114E+02  0.12937617242E+03  0.15320283194E+03  0.47000000000E+01 0. -1.
        -13    1    4    4    0    0  0.20371674078E+02  0.13316594096E+02 -0.15926462717E+02  0.29085890011E+02  0.00000000000E+00 0.  1.
         14    1    4    4    0    0  0.21626722890E+02  0.25868095748E+01  0.81226786885E+02  0.84096359222E+02  0.00000000000E+00 0. -1.
         -5    1    5    5    0  502  0.81267528220E+00 -0.65132269853E+01 -0.13886446143E+02  0.16062563723E+02  0.47000000000E+01 0.  1.
         13    1    6    6    0    0 -0.25071090366E+01 -0.25064398268E+02  0.25019289818E+02  0.35503162102E+02  0.00000000000E+00 0. -1.
        -14    1    6    6    0    0  0.35488562897E+02 -0.15411413532E+02  0.33043946489E+03  0.33269684357E+03  0.00000000000E+00 0.  1.
<mgrwt>
<rscale>  2 0.18036182E+03</rscale>
<asrwt>0</asrwt>
<pdfrwt beam="1">  1       21 0.91299723E-01 0.18182979E+03</pdfrwt>
<pdfrwt beam="2">  1       21 0.87999116E-02 0.18182979E+03</pdfrwt>
<totfact> 0.10370418E+05</totfact>
</mgrwt>
</event>
<event>
12    1  0.1013215E-001  0.2102501E+03  0.7546771E-02  0.1141540E+00
         21   -1    0    0  501  502  0.00000000000E+00  0.00000000000E+00  0.62929080426E+03  0.62929080426E+03  0.00000000000E+00 0. -1.
         21   -1    0    0  502  503 -0.00000000000E+00 -0.00000000000E+00 -0.12745626901E+03  0.12745626901E+03  0.00000000000E+00 0. -1.
         -6    2    1    2    0  503 -0.94531059435E+02 -0.68060805913E+02 -0.29385293817E+01  0.21027065927E+03  0.17503348449E+03 0.  0.
        -24    2    3    3    0    0 -0.70093764726E+02 -0.99879407335E+02  0.39990259362E+02  0.15132512786E+03  0.80068980362E+02 0.  0.
          6    2    1    2  501    0  0.94531059435E+02  0.68060805913E+02  0.50477306463E+03  0.54647641401E+03  0.17398916574E+03 0.  0.
         24    2    5    5    0    0  0.11597738310E+03  0.14109893942E+02  0.42025204822E+03  0.44382877441E+03  0.81989965617E+02 0.  0.
          5    1    5    5  501    0 -0.21446323666E+02  0.53950911971E+02  0.84521016414E+02  0.10264763961E+03  0.47000000000E+01 0. -1.
        -11    1    6    6    0    0  0.54603100485E+02 -0.33777299296E+02  0.21166771134E+03  0.22119137540E+03  0.00000000000E+00 0.  1.
         12    1    6    6    0    0  0.61374282616E+02  0.47887193238E+02  0.20858433688E+03  0.22263739900E+03  0.00000000000E+00 0. -1.
         -5    1    3    3    0  503 -0.24437294709E+02  0.31818601421E+02 -0.42928788744E+02  0.58945531401E+02  0.47000000000E+01 0.  1.
         13    1    4    4    0    0  0.10471657738E+02 -0.25248840760E+02 -0.11961052304E+02  0.29836661136E+02  0.00000000000E+00 0. -1.
        -14    1    4    4    0    0 -0.80565422464E+02 -0.74630566575E+02  0.51951311667E+02  0.12148846673E+03  0.00000000000E+00 0.  1.
<mgrwt>
<rscale>  2 0.21003264E+03</rscale>
<asrwt>0</asrwt>
<pdfrwt beam="1">  1       21 0.96813968E-01 0.21025013E+03</pdfrwt>
<pdfrwt beam="2">  1       21 0.19608657E-01 0.21025013E+03</pdfrwt>
<totfact> 0.20998091E+04</totfact>
</mgrwt>
</event>
<event>
12    1  0.1013215E-001  0.2115926E+03  0.7546771E-02  0.1140370E+00
         21   -1    0    0  503  502  0.00000000000E+00  0.00000000000E+00  0.17363191622E+03  0.17363191622E+03  0.00000000000E+00 0. -1.
         21   -1    0    0  501  503 -0.00000000000E+00 -0.00000000000E+00 -0.25791287961E+03  0.25791287961E+03  0.00000000000E+00 0. -1.
          6    2    1    2  501    0  0.85940409326E+02 -0.86468569194E+02 -0.33403572635E+02  0.21421305286E+03  0.17294179928E+03 0.  0.
         24    2    3    3    0    0  0.97075676276E+02 -0.26375500241E+02  0.25070246794E+02  0.12949913037E+03  0.77602535746E+02 0.  0.
         -6    2    1    2    0  502 -0.85940409326E+02  0.86468569194E+02 -0.50877390754E+02  0.21733174296E+03  0.17257465108E+03 0.  0.
        -24    2    5    5    0    0  0.19682323195E+02  0.21044367309E+02 -0.11322158652E+02  0.86858779461E+02  0.81154156093E+02 0.  0.
          5    1    3    3  501    0 -0.11135266950E+02 -0.60093068953E+02 -0.58473819429E+02  0.84713922497E+02  0.47000000000E+01 0. -1.
        -11    1    4    4    0    0  0.46589597942E+02 -0.42649781624E+02 -0.12641112688E+02  0.64415776320E+02  0.00000000000E+00 0.  1.
         12    1    4    4    0    0  0.50486078334E+02  0.16274281382E+02  0.37711359482E+02  0.65083354047E+02  0.00000000000E+00 0. -1.
         -5    1    5    5    0  502 -0.10562273252E+03  0.65424201885E+02 -0.39555232102E+02  0.13047296350E+03  0.47000000000E+01 0.  1.
         11    1    6    6    0    0  0.16680863600E+02  0.51229791854E+02 -0.15915503764E+02  0.56178697421E+02  0.00000000000E+00 0. -1.
        -12    1    6    6    0    0  0.30014595949E+01 -0.30185424545E+02  0.45933451125E+01  0.30680082040E+02  0.00000000000E+00 0.  1.
<mgrwt>
<rscale>  2 0.21151758E+03</rscale>
<asrwt>0</asrwt>
<pdfrwt beam="1">  1       21 0.26712602E-01 0.21159261E+03</pdfrwt>
<pdfrwt beam="2">  1       21 0.39678905E-01 0.21159261E+03</pdfrwt>
<totfact> 0.81026742E+04</totfact>
</mgrwt>
</event>
<event>
12    1  0.1013215E-001  0.2013508E+03  0.7546771E-02  0.1148808E+00
         21   -1    0    0  503  502  0.00000000000E+00  0.00000000000E+00  0.87814617675E+02  0.87814617675E+02  0.00000000000E+00 0.  1.
         21   -1    0    0  501  503 -0.00000000000E+00 -0.00000000000E+00 -0.47359843871E+03  0.47359843871E+03  0.00000000000E+00 0.  1.
          6    2    1    2  501    0  0.89560302474E+02  0.48673488320E+02 -0.24186016370E+03  0.31470381754E+03  0.17364330608E+03 0.  0.
         24    2    3    3    0    0  0.73515196640E+02  0.95264680933E+02 -0.13425447112E+03  0.19625864151E+03  0.77545778610E+02 0.  0.
         -6    2    1    2    0  502 -0.89560302474E+02 -0.48673488320E+02 -0.14392365734E+03  0.24670923884E+03  0.17251455923E+03 0.  0.
        -24    2    5    5    0    0 -0.86869905910E+02 -0.15073460671E+02 -0.16749383380E+03  0.20531064816E+03  0.79527907801E+02 0.  0.
          5    1    3    3  501    0  0.16045105834E+02 -0.46591192613E+02 -0.10760569258E+03  0.11844517603E+03  0.47000000000E+01 0. -1.
        -13    1    4    4    0    0  0.85576726433E+02  0.58117218281E+02 -0.88825485199E+02  0.13634864865E+03  0.00000000000E+00 0.  1.
         14    1    4    4    0    0 -0.12061529793E+02  0.37147462653E+02 -0.45428985919E+02  0.59909992857E+02  0.00000000000E+00 0. -1.
         -5    1    5    5    0  502 -0.26903965638E+01 -0.33600027649E+02  0.23570176463E+02  0.41398590679E+02  0.47000000000E+01 0.  1.
         13    1    6    6    0    0  0.11246223615E+02 -0.17129919140E+02 -0.32323409003E+02  0.38271587960E+02  0.00000000000E+00 0. -1.
        -14    1    6    6    0    0 -0.98116129525E+02  0.20564584697E+01 -0.13517042480E+03  0.16703906020E+03  0.00000000000E+00 0.  1.
<mgrwt>
<rscale>  2 0.20110723E+03</rscale>
<asrwt>0</asrwt>
<pdfrwt beam="1">  1       21 0.13509942E-01 0.20135082E+03</pdfrwt>
<pdfrwt beam="2">  1       21 0.72861296E-01 0.20135082E+03</pdfrwt>
<totfact> 0.80109415E+04</totfact>
</mgrwt>
</event>
<event>
12    1  0.1013215E-001  0.1800442E+03  0.7546771E-02  0.1168710E+00
         21   -1    0    0  501  502  0.00000000000E+00  0.00000000000E+00  0.76606624502E+02  0.76606624502E+02  0.00000000000E+00 0. -1.
         21   -1    0    0  502  503 -0.00000000000E+00 -0.00000000000E+00 -0.41432558766E+03  0.41432558766E+03  0.00000000000E+00 0. -1.
         -6    2    1    2    0  503 -0.29517890454E+02  0.28802682304E+02 -0.17674574235E+03  0.25229933811E+03  0.17525694910E+03 0.  0.
        -24    2    3    3    0    0 -0.85893425176E+02  0.36533124629E+01 -0.11537246404E+03  0.16512445062E+03  0.81020068835E+02 0.  0.
          6    2    1    2  501    0  0.29517890454E+02 -0.28802682304E+02 -0.16097322082E+03  0.23863287406E+03  0.17126695652E+03 0.  0.
         24    2    5    5    0    0  0.27207659836E+02 -0.36435639291E+02 -0.13399923733E+02  0.90769534414E+02  0.77406316651E+02 0.  0.
          5    1    5    5  501    0  0.23102306179E+01  0.76329569870E+01 -0.14757329708E+03  0.14786333964E+03  0.47000000000E+01 0. -1.
        -11    1    6    6    0    0 -0.20072203884E+01  0.22210967493E+02 -0.11796989648E+02  0.25229446594E+02  0.00000000000E+00 0.  1.
         12    1    6    6    0    0  0.29214880225E+02 -0.58646606784E+02 -0.16029340849E+01  0.65540087821E+02  0.00000000000E+00 0. -1.
         -5    1    3    3    0  503  0.56375534722E+02  0.25149369842E+02 -0.61373278303E+02  0.87174887487E+02  0.47000000000E+01 0.  1.
         13    1    4    4    0    0 -0.49129445469E+02 -0.36596486182E+02 -0.77302882491E+02  0.98634379677E+02  0.00000000000E+00 0. -1.
        -14    1    4    4    0    0 -0.36763979707E+02  0.40249798645E+02 -0.38069581551E+02  0.66490070946E+02  0.00000000000E+00 0.  1.
<mgrwt>
<rscale>  2 0.17906583E+03</rscale>
<asrwt>0</asrwt>
<pdfrwt beam="1">  1       21 0.11785635E-01 0.18004416E+03</pdfrwt>
<pdfrwt beam="2">  1       21 0.63742398E-01 0.18004416E+03</pdfrwt>
<totfact> 0.13841006E+05</totfact>
</mgrwt>
</event>
<event>
12    1  0.1013215E-001  0.1924931E+03  0.7546771E-02  0.1156339E+00
         21   -1    0    0  503  502  0.00000000000E+00  0.00000000000E+00  0.52327804084E+02  0.52327804084E+02  0.00000000000E+00 0. -1.
         21   -1    0    0  501  503 -0.00000000000E+00 -0.00000000000E+00 -0.70935744828E+03  0.70935744828E+03  0.00000000000E+00 0. -1.
          6    2    1    2  501    0 -0.81141572618E+02 -0.20943472325E+02 -0.35300540862E+03  0.40184594001E+03  0.17275635197E+03 0.  0.
         24    2    3    3    0    0  0.18471556272E+02 -0.22054421737E+02 -0.54999015649E+02  0.87594591710E+02  0.61808776602E+02 0.  0.
         -6    2    1    2    0  502  0.81141572618E+02  0.20943472325E+02 -0.30402423557E+03  0.35983931235E+03  0.17329457885E+03 0.  0.
        -24    2    5    5    0    0  0.55234970500E+02  0.37963392900E+02 -0.31219768047E+03  0.32743985354E+03  0.72507550135E+02 0.  0.
          5    1    3    3  501    0 -0.99613128890E+02  0.11109494122E+01 -0.29800639297E+03  0.31425134830E+03  0.47000000000E+01 0. -1.
        -13    1    4    4    0    0  0.27366199721E+02 -0.39284168674E+02 -0.45312802079E+02  0.65919684676E+02  0.00000000000E+00 0.  1.
         14    1    4    4    0    0 -0.88946434487E+01  0.17229746937E+02 -0.96862135704E+01  0.21674907034E+02  0.00000000000E+00 0. -1.
         -5    1    5    5    0  502  0.25906602119E+02 -0.17019920576E+02  0.81734449031E+01  0.32399458812E+02  0.47000000000E+01 0.  1.
         13    1    6    6    0    0  0.68319284453E+02  0.13616404127E+02 -0.19638944685E+03  0.20837885191E+03  0.00000000000E+00 0. -1.
        -14    1    6    6    0    0 -0.13084313953E+02  0.24346988774E+02 -0.11580823362E+03  0.11906100163E+03  0.00000000000E+00 0.  1.
<mgrwt>
<rscale>  2 0.19237189E+03</rscale>
<asrwt>0</asrwt>
<pdfrwt beam="1">  1       21 0.80504319E-02 0.19249310E+03</pdfrwt>
<pdfrwt beam="2">  1       21 0.10913191E+00 0.19249310E+03</pdfrwt>
<totfact> 0.79030552E+04</totfact>
</mgrwt>
</event>
<event>
12    1  0.1013215E-001  0.1906490E+03  0.7546771E-02  0.1159447E+00
         21   -1    0    0  501  502  0.00000000000E+00  0.00000000000E+00  0.36680575688E+03  0.36680575688E+03  0.00000000000E+00 0. -1.
         21   -1    0    0  502  503 -0.00000000000E+00 -0.00000000000E+00 -0.17731936682E+03  0.17731936682E+03  0.00000000000E+00 0. -1.
         -6    2    1    2    0  503 -0.32061129334E+02  0.54706777003E+02 -0.89044790045E+02  0.21041867073E+03  0.17979514702E+03 0.  0.
        -24    2    3    3    0    0 -0.16581446463E+02  0.21738277771E+02  0.27181672161E+02  0.88528461765E+02  0.79692836277E+02 0.  0.
          6    2    1    2  501    0  0.32061129334E+02 -0.54706777003E+02  0.27853118011E+03  0.33370645298E+03  0.17250979972E+03 0.  0.
         24    2    5    5    0    0  0.77005164573E+02 -0.32881851103E+02  0.24992749344E+03  0.27594353593E+03  0.81670505959E+02 0.  0.
          5    1    5    5  501    0 -0.44944035240E+02 -0.21824925900E+02  0.28603686677E+02  0.57762917046E+02  0.47000000000E+01 0. -1.
        -13    1    6    6    0    0  0.21282391811E+02  0.13171071684E+02  0.12939960432E+02  0.28175519631E+02  0.00000000000E+00 0.  1.
         14    1    6    6    0    0  0.55722772762E+02 -0.46052922787E+02  0.23698753300E+03  0.24776801630E+03  0.00000000000E+00 0. -1.
         -5    1    3    3    0  503 -0.15479682870E+02  0.32968499232E+02 -0.11622646221E+03  0.12189020896E+03  0.47000000000E+01 0.  1.
         13    1    4    4    0    0  0.15244308264E+02  0.18128681489E+02 -0.20339545619E+02  0.31220748597E+02  0.00000000000E+00 0. -1.
        -14    1    4    4    0    0 -0.31825754727E+02  0.36095962817E+01  0.47521217780E+02  0.57307713168E+02  0.00000000000E+00 0.  1.
<mgrwt>
<rscale>  2 0.18891175E+03</rscale>
<asrwt>0</asrwt>
<pdfrwt beam="1">  1       21 0.56431655E-01 0.19064900E+03</pdfrwt>
<pdfrwt beam="2">  1       21 0.27279903E-01 0.19064900E+03</pdfrwt>
<totfact> 0.37884461E+04</totfact>
</mgrwt>
</event>
<event>
12    1  0.1013215E-001  0.1830548E+03  0.7546771E-02  0.1165058E+00
         21   -1    0    0  503  502  0.00000000000E+00  0.00000000000E+00  0.12951922562E+03  0.12951922562E+03  0.00000000000E+00 0. -1.
         21   -1    0    0  501  503 -0.00000000000E+00 -0.00000000000E+00 -0.27118400895E+03  0.27118400895E+03  0.00000000000E+00 0. -1.
          6    2    1    2  501    0 -0.54596104814E+02 -0.26528350134E+02 -0.11544341120E+03  0.21577992673E+03  0.17189912033E+03 0.  0.
         24    2    3    3    0    0 -0.75985525973E+01 -0.13625103758E+02  0.92954771258E+01  0.81775658363E+02  0.79733750393E+02 0.  0.
         -6    2    1    2    0  502  0.54596104814E+02  0.26528350134E+02 -0.26221372132E+02  0.18492330784E+03  0.17269794846E+03 0.  0.
        -24    2    5    5    0    0  0.10150977892E+03  0.36013358965E+02 -0.15863430537E+02  0.13572742219E+03  0.81049907245E+02 0.  0.
          5    1    3    3  501    0 -0.46997552216E+02 -0.12903246375E+02 -0.12473888832E+03  0.13400426837E+03  0.47000000000E+01 0. -1.
        -13    1    4    4    0    0  0.13347869739E+02  0.12727117300E+02 -0.26726794508E+02  0.32472552811E+02  0.00000000000E+00 0.  1.
         14    1    4    4    0    0 -0.20946422337E+02 -0.26352221058E+02  0.36022271634E+02  0.49303105552E+02  0.00000000000E+00 0. -1.
         -5    1    5    5    0  502 -0.46913674108E+02 -0.94850088310E+01 -0.10357941595E+02  0.49195885650E+02  0.47000000000E+01 0.  1.
         11    1    6    6    0    0  0.27055633336E+02 -0.23657500770E+02  0.91533643537E+01  0.37087312075E+02  0.00000000000E+00 0. -1.
        -12    1    6    6    0    0  0.74454145585E+02  0.59670859735E+02 -0.25016794891E+02  0.98640110112E+02  0.00000000000E+00 0.  1.
<mgrwt>
<rscale>  2 0.18286617E+03</rscale>
<asrwt>0</asrwt>
<pdfrwt beam="1">  1       21 0.19926035E-01 0.18305483E+03</pdfrwt>
<pdfrwt beam="2">  1       21 0.41720617E-01 0.18305483E+03</pdfrwt>
<totfact> 0.12897575E+05</totfact>
</mgrwt>
</event>
<event>
12    1  0.1013215E-001  0.2418800E+03  0.7546771E-02  0.1118635E+00
         21   -1    0    0  501  502  0.00000000000E+00  0.00000000000E+00  0.58978473059E+03  0.58978473059E+03  0.00000000000E+00 0.  1.
         21   -1    0    0  502  503 -0.00000000000E+00 -0.00000000000E+00 -0.15630311906E+03  0.15630311906E+03  0.00000000000E+00 0.  1.
         -6    2    1    2    0  503  0.33937947853E+02  0.16606567019E+03 -0.93279881929E+01  0.24152239735E+03  0.17180356788E+03 0.  0.
        -24    2    3    3    0    0  0.37803843384E+02  0.71259895431E+02 -0.65501553842E+02  0.13115646259E+03  0.80027875469E+02 0.  0.
          6    2    1    2  501    0 -0.33937947853E+02 -0.16606567019E+03  0.44280959973E+03  0.50456545230E+03  0.17255828849E+03 0.  0.
         24    2    5    5    0    0  0.96794031170E+01 -0.15387149339E+03  0.41803757841E+03  0.45272999828E+03  0.80242800667E+02 0.  0.
          5    1    5    5  501    0 -0.43617350970E+02 -0.12194176802E+02  0.24772021317E+02  0.51835454022E+02  0.47000000000E+01 0. -1.
        -11    1    6    6    0    0 -0.32531278070E+02 -0.39038294900E+02  0.10554782055E+03  0.11714356553E+03  0.00000000000E+00 0.  1.
         12    1    6    6    0    0  0.42210681187E+02 -0.11483319849E+03  0.31248975786E+03  0.33558643275E+03  0.00000000000E+00 0. -1.
         -5    1    3    3    0  503 -0.38658955311E+01  0.94805774764E+02  0.56173565650E+02  0.11036593476E+03  0.47000000000E+01 0.  1.
         11    1    4    4    0    0 -0.13952927147E+02  0.18040741960E+01  0.91704747717E+01  0.16793941384E+02  0.00000000000E+00 0. -1.
        -12    1    4    4    0    0  0.51756770531E+02  0.69455821235E+02 -0.74672028614E+02  0.11436252121E+03  0.00000000000E+00 0.  1.
<mgrwt>
<rscale>  2 0.24174547E+03</rscale>
<asrwt>0</asrwt>
<pdfrwt beam="1">  1       21 0.90736111E-01 0.24188004E+03</pdfrwt>
<pdfrwt beam="2">  1       21 0.24046634E-01 0.24188004E+03</pdfrwt>
<totfact> 0.16334508E+04</totfact>
</mgrwt>
</event>
<event>
12    1  0.1013215E-001  0.2482319E+03  0.7546771E-02  0.1114526E+00
         21   -1    0    0  503  502  0.00000000000E+00  0.00000000000E+00  0.71827183110E+02  0.71827183110E+02  0.00000000000E+00 0.  1.
         21   -1    0    0  501  503 -0.00000000000E+00 -0.00000000000E+00 -0.13483984245E+04  0.13483984245E+04  0.00000000000E+00 0. -1.
          6    2    1    2  501    0  0.86378164994E+02  0.15567958376E+03 -0.10670072567E+04  0.10953623804E+04  0.17209572425E+03 0.  0.
         24    2    3    3    0    0  0.16857236483E+02  0.11385131245E+02 -0.30242058049E+03  0.31416527083E+03  0.82630637508E+02 0.  0.
         -6    2    1    2    0  502 -0.86378164994E+02 -0.15567958376E+03 -0.20956398465E+03  0.32486322720E+03  0.17297899449E+03 0.  0.
        -24    2    5    5    0    0 -0.83704036908E+02 -0.24830720569E+02 -0.10802654574E+03  0.15915107478E+03  0.77694269672E+02 0.  0.
          5    1    3    3  501    0  0.69520928511E+02  0.14429445251E+03 -0.76458667623E+03  0.78119710957E+03  0.47000000000E+01 0. -1.
        -11    1    4    4    0    0  0.38049868024E+02 -0.22179588730E+02 -0.13087627982E+03  0.13808811402E+03  0.00000000000E+00 0.  1.
         12    1    4    4    0    0 -0.21192631541E+02  0.33564719975E+02 -0.17154430067E+03  0.17607715681E+03  0.00000000000E+00 0. -1.
         -5    1    5    5    0  502 -0.26741280862E+01 -0.13084886319E+03 -0.10153743891E+03  0.16571215242E+03  0.47000000000E+01 0.  1.
         13    1    6    6    0    0 -0.76118155169E+02  0.45883526104E+01 -0.43405175404E+02  0.87744149536E+02  0.00000000000E+00 0. -1.
        -14    1    6    6    0    0 -0.75858817392E+01 -0.29419073180E+02 -0.64621370334E+02  0.71406925241E+02  0.00000000000E+00 0.  1.
<mgrwt>
<rscale>  2 0.24807804E+03</rscale>
<asrwt>0</asrwt>
<pdfrwt beam="1">  1       21 0.11050336E-01 0.24823185E+03</pdfrwt>
<pdfrwt beam="2">  1       21 0.20744590E+00 0.24823185E+03</pdfrwt>
<totfact> 0.78300127E+03</totfact>
</mgrwt>
</event>
<event>
12    1  0.1013215E-001  0.2724449E+03  0.7546771E-02  0.1099927E+00
         21   -1    0    0  503  502  0.00000000000E+00  0.00000000000E+00  0.56870302856E+03  0.56870302856E+03  0.00000000000E+00 0.  1.
         21   -1    0    0  501  503 -0.00000000000E+00 -0.00000000000E+00 -0.14279712893E+03  0.14279712893E+03  0.00000000000E+00 0. -1.
          6    2    1    2  501    0 -0.10119317790E+03 -0.18462697364E+03  0.10798961626E+03  0.29281533944E+03  0.17248735358E+03 0.  0.
         24    2    3    3    0    0 -0.94338940446E+02 -0.20382140551E+03  0.12162781467E+03  0.26784541269E+03  0.80652580684E+02 0.  0.
         -6    2    1    2    0  502  0.10119317790E+03  0.18462697364E+03  0.31791628337E+03  0.41868481804E+03  0.17291337420E+03 0.  0.
        -24    2    5    5    0    0  0.24849853530E+02  0.78916801664E+02  0.24135828837E+03  0.26740309332E+03  0.80032581801E+02 0.  0.
          5    1    3    3  501    0 -0.68542374539E+01  0.19194431873E+02 -0.13638198410E+02  0.24969926749E+02  0.47000000000E+01 0. -1.
        -11    1    4    4    0    0 -0.29346292117E+02 -0.94473828595E+02  0.96469719417E+02  0.13817711791E+03  0.00000000000E+00 0.  1.
         12    1    4    4    0    0 -0.64992648329E+02 -0.10934757692E+03  0.25158095248E+02  0.12966829478E+03  0.00000000000E+00 0. -1.
         -5    1    5    5    0  502  0.76343324370E+02  0.10571017198E+03  0.76557995007E+02  0.15128172472E+03  0.47000000000E+01 0.  1.
         11    1    6    6    0    0  0.79559520898E+01  0.36331261816E+02  0.21788300690E+02  0.43104382675E+02  0.00000000000E+00 0. -1.
        -12    1    6    6    0    0  0.16893901440E+02  0.42585539848E+02  0.21956998768E+03  0.22429871065E+03  0.00000000000E+00 0.  1.
<mgrwt>
<rscale>  2 0.27237731E+03</rscale>
<asrwt>0</asrwt>
<pdfrwt beam="1">  1       21 0.87492772E-01 0.27244488E+03</pdfrwt>
<pdfrwt beam="2">  1       21 0.21968789E-01 0.27244488E+03</pdfrwt>
<totfact> 0.20810092E+04</totfact>
</mgrwt>
</event>
<event>
12    1  0.1013215E-001  0.2153542E+03  0.7546771E-02  0.1138034E+00
         21   -1    0    0  503  502  0.00000000000E+00  0.00000000000E+00  0.25707730760E+04  0.25707730760E+04  0.00000000000E+00 0. -1.
         21   -1    0    0  501  503 -0.00000000000E+00 -0.00000000000E+00 -0.17914761992E+02  0.17914761992E+02  0.00000000000E+00 0. -1.
          6    2    1    2  501    0  0.11438150662E+03  0.42452281529E+02  0.11479263406E+04  0.11673464657E+04  0.17342883906E+03 0.  0.
         24    2    3    3    0    0  0.46762856336E+02  0.88097801109E+02  0.78120034788E+03  0.79162603895E+03  0.80310738502E+02 0.  0.
         -6    2    1    2    0  502 -0.11438150662E+03 -0.42452281529E+02  0.14049319734E+04  0.14213413723E+04  0.17746019693E+03 0.  0.
        -24    2    5    5    0    0 -0.13858144125E+03 -0.26699984703E+02  0.83300697973E+03  0.84866863847E+03  0.80125680112E+02 0.  0.
          5    1    3    3  501    0  0.67618650285E+02 -0.45645519580E+02  0.36672599274E+03  0.37572042675E+03  0.47000000000E+01 0. -1.
        -11    1    4    4    0    0  0.14371099061E+02  0.70844474519E+02  0.68260172316E+03  0.68641866271E+03  0.00000000000E+00 0.  1.
         12    1    4    4    0    0  0.32391757274E+02  0.17253326590E+02  0.98598624722E+02  0.10520737624E+03  0.00000000000E+00 0. -1.
         -5    1    5    5    0  502  0.24199934626E+02 -0.15752296826E+02  0.57192499368E+03  0.57267273385E+03  0.47000000000E+01 0.  1.
         11    1    6    6    0    0 -0.81390258148E+02 -0.13456596943E+02  0.67654827101E+03  0.68155925431E+03  0.00000000000E+00 0. -1.
        -12    1    6    6    0    0 -0.57191183099E+02 -0.13243387759E+02  0.15645870871E+03  0.16710938416E+03  0.00000000000E+00 0.  1.
<mgrwt>
<rscale>  2 0.21452200E+03</rscale>
<asrwt>0</asrwt>
<pdfrwt beam="1">  1       21 0.39550326E+00 0.21535424E+03</pdfrwt>
<pdfrwt beam="2">  1       21 0.27561193E-02 0.21535424E+03</pdfrwt>
<totfact> 0.65724040E+03</totfact>
</mgrwt>
</event>
<event>
12    1  0.1013215E-001  0.2084556E+03  0.7546771E-02  0.1142959E+00
         21   -1    0    0  503  502  0.00000000000E+00  0.00000000000E+00  0.24115259433E+03  0.24115259433E+03  0.00000000000E+00 0.  1.
         21   -1    0    0  501  503 -0.00000000000E+00 -0.00000000000E+00 -0.23730211416E+03  0.23730211416E+03  0.00000000000E+00 0.  1.
          6    2    1    2  501    0 -0.51491406758E+02  0.10448031129E+03  0.12001413973E+03  0.24053512495E+03  0.17287640724E+03 0.  0.
         24    2    3    3    0    0 -0.23345762760E+01  0.84806653081E+02  0.85359770644E+01  0.11703242230E+03  0.80162998391E+02 0.  0.
         -6    2    1    2    0  502  0.51491406758E+02 -0.10448031129E+03 -0.11616365956E+03  0.23791958355E+03  0.17188435652E+03 0.  0.
        -24    2    5    5    0    0  0.22808044202E+02  0.12536665042E+02 -0.35449437851E+02  0.92824498781E+02  0.81745642571E+02 0.  0.
          5    1    3    3  501    0 -0.49156830482E+02  0.19673658206E+02  0.11147816267E+03  0.12350270265E+03  0.47000000000E+01 0. -1.
        -13    1    4    4    0    0  0.12113357819E+02  0.62976676341E+02 -0.29715384016E+02  0.70680968073E+02  0.00000000000E+00 0.  1.
         14    1    4    4    0    0 -0.14447934096E+02  0.21829976740E+02  0.38251361080E+02  0.46351454223E+02  0.00000000000E+00 0. -1.
         -5    1    5    5    0  502  0.28683362556E+02 -0.11701697633E+03 -0.80714221713E+02  0.14509508477E+03  0.47000000000E+01 0.  1.
         13    1    6    6    0    0  0.33041763389E+02  0.26482486179E+02  0.10584761323E+02  0.43647650273E+02  0.00000000000E+00 0. -1.
        -14    1    6    6    0    0 -0.10233719187E+02 -0.13945821137E+02 -0.46034199174E+02  0.49176848508E+02  0.00000000000E+00 0.  1.
<mgrwt>
<rscale>  2 0.20824984E+03</rscale>
<asrwt>0</asrwt>
<pdfrwt beam="1">  1       21 0.37100399E-01 0.20845564E+03</pdfrwt>
<pdfrwt beam="2">  1       21 0.36508017E-01 0.20845564E+03</pdfrwt>
<totfact> 0.50313939E+04</totfact>
</mgrwt>
</event>
<event>
12    1  0.1013215E-001  0.2087784E+03  0.7546771E-02  0.1144217E+00
         21   -1    0    0  503  502  0.00000000000E+00  0.00000000000E+00  0.99934337535E+02  0.99934337535E+02  0.00000000000E+00 0.  1.
         21   -1    0    0  501  503 -0.00000000000E+00 -0.00000000000E+00 -0.63755778677E+03  0.63755778677E+03  0.00000000000E+00 0.  1.
          6    2    1    2  501    0 -0.95488425354E+02  0.54942733134E+02 -0.48106237026E+03  0.52118777343E+03  0.16756774090E+03 0.  0.
         24    2    3    3    0    0 -0.41681866895E+01  0.71593675631E+02 -0.15261530987E+03  0.17984307762E+03  0.62522568657E+02 0.  0.
         -6    2    1    2    0  502  0.95488425354E+02 -0.54942733134E+02 -0.56561078975E+02  0.21630435088E+03  0.17734619605E+03 0.  0.
        -24    2    5    5    0    0  0.22290299115E+02  0.55626474526E+01 -0.80765470322E+02  0.11818804578E+03  0.83171825086E+02 0.  0.
          5    1    3    3  501    0 -0.91320238665E+02 -0.16650942496E+02 -0.32844706039E+03  0.34134469581E+03  0.47000000000E+01 0. -1.
        -13    1    4    4    0    0  0.23686350510E+02  0.19589875117E+02 -0.83478160261E+02  0.88957347353E+02  0.00000000000E+00 0.  1.
         14    1    4    4    0    0 -0.27854537199E+02  0.52003800514E+02 -0.69137149605E+02  0.90885730266E+02  0.00000000000E+00 0. -1.
         -5    1    5    5    0  502  0.73198126239E+02 -0.60505380587E+02  0.24204391347E+02  0.98116305094E+02  0.47000000000E+01 0.  1.
         11    1    6    6    0    0  0.17199503595E+02 -0.35624156337E+02 -0.59779883680E+02  0.71683595972E+02  0.00000000000E+00 0. -1.
        -12    1    6    6    0    0  0.50907955205E+01  0.41186803790E+02 -0.20985586642E+02  0.46504449810E+02  0.00000000000E+00 0.  1.
<mgrwt>
<rscale>  2 0.20668721E+03</rscale>
<asrwt>0</asrwt>
<pdfrwt beam="1">  1       21 0.15374513E-01 0.20877839E+03</pdfrwt>
<pdfrwt beam="2">  1       21 0.98085815E-01 0.20877839E+03</pdfrwt>
<totfact> 0.31938769E+04</totfact>
</mgrwt>
</event>
<event>
12    1  0.1013215E-001  0.1736727E+03  0.7546771E-02  0.1174198E+00
         21   -1    0    0  503  502  0.00000000000E+00  0.00000000000E+00  0.13136361598E+03  0.13136361598E+03  0.00000000000E+00 0.  1.
         21   -1    0    0  501  503 -0.00000000000E+00 -0.00000000000E+00 -0.36882871389E+03  0.36882871389E+03  0.00000000000E+00 0.  1.
          6    2    1    2  501    0 -0.15397618771E+01  0.16148330817E+02 -0.27285867468E+03  0.32344095621E+03  0.17291343600E+03 0.  0.
         24    2    3    3    0    0  0.16694259129E+01 -0.50935151543E+02 -0.10126699660E+03  0.13911438059E+03  0.80626482258E+02 0.  0.
         -6    2    1    2    0  502  0.15397618771E+01 -0.16148330817E+02  0.35393576774E+02  0.17675137366E+03  0.17240998625E+03 0.  0.
        -24    2    5    5    0    0  0.39448442387E+02  0.43097731903E+02  0.38226995601E+02  0.10620151704E+03  0.80024152153E+02 0.  0.
          5    1    3    3  501    0 -0.32091877900E+01  0.67083482360E+02 -0.17159167808E+03  0.18432657562E+03  0.47000000000E+01 0. -1.
        -11    1    4    4    0    0 -0.55368017164E+01  0.12269696445E+02  0.57339848113E+01  0.14631479963E+02  0.00000000000E+00 0.  1.
         12    1    4    4    0    0  0.72062276293E+01 -0.63204847988E+02 -0.10700098141E+03  0.12448290063E+03  0.00000000000E+00 0. -1.
         -5    1    5    5    0  502 -0.37908680510E+02 -0.59246062720E+02 -0.28334188272E+01  0.70549856613E+02  0.47000000000E+01 0.  1.
         13    1    6    6    0    0  0.43274796224E+02  0.92536752587E+01 -0.11690507882E+02  0.45771240627E+02  0.00000000000E+00 0. -1.
        -14    1    6    6    0    0 -0.38263538370E+01  0.33844056644E+02  0.49917503483E+02  0.60430276416E+02  0.00000000000E+00 0.  1.
<mgrwt>
<rscale>  2 0.17354722E+03</rscale>
<asrwt>0</asrwt>
<pdfrwt beam="1">  1       21 0.20209787E-01 0.17367267E+03</pdfrwt>
<pdfrwt beam="2">  1       21 0.56742879E-01 0.17367267E+03</pdfrwt>
<totfact> 0.66644491E+04</totfact>
</mgrwt>
</event>
<event>
12    1  0.1013215E-001  0.1944618E+03  0.7546771E-02  0.1155038E+00
         21   -1    0    0  501  502  0.00000000000E+00  0.00000000000E+00  0.29799207489E+03  0.29799207489E+03  0.00000000000E+00 0.  1.
         21   -1    0    0  502  503 -0.00000000000E+00 -0.00000000000E+00 -0.17798273366E+03  0.17798273366E+03  0.00000000000E+00 0. -1.
         -6    2    1    2    0  503  0.55491646908E+02  0.62274604870E+02 -0.69199078276E+02  0.20640712785E+03  0.17566428408E+03 0.  0.
        -24    2    3    3    0    0  0.27728564995E+02  0.60134723137E+02 -0.11303450493E+03  0.15426307314E+03  0.81456971374E+02 0.  0.
          6    2    1    2  501    0 -0.55491646908E+02 -0.62274604870E+02  0.18920841951E+03  0.26956768071E+03  0.17294351442E+03 0.  0.
         24    2    5    5    0    0 -0.50810903734E+02 -0.78313318119E+01  0.19175999779E+03  0.21466249070E+03  0.81639515344E+02 0.  0.
          5    1    5    5  501    0 -0.46807431738E+01 -0.54443273058E+02 -0.25515782757E+01  0.54905190006E+02  0.47000000000E+01 0. -1.
        -11    1    6    6    0    0 -0.35683039216E+02 -0.38592238024E+02  0.66317929521E+02  0.84620966074E+02  0.00000000000E+00 0.  1.
         12    1    6    6    0    0 -0.15127864518E+02  0.30760906212E+02  0.12544206827E+03  0.13004152463E+03  0.00000000000E+00 0. -1.
         -5    1    3    3    0  503  0.27763081913E+02  0.21398817331E+01  0.43835426656E+02  0.52144054707E+02  0.47000000000E+01 0.  1.
         13    1    4    4    0    0  0.40672261005E+02 -0.25048463401E+01 -0.49396343802E+02  0.64035192289E+02  0.00000000000E+00 0. -1.
        -14    1    4    4    0    0 -0.12943696010E+02  0.62639569477E+02 -0.63638161130E+02  0.90227880850E+02  0.00000000000E+00 0.  1.
<mgrwt>
<rscale>  2 0.19384531E+03</rscale>
<asrwt>0</asrwt>
<pdfrwt beam="1">  1       21 0.45844935E-01 0.19446180E+03</pdfrwt>
<pdfrwt beam="2">  1       21 0.27381959E-01 0.19446180E+03</pdfrwt>
<totfact> 0.57968574E+04</totfact>
</mgrwt>
</event>
<event>
12    1  0.1013215E-001  0.2491623E+03  0.7546771E-02  0.1113916E+00
         21   -1    0    0  501  502  0.00000000000E+00  0.00000000000E+00  0.10556266940E+03  0.10556266940E+03  0.00000000000E+00 0. -1.
         21   -1    0    0  502  503 -0.00000000000E+00 -0.00000000000E+00 -0.85537235801E+03  0.85537235801E+03  0.00000000000E+00 0.  1.
         -6    2    1    2    0  503 -0.11778057678E+03 -0.13520324929E+03 -0.64433616137E+03  0.69083352112E+03  0.17300197159E+03 0.  0.
        -24    2    3    3    0    0 -0.11522672787E+03 -0.17095101966E+03 -0.56116824595E+03  0.60015046104E+03  0.52624383028E+02 0.  0.
          6    2    1    2  501    0  0.11778057678E+03  0.13520324929E+03 -0.10547352723E+03  0.27010150629E+03  0.17227296905E+03 0.  0.
         24    2    5    5    0    0  0.43865940517E+02  0.31662559849E+02 -0.10492141849E+03  0.14279697908E+03  0.80347587038E+02 0.  0.
          5    1    5    5  501    0  0.73914636259E+02  0.10354068944E+03 -0.55210874266E+00  0.12730452721E+03  0.47000000000E+01 0. -1.
        -11    1    6    6    0    0  0.57707875852E+02  0.54867323518E+01 -0.95513597429E+02  0.11172802004E+03  0.00000000000E+00 0.  1.
         12    1    6    6    0    0 -0.13841935334E+02  0.26175827498E+02 -0.94078210598E+01  0.31068959044E+02  0.00000000000E+00 0. -1.
         -5    1    3    3    0  503 -0.25538489041E+01  0.35747770366E+02 -0.83167915421E+02  0.90683060082E+02  0.47000000000E+01 0.  1.
         11    1    4    4    0    0 -0.68089285481E-01  0.34569471121E+01 -0.57174470420E+01  0.66816405295E+01  0.00000000000E+00 0. -1.
        -12    1    4    4    0    0 -0.11515863859E+03 -0.17440796677E+03 -0.55545079891E+03  0.59346882051E+03  0.00000000000E+00 0.  1.
<mgrwt>
<rscale>  2 0.24903583E+03</rscale>
<asrwt>0</asrwt>
<pdfrwt beam="1">  1       21 0.16240410E-01 0.24916233E+03</pdfrwt>
<pdfrwt beam="2">  1       21 0.13159575E+00 0.24916233E+03</pdfrwt>
<totfact> 0.13722523E+04</totfact>
</mgrwt>
</event>
<event>
12    1  0.1013215E-001  0.2330052E+03  0.7546771E-02  0.1124665E+00
         21   -1    0    0  503  502  0.00000000000E+00  0.00000000000E+00  0.69596360163E+02  0.69596360163E+02  0.00000000000E+00 0.  1.
         21   -1    0    0  501  503 -0.00000000000E+00 -0.00000000000E+00 -0.82399209241E+03  0.82399209241E+03  0.00000000000E+00 0. -1.
          6    2    1    2  501    0 -0.22493799547E+02  0.15361279202E+03 -0.27186087328E+03  0.35804994543E+03  0.17374857730E+03 0.  0.
         24    2    3    3    0    0 -0.78350656354E+02  0.12379238043E+03 -0.17553669789E+03  0.24268234961E+03  0.81352392129E+02 0.  0.
         -6    2    1    2    0  502  0.22493799547E+02 -0.15361279202E+03 -0.48253485897E+03  0.53553850714E+03  0.17279682180E+03 0.  0.
        -24    2    5    5    0    0 -0.47688852326E+02 -0.12097500268E+03 -0.35503321079E+03  0.38630851617E+03  0.79224434319E+02 0.  0.
          5    1    3    3  501    0  0.55856856807E+02  0.29820411587E+02 -0.96324175392E+02  0.11536759582E+03  0.47000000000E+01 0. -1.
        -11    1    4    4    0    0 -0.76821159238E+02  0.46022951188E+02 -0.87461673837E+02  0.12517646318E+03  0.00000000000E+00 0.  1.
         12    1    4    4    0    0 -0.15294971158E+01  0.77769429243E+02 -0.88075024050E+02  0.11750588644E+03  0.00000000000E+00 0. -1.
         -5    1    5    5    0  502  0.70182651874E+02 -0.32637789333E+02 -0.12750164818E+03  0.14922999097E+03  0.47000000000E+01 0.  1.
         11    1    6    6    0    0 -0.26814986398E+02 -0.91465566451E+02 -0.14726409560E+03  0.17541866261E+03  0.00000000000E+00 0. -1.
        -12    1    6    6    0    0 -0.20873865928E+02 -0.29509436234E+02 -0.20776911519E+03  0.21088985356E+03  0.00000000000E+00 0.  1.
<mgrwt>
<rscale>  2 0.23282780E+03</rscale>
<asrwt>0</asrwt>
<pdfrwt beam="1">  1       21 0.10707133E-01 0.23300521E+03</pdfrwt>
<pdfrwt beam="2">  1       21 0.12676801E+00 0.23300521E+03</pdfrwt>
<totfact> 0.32375242E+04</totfact>
</mgrwt>
</event>
<event>
11    1  0.1013215E-001  0.1975597E+03  0.7546771E-02  0.1151941E+00
         21   -1    0    0  501  502  0.00000000000E+00  0.00000000000E+00  0.79427900255E+03  0.79427900255E+03  0.00000000000E+00 0. -1.
         21   -1    0    0  502  503 -0.00000000000E+00 -0.00000000000E+00 -0.52884765653E+02  0.52884765653E+02  0.00000000000E+00 0. -1.
         -6    2    1    2    0  503  0.52822384373E+02 -0.79217776878E+02  0.25629424490E+03  0.32359938723E+03  0.17310159730E+03 0.  0.
        -24    2    3    3    0    0  0.83869560801E+02 -0.93798055654E+01  0.12056446091E+03  0.16775993888E+03  0.80532750345E+02 0.  0.
          6    2    1    2  501    0 -0.52822384373E+02  0.79217776878E+02  0.48509999200E+03  0.52356438097E+03  0.17242969093E+03 0.  0.
          5    1    5    5  501    0  0.45772240661E+02 -0.22832049441E+02  0.14870508562E+03  0.15732670779E+03  0.47000000000E+01 0. -1.
        -13    1    5    5    0    0 -0.12727927087E+02  0.19360061276E+02  0.33525589964E+02  0.40752635289E+02  0.00000000000E+00 0.  1.
         14    1    5    5    0    0 -0.85866697947E+02  0.82689765043E+02  0.30286931642E+03  0.32548503789E+03  0.00000000000E+00 0. -1.
         -5    1    3    3    0  503 -0.31047176428E+02 -0.69837971313E+02  0.13572978399E+03  0.15583944835E+03  0.47000000000E+01 0.  1.
         11    1    4    4    0    0  0.39892486997E+02 -0.37183881259E+02  0.27351988231E+02  0.61009694348E+02  0.00000000000E+00 0. -1.
        -12    1    4    4    0    0  0.43977073804E+02  0.27804075693E+02  0.93212472675E+02  0.10675024453E+03  0.00000000000E+00 0.  1.
<mgrwt>
<rscale>  2 0.19741239E+03</rscale>
<asrwt>0</asrwt>
<pdfrwt beam="1">  1       21 0.12219676E+00 0.19755967E+03</pdfrwt>
<pdfrwt beam="2">  1       21 0.81361184E-02 0.19755967E+03</pdfrwt>
<totfact> 0.58676656E+04</totfact>
</mgrwt>
</event>
<event>
11    1  0.1013215E-001  0.1745374E+03  0.7546771E-02  0.1173738E+00
         21   -1    0    0  503  502  0.00000000000E+00  0.00000000000E+00  0.84242827503E+02  0.84242827503E+02  0.00000000000E+00 0. -1.
         21   -1    0    0  501  503 -0.00000000000E+00 -0.00000000000E+00 -0.37036443662E+03  0.37036443662E+03  0.00000000000E+00 0. -1.
          6    2    1    2  501    0  0.56039226183E+01  0.20783515528E+01 -0.99376089967E+02  0.19899588816E+03  0.17230215539E+03 0.  0.
         -6    2    1    2    0  502 -0.56039226183E+01 -0.20783515528E+01 -0.18674551915E+03  0.25561137596E+03  0.17443498246E+03 0.  0.
        -24    2    4    4    0    0 -0.65858817278E+02 -0.69382480477E+01 -0.15542101650E+03  0.18736487136E+03  0.81020858736E+02 0.  0.
          5    1    3    3  501    0  0.82141301196E+02  0.16337804061E+02 -0.53716749037E+02  0.99607712206E+02  0.47000000000E+01 0. -1.
        -13    1    3    3    0    0 -0.47862843104E+02 -0.95815278333E-01 -0.47396231916E+02  0.67359214146E+02  0.00000000000E+00 0.  1.
         14    1    3    3    0    0 -0.28674535474E+02 -0.14163637230E+02  0.17368909862E+01  0.32028961808E+02  0.00000000000E+00 0. -1.
         -5    1    4    4    0  502  0.60254894660E+02  0.48598964950E+01 -0.31324502652E+02  0.68246504605E+02  0.47000000000E+01 0.  1.
         13    1    5    5    0    0 -0.66833578928E+02 -0.27026258513E+01 -0.54309666437E+02  0.86160149299E+02  0.00000000000E+00 0. -1.
        -14    1    5    5    0    0  0.97476164969E+00 -0.42356221964E+01 -0.10111135006E+03  0.10120472206E+03  0.00000000000E+00 0.  1.
<mgrwt>
<rscale>  2 0.17400200E+03</rscale>
<asrwt>0</asrwt>
<pdfrwt beam="1">  1       21 0.12960435E-01 0.17453735E+03</pdfrwt>
<pdfrwt beam="2">  1       21 0.56979145E-01 0.17453735E+03</pdfrwt>
<totfact> 0.14879889E+05</totfact>
</mgrwt>
</event>
<event>
12    1  0.1013215E-001  0.1791950E+03  0.7546771E-02  0.1168598E+00
         21   -1    0    0  501  502  0.00000000000E+00  0.00000000000E+00  0.15403747083E+03  0.15403747083E+03  0.00000000000E+00 0. -1.
         21   -1    0    0  502  503 -0.00000000000E+00 -0.00000000000E+00 -0.12449760098E+04  0.12449760098E+04  0.00000000000E+00 0. -1.
         -6    2    1    2    0  503  0.39140813011E+02  0.19629242418E+02 -0.11837655836E+04  0.11972517786E+04  0.17376292475E+03 0.  0.
        -24    2    3    3    0    0  0.37200825171E+02 -0.53707826761E+02 -0.64752233783E+03  0.65599306235E+03  0.82299986733E+02 0.  0.
          6    2    1    2  501    0 -0.39140813011E+02 -0.19629242418E+02  0.92827044619E+02  0.20176170205E+03  0.17370553763E+03 0.  0.
         24    2    5    5    0    0 -0.91172704337E+01 -0.27092105014E+02  0.12863919387E+03  0.15420428980E+03  0.80086291075E+02 0.  0.
          5    1    5    5  501    0 -0.30023542577E+02  0.74628625961E+01 -0.35812149249E+02  0.47557412259E+02  0.47000000000E+01 0. -1.
        -11    1    6    6    0    0  0.23869773192E+02  0.12627444290E+02  0.19006694075E+02  0.33022308235E+02  0.00000000000E+00 0.  1.
         12    1    6    6    0    0 -0.32987043625E+02 -0.39719549304E+02  0.10963249979E+03  0.12118198156E+03  0.00000000000E+00 0. -1.
         -5    1    3    3    0  503  0.19399878397E+01  0.73337069178E+02 -0.53624324578E+03  0.54125871624E+03  0.47000000000E+01 0.  1.
         11    1    4    4    0    0  0.47865081524E+02 -0.26849178821E+01 -0.21145382029E+03  0.21682018570E+03  0.00000000000E+00 0. -1.
        -12    1    4    4    0    0 -0.10664256353E+02 -0.51022908879E+02 -0.43606851754E+03  0.43917287665E+03  0.00000000000E+00 0.  1.
<mgrwt>
<rscale>  2 0.17918113E+03</rscale>
<asrwt>0</asrwt>
<pdfrwt beam="1">  1       21 0.23698071E-01 0.17919505E+03</pdfrwt>
<pdfrwt beam="2">  1       21 0.19153478E+00 0.17919505E+03</pdfrwt>
<totfact> 0.25909858E+03</totfact>
</mgrwt>
</event>
<event>
12    1  0.1013215E-001  0.1918641E+03  0.7546771E-02  0.1156797E+00
         21   -1    0    0  503  502  0.00000000000E+00  0.00000000000E+00  0.31338354085E+03  0.31338354085E+03  0.00000000000E+00 0. -1.
         21   -1    0    0  501  503 -0.00000000000E+00 -0.00000000000E+00 -0.12536158176E+03  0.12536158176E+03  0.00000000000E+00 0. -1.
          6    2    1    2  501    0 -0.82728951725E+02  0.93049322706E+01  0.14912886116E+03  0.24300465453E+03  0.17286174728E+03 0.  0.
         24    2    3    3    0    0  0.23339241484E+02  0.50320301336E+01  0.62661169725E+02  0.10601023506E+03  0.82107893812E+02 0.  0.
         -6    2    1    2    0  502  0.82728951725E+02 -0.93049322706E+01  0.38893097930E+02  0.19574046809E+03  0.17283227871E+03 0.  0.
        -24    2    5    5    0    0  0.75165732373E+02 -0.57748072278E+02  0.63541016256E+02  0.14066279586E+03  0.82242532889E+02 0.  0.
          5    1    3    3  501    0 -0.10606819321E+03  0.42729021370E+01  0.86467691436E+02  0.13699441947E+03  0.47000000000E+01 0. -1.
        -11    1    4    4    0    0  0.23708398781E+02 -0.22580327230E+02  0.70135979032E+02  0.77401646658E+02  0.00000000000E+00 0.  1.
         12    1    4    4    0    0 -0.36915729643E+00  0.27612357364E+02 -0.74748093071E+01  0.28608588404E+02  0.00000000000E+00 0. -1.
         -5    1    5    5    0  502  0.75632193519E+01  0.48443140008E+02 -0.24647918327E+02  0.55077672233E+02  0.47000000000E+01 0.  1.
         11    1    6    6    0    0  0.71746451749E+02 -0.64268555856E+02  0.22432348505E+02  0.98900004397E+02  0.00000000000E+00 0. -1.
        -12    1    6    6    0    0  0.34192806237E+01  0.65204835771E+01  0.41108667752E+02  0.41762791458E+02  0.00000000000E+00 0.  1.
<mgrwt>
<rscale>  2 0.19185749E+03</rscale>
<asrwt>0</asrwt>
<pdfrwt beam="1">  1       21 0.48212852E-01 0.19186413E+03</pdfrwt>
<pdfrwt beam="2">  1       21 0.19286397E-01 0.19186413E+03</pdfrwt>
<totfact> 0.10155777E+05</totfact>
</mgrwt>
</event>
<event>
12    1  0.1013215E-001  0.1809152E+03  0.7546771E-02  0.1167672E+00
         21   -1    0    0  501  502  0.00000000000E+00  0.00000000000E+00  0.24483794965E+03  0.24483794965E+03  0.00000000000E+00 0. -1.
         21   -1    0    0  502  503 -0.00000000000E+00 -0.00000000000E+00 -0.16896945921E+03  0.16896945921E+03  0.00000000000E+00 0. -1.
         -6    2    1    2    0  503 -0.30825638803E+02  0.45237021217E+02  0.13523761688E+03  0.22339989837E+03  0.16917947119E+03 0.  0.
        -24    2    3    3    0    0 -0.77769065397E+02  0.41371417306E+02  0.12889855898E+03  0.17564111018E+03  0.80469493441E+02 0.  0.
          6    2    1    2  501    0  0.30825638803E+02 -0.45237021217E+02 -0.59369126443E+02  0.19040751049E+03  0.17243467975E+03 0.  0.
         24    2    5    5    0    0 -0.49307368011E+02 -0.29873929309E+02 -0.23829718553E+02  0.10128701404E+03  0.79796839129E+02 0.  0.
          5    1    5    5  501    0  0.80133006814E+02 -0.15363091908E+02 -0.35539407890E+02  0.89120496449E+02  0.47000000000E+01 0. -1.
        -13    1    6    6    0    0  0.51620167922E+01 -0.41051045831E+02 -0.16044352430E+01  0.41405422274E+02  0.00000000000E+00 0.  1.
         14    1    6    6    0    0 -0.54469384804E+02  0.11177116523E+02 -0.22225283310E+02  0.59881591770E+02  0.00000000000E+00 0. -1.
         -5    1    3    3    0  503  0.46943426594E+02  0.38656039112E+01  0.63390579009E+01  0.47758788187E+02  0.47000000000E+01 0.  1.
         13    1    4    4    0    0  0.16537373136E+02  0.12296464044E+02  0.21199523555E+02  0.29565309692E+02  0.00000000000E+00 0. -1.
        -14    1    4    4    0    0 -0.94306438534E+02  0.29074953262E+02  0.10769903543E+03  0.14607580049E+03  0.00000000000E+00 0.  1.
<mgrwt>
<rscale>  2 0.18013525E+03</rscale>
<asrwt>0</asrwt>
<pdfrwt beam="1">  1       21 0.37667377E-01 0.18091525E+03</pdfrwt>
<pdfrwt beam="2">  1       21 0.25995301E-01 0.18091525E+03</pdfrwt>
<totfact> 0.95976272E+04</totfact>
</mgrwt>
</event>
<event>
12    1  0.1013215E-001  0.1845643E+03  0.7546771E-02  0.1163769E+00
         21   -1    0    0  501  502  0.00000000000E+00  0.00000000000E+00  0.49245792060E+03  0.49245792060E+03  0.00000000000E+00 0. -1.
         21   -1    0    0  502  503 -0.00000000000E+00 -0.00000000000E+00 -0.12337845154E+03  0.12337845154E+03  0.00000000000E+00 0. -1.
         -6    2    1    2    0  503 -0.60295687824E+02  0.16509387376E+02 -0.20862310491E+02  0.18442176254E+03  0.17224407292E+03 0.  0.
        -24    2    3    3    0    0 -0.83757503312E+02 -0.39093820262E+02 -0.17462879318E+02  0.12379322456E+03  0.80474618036E+02 0.  0.
          6    2    1    2  501    0  0.60295687824E+02 -0.16509387376E+02  0.38994177955E+03  0.43141460960E+03  0.17365438117E+03 0.  0.
         24    2    5    5    0    0 -0.26171744320E+02  0.14048070316E+02  0.24693042188E+03  0.26145957595E+03  0.80648422948E+02 0.  0.
          5    1    5    5  501    0  0.86467432144E+02 -0.30557457692E+02  0.14301135767E+03  0.16995503365E+03  0.47000000000E+01 0. -1.
        -11    1    6    6    0    0 -0.35884526960E+02 -0.20966149603E+02  0.75135874116E+02  0.85864301566E+02  0.00000000000E+00 0.  1.
         12    1    6    6    0    0  0.97127826398E+01  0.35014219920E+02  0.17179454776E+03  0.17559527438E+03  0.00000000000E+00 0. -1.
         -5    1    3    3    0  503  0.23461815489E+02  0.55603207638E+02 -0.33994311729E+01  0.60628537983E+02  0.47000000000E+01 0.  1.
         11    1    4    4    0    0 -0.17055404129E+02  0.88374174318E+01 -0.34889005859E+02  0.39827496616E+02  0.00000000000E+00 0. -1.
        -12    1    4    4    0    0 -0.66702099184E+02 -0.47931237693E+02  0.17426126541E+02  0.83965727940E+02  0.00000000000E+00 0.  1.
<mgrwt>
<rscale>  2 0.18423180E+03</rscale>
<asrwt>0</asrwt>
<pdfrwt beam="1">  1       21 0.75762756E-01 0.18456428E+03</pdfrwt>
<pdfrwt beam="2">  1       21 0.18981300E-01 0.18456428E+03</pdfrwt>
<totfact> 0.39713815E+04</totfact>
</mgrwt>
</event>
<event>
12    1  0.1013215E-001  0.1811180E+03  0.7546771E-02  0.1166733E+00
         21   -1    0    0  501  502  0.00000000000E+00  0.00000000000E+00  0.32495526393E+03  0.32495526393E+03  0.00000000000E+00 0. -1.
         21   -1    0    0  502  503 -0.00000000000E+00 -0.00000000000E+00 -0.12245933271E+03  0.12245933271E+03  0.00000000000E+00 0. -1.
         -6    2    1    2    0  503  0.53535864590E+02  0.12651882333E+02  0.74453543071E+01  0.18124088994E+03  0.17253019435E+03 0.  0.
        -24    2    3    3    0    0 -0.39844317362E+01 -0.49214401993E+02 -0.95577590316E+01  0.94943627596E+02  0.80529551120E+02 0.  0.
          6    2    1    2  501    0 -0.53535864590E+02 -0.12651882333E+02  0.19505057691E+03  0.26617370670E+03  0.17256174449E+03 0.  0.
         24    2    5    5    0    0 -0.99007176894E+02  0.12501477607E+02  0.15030003523E+03  0.19743483313E+03  0.80197909729E+02 0.  0.
          5    1    5    5  501    0  0.45471312304E+02 -0.25153359940E+02  0.44750541686E+02  0.68738873573E+02  0.47000000000E+01 0. -1.
        -13    1    6    6    0    0 -0.44632609770E+01  0.31055305413E+02  0.42954005446E+02  0.53192097878E+02  0.00000000000E+00 0.  1.
         14    1    6    6    0    0 -0.94543915917E+02 -0.18553827806E+02  0.10734602978E+03  0.14424273525E+03  0.00000000000E+00 0. -1.
         -5    1    3    3    0  503  0.57520296326E+02  0.61866284326E+02  0.17003113339E+02  0.86297262349E+02  0.47000000000E+01 0.  1.
         11    1    4    4    0    0  0.79693705088E+01 -0.14884290522E+02 -0.42596989186E+02  0.45820917258E+02  0.00000000000E+00 0. -1.
        -12    1    4    4    0    0 -0.11953802245E+02 -0.34330111471E+02  0.33039230155E+02  0.49122710337E+02  0.00000000000E+00 0.  1.
<mgrwt>
<rscale>  2 0.18111044E+03</rscale>
<asrwt>0</asrwt>
<pdfrwt beam="1">  1       21 0.49993117E-01 0.18111796E+03</pdfrwt>
<pdfrwt beam="2">  1       21 0.18839898E-01 0.18111796E+03</pdfrwt>
<totfact> 0.98772302E+04</totfact>
</mgrwt>
</event>
<event>
12    1  0.1013215E-001  0.2876173E+03  0.7546771E-02  0.1091837E+00
         21   -1    0    0  503  502  0.00000000000E+00  0.00000000000E+00  0.54530952855E+03  0.54530952855E+03  0.00000000000E+00 0. -1.
         21   -1    0    0  501  503 -0.00000000000E+00 -0.00000000000E+00 -0.62397955041E+03  0.62397955041E+03  0.00000000000E+00 0.  1.
          6    2    1    2  501    0 -0.13241099401E+03  0.18744064855E+03 -0.54850593039E+03  0.61934036639E+03  0.17336973696E+03 0.  0.
         24    2    3    3    0    0 -0.12914634270E+03  0.20754150913E+03 -0.53845179104E+03  0.59614816377E+03  0.75564846600E+02 0.  0.
         -6    2    1    2    0  502  0.13241099401E+03 -0.18744064855E+03  0.46983590853E+03  0.54994871258E+03  0.17038526186E+03 0.  0.
        -24    2    5    5    0    0  0.16929462879E+02 -0.47608852056E+02  0.10006722902E+03  0.13807508913E+03  0.80610609771E+02 0.  0.
          5    1    3    3  501    0 -0.32646513107E+01 -0.20100860580E+02 -0.10054139352E+02  0.23192202620E+02  0.47000000000E+01 0. -1.
        -11    1    4    4    0    0 -0.33368778316E+02  0.75035661369E+02 -0.10788093924E+03  0.13558068777E+03  0.00000000000E+00 0.  1.
         12    1    4    4    0    0 -0.95777564382E+02  0.13250584776E+03 -0.43057085180E+03  0.46056747600E+03  0.00000000000E+00 0. -1.
         -5    1    5    5    0  502  0.11548153113E+03 -0.13983179649E+03  0.36976867952E+03  0.41187362345E+03  0.47000000000E+01 0.  1.
         11    1    6    6    0    0 -0.16593193312E+01 -0.27748015733E+02  0.10654507571E+03  0.11011157466E+03  0.00000000000E+00 0. -1.
        -12    1    6    6    0    0  0.18588782210E+02 -0.19860836323E+02 -0.64778466902E+01  0.27963514465E+02  0.00000000000E+00 0.  1.
<mgrwt>
<rscale>  2 0.28716903E+03</rscale>
<asrwt>0</asrwt>
<pdfrwt beam="1">  1       21 0.83893774E-01 0.28761734E+03</pdfrwt>
<pdfrwt beam="2">  1       21 0.95996853E-01 0.28761734E+03</pdfrwt>
<totfact> 0.10320008E+03</totfact>
</mgrwt>
</event>
<event>
12    1  0.1013215E-001  0.1853370E+03  0.7546771E-02  0.1163105E+00
         21   -1    0    0  501  502  0.00000000000E+00  0.00000000000E+00  0.41901407070E+03  0.41901407070E+03  0.00000000000E+00 0.  1.
         21   -1    0    0  502  503 -0.00000000000E+00 -0.00000000000E+00 -0.15535550745E+03  0.15535550745E+03  0.00000000000E+00 0.  1.
         -6    2    1    2    0  503 -0.30013615236E+02 -0.53639133241E+02 -0.66770294323E+02  0.19551202220E+03  0.17317247156E+03 0.  0.
        -24    2    3    3    0    0  0.16477063523E+02  0.23098973499E+02 -0.59353335999E+02  0.10536091844E+03  0.82298532441E+02 0.  0.
          6    2    1    2  501    0  0.30013615236E+02  0.53639133241E+02  0.33042885757E+03  0.37885755595E+03  0.17484805996E+03 0.  0.
         24    2    5    5    0    0  0.86802795476E+02  0.45665857785E+02  0.25018631061E+03  0.28011779467E+03  0.79073971744E+02 0.  0.
          5    1    5    5  501    0 -0.56789180240E+02  0.79732754560E+01  0.80242546962E+02  0.98739761276E+02  0.47000000000E+01 0. -1.
        -13    1    6    6    0    0  0.24285898069E+02  0.14612929987E+02  0.10099115587E+02  0.30088780359E+02  0.00000000000E+00 0.  1.
         14    1    6    6    0    0  0.62516897407E+02  0.31052927798E+02  0.24008719502E+03  0.25002901431E+03  0.00000000000E+00 0. -1.
         -5    1    3    3    0  503 -0.46490678760E+02 -0.76738106741E+02 -0.74169583236E+01  0.90151103756E+02  0.47000000000E+01 0.  1.
         11    1    4    4    0    0  0.22475353568E+02 -0.11441026640E+02  0.10410600259E+02  0.27284046737E+02  0.00000000000E+00 0. -1.
        -12    1    4    4    0    0 -0.59982900451E+01  0.34540000139E+02 -0.69763936259E+02  0.78076871706E+02  0.00000000000E+00 0.  1.
<mgrwt>
<rscale>  2 0.18494079E+03</rscale>
<asrwt>0</asrwt>
<pdfrwt beam="1">  1       21 0.64463703E-01 0.18533704E+03</pdfrwt>
<pdfrwt beam="2">  1       21 0.23900847E-01 0.18533704E+03</pdfrwt>
<totfact> 0.36755742E+04</totfact>
</mgrwt>
</event>
<event>
12    1  0.1013215E-001  0.2593640E+03  0.7546771E-02  0.1109068E+00
         21   -1    0    0  503  502  0.00000000000E+00  0.00000000000E+00  0.12495633236E+03  0.12495633236E+03  0.00000000000E+00 0.  1.
         21   -1    0    0  501  503 -0.00000000000E+00 -0.00000000000E+00 -0.59848769294E+03  0.59848769294E+03  0.00000000000E+00 0.  1.
          6    2    1    2  501    0  0.10510564403E+03 -0.16210074709E+03 -0.99899819220E+02  0.26861412592E+03  0.15763795911E+03 0.  0.
         24    2    3    3    0    0  0.11548892214E+03 -0.74408819360E+02 -0.78801650263E+02  0.17770257888E+03  0.80586245225E+02 0.  0.
         -6    2    1    2    0  502 -0.10510564403E+03  0.16210074709E+03 -0.37363154136E+03  0.45482989938E+03  0.17304872164E+03 0.  0.
        -24    2    5    5    0    0 -0.13957500427E+03  0.14839010655E+03 -0.33704843281E+03  0.40251802415E+03  0.83176367867E+02 0.  0.
          5    1    3    3  501    0 -0.10383278114E+02 -0.87691927726E+02 -0.21098168957E+02  0.90911547045E+02  0.47000000000E+01 0. -1.
        -11    1    4    4    0    0  0.67613874312E+02 -0.43789987239E+02 -0.88916351200E+02  0.11998048380E+03  0.00000000000E+00 0.  1.
         12    1    4    4    0    0  0.47875047833E+02 -0.30618832121E+02  0.10114700937E+02  0.57722095081E+02  0.00000000000E+00 0. -1.
         -5    1    5    5    0  502  0.34469360236E+02  0.13710640539E+02 -0.36583108549E+02  0.52311875231E+02  0.47000000000E+01 0.  1.
         13    1    6    6    0    0 -0.10443838801E+02 -0.43510189943E+01 -0.88003359962E+00  0.11348109725E+02  0.00000000000E+00 0. -1.
        -14    1    6    6    0    0 -0.12913116547E+03  0.15274112554E+03 -0.33616839921E+03  0.39116991443E+03  0.00000000000E+00 0.  1.
<mgrwt>
<rscale>  2 0.25682249E+03</rscale>
<asrwt>0</asrwt>
<pdfrwt beam="1">  1       21 0.19224051E-01 0.25936405E+03</pdfrwt>
<pdfrwt beam="2">  1       21 0.92075028E-01 0.25936405E+03</pdfrwt>
<totfact> 0.23903744E+04</totfact>
</mgrwt>
</event>
<event>
12    1  0.1013215E-001  0.1767373E+03  0.7546771E-02  0.1171129E+00
         21   -1    0    0  501  502  0.00000000000E+00  0.00000000000E+00  0.10316829478E+04  0.10316829478E+04  0.00000000000E+00 0.  1.
         21   -1    0    0  502  503 -0.00000000000E+00 -0.00000000000E+00 -0.51663316396E+02  0.51663316396E+02  0.00000000000E+00 0.  1.
         -6    2    1    2    0  503 -0.36376449038E+02 -0.46054745815E+01  0.14119378897E+03  0.22621174944E+03  0.17289191162E+03 0.  0.
        -24    2    3    3    0    0  0.28822693460E+02 -0.73014003044E+00  0.22052786375E+02  0.90260968281E+02  0.82640403226E+02 0.  0.
          6    2    1    2  501    0  0.36376449038E+02  0.46054745815E+01  0.83882584239E+03  0.85713451470E+03  0.17235523199E+03 0.  0.
         24    2    5    5    0    0  0.33932055746E+02  0.28685895854E+02  0.82230792034E+03  0.82745668635E+03  0.80746435809E+02 0.  0.
          5    1    5    5  501    0  0.24443932917E+01 -0.24080421273E+02  0.16517922051E+02  0.29677828360E+02  0.47000000000E+01 0. -1.
        -13    1    6    6    0    0  0.38979204622E+02  0.53782152538E+02  0.61367131636E+03  0.61725552476E+03  0.00000000000E+00 0.  1.
         14    1    6    6    0    0 -0.50471488757E+01 -0.25096256684E+02  0.20863660398E+03  0.21020116159E+03  0.00000000000E+00 0. -1.
         -5    1    3    3    0  503 -0.65199142498E+02 -0.38753345511E+01  0.11914100259E+03  0.13595078116E+03  0.47000000000E+01 0.  1.
         11    1    4    4    0    0 -0.25105561273E+02  0.16298158171E+02  0.11021622445E+01  0.29952194047E+02  0.00000000000E+00 0. -1.
        -12    1    4    4    0    0  0.53928254733E+02 -0.17028298201E+02  0.20950624131E+02  0.60308774235E+02  0.00000000000E+00 0.  1.
<mgrwt>
<rscale>  2 0.17660590E+03</rscale>
<asrwt>0</asrwt>
<pdfrwt beam="1">  1       21 0.15872044E+00 0.17673729E+03</pdfrwt>
<pdfrwt beam="2">  1       21 0.79482033E-02 0.17673729E+03</pdfrwt>
<totfact> 0.31534204E+04</totfact>
</mgrwt>
</event>
<event>
12    1  0.1013215E-001  0.1812060E+03  0.7546771E-02  0.1167006E+00
         21   -1    0    0  501  502  0.00000000000E+00  0.00000000000E+00  0.55786756840E+02  0.55786756840E+02  0.00000000000E+00 0. -1.
         21   -1    0    0  502  503 -0.00000000000E+00 -0.00000000000E+00 -0.10559964111E+04  0.10559964111E+04  0.00000000000E+00 0. -1.
         -6    2    1    2    0  503  0.39857755170E+02 -0.25436962603E+02 -0.87071370350E+03  0.88906175587E+03  0.17335735514E+03 0.  0.
        -24    2    3    3    0    0  0.13869147685E+02 -0.77757909120E+02 -0.36264249565E+03  0.37762130831E+03  0.69639264404E+02 0.  0.
          6    2    1    2  501    0 -0.39857755170E+02  0.25436962603E+02 -0.12949595080E+03  0.22272141210E+03  0.17492840370E+03 0.  0.
         24    2    5    5    0    0 -0.12766040689E+02 -0.50774866058E+02 -0.88264543961E+02  0.13181309163E+03  0.82722443064E+02 0.  0.
          5    1    5    5  501    0 -0.27091714481E+02  0.76211828661E+02 -0.41231406835E+02  0.90908320472E+02  0.47000000000E+01 0. -1.
        -13    1    6    6    0    0 -0.42465747906E+02 -0.48604108430E+01 -0.45194402023E+02  0.62205283642E+02  0.00000000000E+00 0.  1.
         14    1    6    6    0    0  0.29699707217E+02 -0.45914455215E+02 -0.43070141938E+02  0.69607807989E+02  0.00000000000E+00 0. -1.
         -5    1    3    3    0  503  0.25988607485E+02  0.52320946517E+02 -0.50807120785E+03  0.51144044757E+03  0.47000000000E+01 0.  1.
         13    1    4    4    0    0 -0.26139862579E+02 -0.36892013306E+02 -0.11757229654E+03  0.12596649544E+03  0.00000000000E+00 0. -1.
        -14    1    4    4    0    0  0.40009010264E+02 -0.40865895814E+02 -0.24507019912E+03  0.25165481286E+03  0.00000000000E+00 0.  1.
<mgrwt>
<rscale>  2 0.18082580E+03</rscale>
<asrwt>0</asrwt>
<pdfrwt beam="1">  1       21 0.85825778E-02 0.18120603E+03</pdfrwt>
<pdfrwt beam="2">  1       21 0.16246099E+00 0.18120603E+03</pdfrwt>
<totfact> 0.25833707E+04</totfact>
</mgrwt>
</event>
<event>
12    1  0.1013215E-001  0.1991143E+03  0.7546771E-02  0.1150528E+00
         21   -1    0    0  501  502  0.00000000000E+00  0.00000000000E+00  0.31052421110E+02  0.31052421110E+02  0.00000000000E+00 0. -1.
         21   -1    0    0  502  503 -0.00000000000E+00 -0.00000000000E+00 -0.22321769433E+04  0.22321769433E+04  0.00000000000E+00 0. -1.
         -6    2    1    2    0  503 -0.83509320729E+02  0.51558977211E+02 -0.18416492680E+04  0.18523818498E+04  0.17324651853E+03 0.  0.
        -24    2    3    3    0    0 -0.12039673668E+03  0.62507844275E+02 -0.13453012307E+04  0.13545224085E+04  0.80578836627E+02 0.  0.
          6    2    1    2  501    0  0.83509320729E+02 -0.51558977211E+02 -0.35947525416E+03  0.41084751463E+03  0.17303493041E+03 0.  0.
         24    2    5    5    0    0  0.88103882817E+02 -0.30346604234E+02 -0.36718498267E+03  0.38733996942E+03  0.80772704889E+02 0.  0.
          5    1    5    5  501    0 -0.45945620879E+01 -0.21212372977E+02  0.77097285101E+01  0.23507545210E+02  0.47000000000E+01 0. -1.
        -11    1    6    6    0    0 -0.58187675995E+01  0.16961702174E+02 -0.45745810140E+02  0.49134881117E+02  0.00000000000E+00 0.  1.
         12    1    6    6    0    0  0.93922650416E+02 -0.47308306408E+02 -0.32143917253E+03  0.33820508830E+03  0.00000000000E+00 0. -1.
         -5    1    3    3    0  503  0.36887415952E+02 -0.10948867064E+02 -0.49634803728E+03  0.49785944127E+03  0.47000000000E+01 0.  1.
         13    1    4    4    0    0 -0.39259979802E+02  0.15685492164E+02 -0.80879399490E+03  0.80989820772E+03  0.00000000000E+00 0. -1.
        -14    1    4    4    0    0 -0.81136756879E+02  0.46822352111E+02 -0.53650723583E+03  0.54462420077E+03  0.00000000000E+00 0.  1.
<mgrwt>
<rscale>  2 0.19906823E+03</rscale>
<asrwt>0</asrwt>
<pdfrwt beam="1">  1       21 0.47772956E-02 0.19911427E+03</pdfrwt>
<pdfrwt beam="2">  1       21 0.34341183E+00 0.19911427E+03</pdfrwt>
<totfact> 0.55117634E+03</totfact>
</mgrwt>
</event>
<event>
12    1  0.1013215E-001  0.2053585E+03  0.7546771E-02  0.1145884E+00
         21   -1    0    0  501  502  0.00000000000E+00  0.00000000000E+00  0.60624514104E+03  0.60624514104E+03  0.00000000000E+00 0. -1.
         21   -1    0    0  502  503 -0.00000000000E+00 -0.00000000000E+00 -0.74435918779E+02  0.74435918779E+02  0.00000000000E+00 0. -1.
         -6    2    1    2    0  503  0.21857357027E+02  0.10373351537E+03  0.17229126004E+03  0.26806043124E+03  0.17587987447E+03 0.  0.
        -24    2    3    3    0    0 -0.17886068102E+02  0.11802877688E+03  0.91039275055E+02  0.17636599626E+03  0.92553289673E+02 0.  0.
          6    2    1    2  501    0 -0.21857357027E+02 -0.10373351537E+03  0.35951796222E+03  0.41262062858E+03  0.17252313381E+03 0.  0.
         24    2    5    5    0    0 -0.18059546737E+02 -0.87742737575E+02  0.11140069934E+03  0.16391519141E+03  0.80206850929E+02 0.  0.
          5    1    5    5  501    0 -0.37978102900E+01 -0.15990777794E+02  0.24811726288E+03  0.24870543717E+03  0.47000000000E+01 0. -1.
        -13    1    6    6    0    0 -0.43908387395E+02 -0.79039324100E+02  0.70040391563E+02  0.11437140240E+03  0.00000000000E+00 0.  1.
         14    1    6    6    0    0  0.25848840658E+02 -0.87034134753E+01  0.41360307781E+02  0.49543789008E+02  0.00000000000E+00 0. -1.
         -5    1    3    3    0  503  0.39743425130E+02 -0.14295261514E+02  0.81251984987E+02  0.91694434984E+02  0.47000000000E+01 0.  1.
         13    1    4    4    0    0 -0.50648962504E+01  0.64790129406E+02 -0.56641258582E+01  0.65234165621E+02  0.00000000000E+00 0. -1.
        -14    1    4    4    0    0 -0.12821171852E+02  0.53238647478E+02  0.96703400914E+02  0.11113183064E+03  0.00000000000E+00 0.  1.
<mgrwt>
<rscale>  2 0.20463785E+03</rscale>
<asrwt>0</asrwt>
<pdfrwt beam="1">  1       21 0.93268480E-01 0.20535851E+03</pdfrwt>
<pdfrwt beam="2">  1       21 0.11451680E-01 0.20535851E+03</pdfrwt>
<totfact> 0.61313504E+04</totfact>
</mgrwt>
</event>
<event>
12    1  0.1013215E-001  0.2197965E+03  0.7546771E-02  0.1134311E+00
         21   -1    0    0  501  502  0.00000000000E+00  0.00000000000E+00  0.31749305826E+03  0.31749305826E+03  0.00000000000E+00 0. -1.
         21   -1    0    0  502  503 -0.00000000000E+00 -0.00000000000E+00 -0.11687722002E+04  0.11687722002E+04  0.00000000000E+00 0.  1.
         -6    2    1    2    0  503 -0.42932538159E+02 -0.12691891744E+03 -0.11188736775E+04  0.11399744165E+04  0.17237096512E+03 0.  0.
        -24    2    3    3    0    0 -0.72560584925E+01 -0.14757109686E+03 -0.99960909388E+03  0.10136991037E+04  0.80855755836E+02 0.  0.
          6    2    1    2  501    0  0.42932538159E+02  0.12691891744E+03  0.26759453565E+03  0.34629084188E+03  0.17423804758E+03 0.  0.
         24    2    5    5    0    0  0.93035464032E+01  0.11963588965E+03  0.10586801003E+03  0.18087769044E+03  0.84317265626E+02 0.  0.
          5    1    5    5  501    0  0.33628991756E+02  0.72830277850E+01  0.16172652562E+03  0.16541315144E+03  0.47000000000E+01 0. -1.
        -13    1    6    6    0    0 -0.13357169722E+02  0.83217433680E+00 -0.72987162103E+01  0.15243941597E+02  0.00000000000E+00 0.  1.
         14    1    6    6    0    0  0.22660716125E+02  0.11880371531E+03  0.11316672624E+03  0.16563374884E+03  0.00000000000E+00 0. -1.
         -5    1    3    3    0  503 -0.35676479667E+02  0.20652179419E+02 -0.11926458367E+03  0.12627531284E+03  0.47000000000E+01 0.  1.
         13    1    4    4    0    0  0.12604234590E+02 -0.11735769042E+02 -0.31458075264E+02  0.35863707337E+02  0.00000000000E+00 0. -1.
        -14    1    4    4    0    0 -0.19860293082E+02 -0.13583532781E+03 -0.96815101861E+03  0.97783539635E+03  0.00000000000E+00 0.  1.
<mgrwt>
<rscale>  2 0.21942631E+03</rscale>
<asrwt>0</asrwt>
<pdfrwt beam="1">  1       21 0.48845086E-01 0.21979652E+03</pdfrwt>
<pdfrwt beam="2">  1       21 0.17981111E+00 0.21979652E+03</pdfrwt>
<totfact> 0.70892513E+02</totfact>
</mgrwt>
</event>
<event>
12    1  0.1013215E-001  0.2939176E+03  0.7546771E-02  0.1088322E+00
         21   -1    0    0  501  502  0.00000000000E+00  0.00000000000E+00  0.12592837820E+03  0.12592837820E+03  0.00000000000E+00 0.  1.
         21   -1    0    0  502  503 -0.00000000000E+00 -0.00000000000E+00 -0.84647552089E+03  0.84647552089E+03  0.00000000000E+00 0. -1.
         -6    2    1    2    0  503  0.13485431882E+03 -0.19562392517E+03 -0.14857484400E+03  0.32933574540E+03  0.17301196931E+03 0.  0.
        -24    2    3    3    0    0  0.56115655204E+02 -0.17905000085E+03 -0.91871469736E+02  0.23078710376E+03  0.98053305641E+02 0.  0.
          6    2    1    2  501    0 -0.13485431882E+03  0.19562392517E+03 -0.57197229870E+03  0.64306815369E+03  0.17300269479E+03 0.  0.
         24    2    5    5    0    0 -0.15769957942E+02  0.11685591998E+03 -0.17721436390E+03  0.22325700479E+03  0.67340640102E+02 0.  0.
          5    1    5    5  501    0 -0.11908436088E+03  0.78768005190E+02 -0.39475793480E+03  0.41981114889E+03  0.47000000000E+01 0. -1.
        -11    1    6    6    0    0 -0.10402406077E+02  0.88068756073E+02 -0.17199636622E+03  0.19351244363E+03  0.00000000000E+00 0.  1.
         12    1    6    6    0    0 -0.53675518657E+01  0.28787163909E+02 -0.52179976819E+01  0.29744561163E+02  0.00000000000E+00 0. -1.
         -5    1    3    3    0  503  0.78738663617E+02 -0.16573924318E+02 -0.56703374262E+02  0.98548641635E+02  0.47000000000E+01 0.  1.
         11    1    4    4    0    0 -0.24752033078E+02 -0.15509643518E+02 -0.14612272722E+02  0.32660843492E+02  0.00000000000E+00 0. -1.
        -12    1    4    4    0    0  0.80867688282E+02 -0.16354035734E+03 -0.77259197015E+02  0.19812626027E+03  0.00000000000E+00 0.  1.
<mgrwt>
<rscale>  2 0.29391622E+03</rscale>
<asrwt>0</asrwt>
<pdfrwt beam="1">  1       21 0.19373596E-01 0.29391759E+03</pdfrwt>
<pdfrwt beam="2">  1       21 0.13022700E+00 0.29391759E+03</pdfrwt>
<totfact> 0.99142283E+03</totfact>
</mgrwt>
</event>
<event>
12    1  0.1013215E-001  0.1928381E+03  0.7546771E-02  0.1156195E+00
         21   -1    0    0  501  502  0.00000000000E+00  0.00000000000E+00  0.18245461574E+03  0.18245461574E+03  0.00000000000E+00 0. -1.
         21   -1    0    0  502  503 -0.00000000000E+00 -0.00000000000E+00 -0.21629933961E+03  0.21629933961E+03  0.00000000000E+00 0. -1.
         -6    2    1    2    0  503 -0.62379540706E+02 -0.54326501363E+02 -0.67167303822E+02  0.20305795603E+03  0.17285401631E+03 0.  0.
        -24    2    3    3    0    0 -0.20609904860E+02 -0.92243613358E+02 -0.13943947746E+02  0.12535837113E+03  0.81158087403E+02 0.  0.
          6    2    1    2  501    0  0.62379540706E+02  0.54326501363E+02  0.33322579959E+02  0.19569599932E+03  0.17419516057E+03 0.  0.
         24    2    5    5    0    0  0.10378282858E+03  0.15640508233E+02  0.38952399340E+02  0.13855911826E+03  0.81644588505E+02 0.  0.
          5    1    5    5  501    0 -0.41403287874E+02  0.38685993130E+02 -0.56298193807E+01  0.57136881062E+02  0.47000000000E+01 0. -1.
        -11    1    6    6    0    0  0.75931031607E+02  0.12032405016E+02 -0.14447563194E+02  0.78224244411E+02  0.00000000000E+00 0.  1.
         12    1    6    6    0    0  0.27851796973E+02  0.36081032176E+01  0.53399962535E+02  0.60334873847E+02  0.00000000000E+00 0. -1.
         -5    1    3    3    0  503 -0.41769635846E+02  0.37917111996E+02 -0.53223356076E+02  0.77699584895E+02  0.47000000000E+01 0.  1.
         13    1    4    4    0    0 -0.17815611695E+01 -0.57843729296E+02  0.31048771487E+02  0.65674174452E+02  0.00000000000E+00 0. -1.
        -14    1    4    4    0    0 -0.18828343690E+02 -0.34399884062E+02 -0.44992719233E+02  0.59684196682E+02  0.00000000000E+00 0.  1.
<mgrwt>
<rscale>  2 0.19253472E+03</rscale>
<asrwt>0</asrwt>
<pdfrwt beam="1">  1       21 0.28069941E-01 0.19283809E+03</pdfrwt>
<pdfrwt beam="2">  1       21 0.33276821E-01 0.19283809E+03</pdfrwt>
<totfact> 0.10543998E+05</totfact>
</mgrwt>
</event>
<event>
12    1  0.1013215E-001  0.2673979E+03  0.7546771E-02  0.1102783E+00
         21   -1    0    0  501  502  0.00000000000E+00  0.00000000000E+00  0.72439301902E+03  0.72439301902E+03  0.00000000000E+00 0.  1.
         21   -1    0    0  502  503 -0.00000000000E+00 -0.00000000000E+00 -0.14634967143E+03  0.14634967143E+03  0.00000000000E+00 0.  1.
         -6    2    1    2    0  503 -0.20354275411E+03  0.29814636564E+01  0.53744934939E+03  0.60028101336E+03  0.17334056063E+03 0.  0.
        -24    2    3    3    0    0 -0.70283109097E+02  0.49268437274E+02  0.32217151127E+03  0.34285674390E+03  0.79932282793E+02 0.  0.
          6    2    1    2  501    0  0.20354275411E+03 -0.29814636564E+01  0.40593998195E+02  0.27046167709E+03  0.17338715122E+03 0.  0.
         24    2    5    5    0    0  0.11374017201E+03  0.48933763114E+02 -0.29848686702E+02  0.14498675379E+03  0.69273911204E+02 0.  0.
          5    1    5    5  501    0  0.89802582098E+02 -0.51915226770E+02  0.70442684898E+02  0.12547492330E+03  0.47000000000E+01 0. -1.
        -13    1    6    6    0    0  0.37079960698E+02 -0.15673714088E+02  0.43357040147E+00  0.40258872090E+02  0.00000000000E+00 0.  1.
         14    1    6    6    0    0  0.76660211316E+02  0.64607477202E+02 -0.30282257104E+02  0.10472788170E+03  0.00000000000E+00 0. -1.
         -5    1    3    3    0  503 -0.13325964501E+03 -0.46286973617E+02  0.21527783812E+03  0.25742426945E+03  0.47000000000E+01 0.  1.
         13    1    4    4    0    0  0.67435533946E+00 -0.13139683567E+02  0.10756237074E+03  0.10836406064E+03  0.00000000000E+00 0. -1.
        -14    1    4    4    0    0 -0.70957464437E+02  0.62408120841E+02  0.21460914053E+03  0.23449268327E+03  0.00000000000E+00 0.  1.
<mgrwt>
<rscale>  2 0.26739036E+03</rscale>
<asrwt>0</asrwt>
<pdfrwt beam="1">  1       21 0.11144508E+00 0.26739792E+03</pdfrwt>
<pdfrwt beam="2">  1       21 0.22515334E-01 0.26739792E+03</pdfrwt>
<totfact> 0.11170269E+04</totfact>
</mgrwt>
</event>
<event>
12    1  0.1013215E-001  0.1931083E+03  0.7546771E-02  0.1156035E+00
         21   -1    0    0  501  502  0.00000000000E+00  0.00000000000E+00  0.95075717578E+03  0.95075717578E+03  0.00000000000E+00 0.  1.
         21   -1    0    0  502  503 -0.00000000000E+00 -0.00000000000E+00 -0.72752667737E+02  0.72752667737E+02  0.00000000000E+00 0. -1.
         -6    2    1    2    0  503  0.62146395270E+02  0.53184543094E+02  0.90897044412E+02  0.21343166678E+03  0.17492865298E+03 0.  0.
        -24    2    3    3    0    0  0.94409847947E+02  0.61551930237E+02  0.25458745900E+02  0.13984359398E+03  0.78779588284E+02 0.  0.
          6    2    1    2  501    0 -0.62146395270E+02 -0.53184543094E+02  0.78710746363E+03  0.81007817674E+03  0.17319850764E+03 0.  0.
         24    2    5    5    0    0 -0.10905835001E+03 -0.50754036423E+02  0.55613558358E+03  0.57433098537E+03  0.78099920067E+02 0.  0.
          5    1    5    5  501    0  0.46911954743E+02 -0.24305066713E+01  0.23097188005E+03  0.23574719136E+03  0.47000000000E+01 0. -1.
        -11    1    6    6    0    0 -0.45324152086E+02 -0.25790867358E+02  0.40591308833E+03  0.40924916968E+03  0.00000000000E+00 0.  1.
         12    1    6    6    0    0 -0.63734197926E+02 -0.24963169065E+02  0.15022249525E+03  0.16508181570E+03  0.00000000000E+00 0. -1.
         -5    1    3    3    0  503 -0.32263452676E+02 -0.83673871433E+01  0.65438298512E+02  0.73588072800E+02  0.47000000000E+01 0.  1.
         11    1    4    4    0    0  0.58898964971E+02  0.40107220536E+02 -0.24091916895E+02  0.75220327528E+02  0.00000000000E+00 0. -1.
        -12    1    4    4    0    0  0.35510882976E+02  0.21444709701E+02  0.49550662796E+02  0.64623266456E+02  0.00000000000E+00 0.  1.
<mgrwt>
<rscale>  2 0.19271561E+03</rscale>
<asrwt>0</asrwt>
<pdfrwt beam="1">  1       21 0.14627033E+00 0.19310827E+03</pdfrwt>
<pdfrwt beam="2">  1       21 0.11192719E-01 0.19310827E+03</pdfrwt>
<totfact> 0.21212278E+04</totfact>
</mgrwt>
</event>
<event>
12    1  0.1013215E-001  0.1872316E+03  0.7546771E-02  0.1162380E+00
         21   -1    0    0  501  502  0.00000000000E+00  0.00000000000E+00  0.35505307166E+03  0.35505307166E+03  0.00000000000E+00 0. -1.
         21   -1    0    0  502  503 -0.00000000000E+00 -0.00000000000E+00 -0.16667870117E+03  0.16667870117E+03  0.00000000000E+00 0. -1.
         -6    2    1    2    0  503  0.28327070458E+02  0.50568083327E+02 -0.75267609716E+02  0.20179414625E+03  0.17803401477E+03 0.  0.
        -24    2    3    3    0    0  0.75335395625E+02  0.46234946544E+02 -0.92859288554E+02  0.15119655862E+03  0.80152727661E+02 0.  0.
          6    2    1    2  501    0 -0.28327070458E+02 -0.50568083327E+02  0.26364198020E+03  0.31993762659E+03  0.17173653429E+03 0.  0.
         24    2    5    5    0    0  0.42796711753E+02 -0.17064564749E+01  0.16584893631E+03  0.18943237609E+03  0.80896754591E+02 0.  0.
          5    1    5    5  501    0 -0.71123782211E+02 -0.48861626853E+02  0.97793043891E+02  0.13050525050E+03  0.47000000000E+01 0. -1.
        -13    1    6    6    0    0 -0.10938262977E+01  0.22247441339E+02  0.11848059049E+03  0.12055619198E+03  0.00000000000E+00 0.  1.
         14    1    6    6    0    0  0.43890538050E+02 -0.23953897814E+02  0.47368345817E+02  0.68876184101E+02  0.00000000000E+00 0. -1.
         -5    1    3    3    0  503 -0.47008325167E+02  0.43331367835E+01  0.17591678838E+02  0.50597587628E+02  0.47000000000E+01 0.  1.
         13    1    4    4    0    0  0.77367060841E+02  0.50014926035E+02 -0.43902190136E+02  0.10205173800E+03  0.00000000000E+00 0. -1.
        -14    1    4    4    0    0 -0.20316652155E+01 -0.37799794908E+01 -0.48957098418E+02  0.49144820622E+02  0.00000000000E+00 0.  1.
<mgrwt>
<rscale>  2 0.18571894E+03</rscale>
<asrwt>0</asrwt>
<pdfrwt beam="1">  1       21 0.54623549E-01 0.18723158E+03</pdfrwt>
<pdfrwt beam="2">  1       21 0.25642877E-01 0.18723158E+03</pdfrwt>
<totfact> 0.45784916E+04</totfact>
</mgrwt>
</event>
<event>
12    1  0.1013215E-001  0.2118413E+03  0.7546771E-02  0.1140518E+00
         21   -1    0    0  503  502  0.00000000000E+00  0.00000000000E+00  0.11155945226E+03  0.11155945226E+03  0.00000000000E+00 0.  1.
         21   -1    0    0  501  503 -0.00000000000E+00 -0.00000000000E+00 -0.45995620876E+03  0.45995620876E+03  0.00000000000E+00 0.  1.
          6    2    1    2  501    0  0.11734331784E+01 -0.11897632751E+03 -0.27946814689E+03  0.35068389351E+03  0.17527123149E+03 0.  0.
         24    2    3    3    0    0 -0.54896548115E+02 -0.72848916509E+02 -0.23821996522E+03  0.26704727869E+03  0.79024689770E+02 0.  0.
         -6    2    1    2    0  502 -0.11734331784E+01  0.11897632751E+03 -0.68928609614E+02  0.22083176752E+03  0.17279691221E+03 0.  0.
        -24    2    5    5    0    0  0.93359319634E+01  0.83453986346E+02  0.24602136284E+02  0.12012241390E+03  0.82294603403E+02 0.  0.
          5    1    3    3  501    0  0.56069981293E+02 -0.46127411003E+02 -0.41248181667E+02  0.83636614822E+02  0.47000000000E+01 0. -1.
        -11    1    4    4    0    0  0.50508549712E+01 -0.53851667514E+02 -0.77912081108E+02  0.94846220867E+02  0.00000000000E+00 0.  1.
         12    1    4    4    0    0 -0.59947403086E+02 -0.18997248995E+02 -0.16030788411E+03  0.17220105782E+03  0.00000000000E+00 0. -1.
         -5    1    5    5    0  502 -0.10509365142E+02  0.35522341166E+02 -0.93530745897E+02  0.10070935362E+03  0.47000000000E+01 0.  1.
         13    1    6    6    0    0 -0.11266275383E+02  0.17092249419E+02 -0.26775677730E+02  0.33704760333E+02  0.00000000000E+00 0. -1.
        -14    1    6    6    0    0  0.20602207346E+02  0.66361736927E+02  0.51377814014E+02  0.86417653569E+02  0.00000000000E+00 0.  1.
<mgrwt>
<rscale>  2 0.21132883E+03</rscale>
<asrwt>0</asrwt>
<pdfrwt beam="1">  1       21 0.17162992E-01 0.21184133E+03</pdfrwt>
<pdfrwt beam="2">  1       21 0.70762494E-01 0.21184133E+03</pdfrwt>
<totfact> 0.54950807E+04</totfact>
</mgrwt>
</event>
<event>
12    1  0.1013215E-001  0.1869813E+03  0.7546771E-02  0.1161432E+00
         21   -1    0    0  503  502  0.00000000000E+00  0.00000000000E+00  0.43402693371E+03  0.43402693371E+03  0.00000000000E+00 0. -1.
         21   -1    0    0  501  503 -0.00000000000E+00 -0.00000000000E+00 -0.81141394887E+02  0.81141394887E+02  0.00000000000E+00 0. -1.
          6    2    1    2  501    0  0.60155204831E+02  0.31256102479E+02  0.20543760646E+03  0.27778878038E+03  0.17425958724E+03 0.  0.
         24    2    3    3    0    0  0.35973718180E+02 -0.22491651217E+02  0.20174728448E+03  0.21854965648E+03  0.72539663479E+02 0.  0.
         -6    2    1    2    0  502 -0.60155204831E+02 -0.31256102479E+02  0.14744793236E+03  0.23737954822E+03  0.17324134768E+03 0.  0.
        -24    2    5    5    0    0 -0.40784622808E+02 -0.30607598024E+02  0.65545861562E+01  0.95081744264E+02  0.79983529418E+02 0.  0.
          5    1    3    3  501    0  0.24181486651E+02  0.53747753695E+02  0.36903219827E+01  0.59239123899E+02  0.47000000000E+01 0. -1.
        -13    1    4    4    0    0 -0.74520824182E+01  0.19943034232E+02  0.33611300023E+02  0.39786651480E+02  0.00000000000E+00 0.  1.
         14    1    4    4    0    0  0.43425800598E+02 -0.42434685449E+02  0.16813598446E+03  0.17876300500E+03  0.00000000000E+00 0. -1.
         -5    1    5    5    0  502 -0.19370582023E+02 -0.64850445498E+00  0.14089334621E+03  0.14229780396E+03  0.47000000000E+01 0.  1.
         11    1    6    6    0    0 -0.37699716276E+02 -0.54967112184E+02 -0.70255698978E+01  0.67022463858E+02  0.00000000000E+00 0. -1.
        -12    1    6    6    0    0 -0.30849065323E+01  0.24359514161E+02  0.13580156054E+02  0.28059280406E+02  0.00000000000E+00 0.  1.
<mgrwt>
<rscale>  2 0.18674367E+03</rscale>
<asrwt>0</asrwt>
<pdfrwt beam="1">  1       21 0.66773373E-01 0.18698127E+03</pdfrwt>
<pdfrwt beam="2">  1       21 0.12483292E-01 0.18698127E+03</pdfrwt>
<totfact> 0.11260245E+05</totfact>
</mgrwt>
</event>
<event>
12    1  0.1013215E-001  0.2437014E+03  0.7546771E-02  0.1117779E+00
         21   -1    0    0  501  502  0.00000000000E+00  0.00000000000E+00  0.15244993673E+03  0.15244993673E+03  0.00000000000E+00 0.  1.
         21   -1    0    0  502  503 -0.00000000000E+00 -0.00000000000E+00 -0.52819555974E+03  0.52819555974E+03  0.00000000000E+00 0. -1.
         -6    2    1    2    0  503  0.16468189453E+03 -0.45992104584E+02 -0.36554127809E+03  0.43932996800E+03  0.17365193557E+03 0.  0.
        -24    2    3    3    0    0  0.19005671908E+03 -0.24746740339E+02 -0.29867547587E+03  0.36457454861E+03  0.83508107287E+02 0.  0.
          6    2    1    2  501    0 -0.16468189453E+03  0.45992104584E+02 -0.10204344919E+02  0.24131552846E+03  0.16998133883E+03 0.  0.
         24    2    5    5    0    0 -0.19226375121E+03  0.36330531069E+02 -0.34641931073E+01  0.21095725995E+03  0.78776312276E+02 0.  0.
          5    1    5    5  501    0  0.27581856675E+02  0.96615735146E+01 -0.67401518121E+01  0.30358268509E+02  0.47000000000E+01 0. -1.
        -11    1    6    6    0    0 -0.72216635798E+02 -0.20372514536E+02  0.16143513499E+02  0.76752165198E+02  0.00000000000E+00 0.  1.
         12    1    6    6    0    0 -0.12004711541E+03  0.56703045605E+02 -0.19607706607E+02  0.13420509475E+03  0.00000000000E+00 0. -1.
         -5    1    3    3    0  503 -0.25374824544E+02 -0.21245364245E+02 -0.66865802223E+02  0.74755419399E+02  0.47000000000E+01 0.  1.
         13    1    4    4    0    0  0.10017317147E+03 -0.54323089866E+02 -0.17546085285E+03  0.20921800414E+03  0.00000000000E+00 0. -1.
        -14    1    4    4    0    0  0.89883547610E+02  0.29576349527E+02 -0.12321462302E+03  0.15535654446E+03  0.00000000000E+00 0.  1.
<mgrwt>
<rscale>  2 0.24304838E+03</rscale>
<asrwt>0</asrwt>
<pdfrwt beam="1">  1       21 0.23453836E-01 0.24370145E+03</pdfrwt>
<pdfrwt beam="2">  1       21 0.81260857E-01 0.24370145E+03</pdfrwt>
<totfact> 0.22076217E+04</totfact>
</mgrwt>
</event>
<event>
12    1  0.1013215E-001  0.1832862E+03  0.7546771E-02  0.1164883E+00
         21   -1    0    0  501  502  0.00000000000E+00  0.00000000000E+00  0.34908970114E+02  0.34908970114E+02  0.00000000000E+00 0.  1.
         21   -1    0    0  502  503 -0.00000000000E+00 -0.00000000000E+00 -0.13227249058E+04  0.13227249058E+04  0.00000000000E+00 0.  1.
         -6    2    1    2    0  503 -0.39203492400E+02  0.42227191926E+02 -0.10018498250E+04  0.10184777395E+04  0.17399363329E+03 0.  0.
        -24    2    3    3    0    0 -0.46868864897E+02 -0.11047378628E+02 -0.29926468097E+03  0.31381830940E+03  0.81264057036E+02 0.  0.
          6    2    1    2  501    0  0.39203492400E+02 -0.42227191926E+02 -0.28596611066E+03  0.33915613640E+03  0.17300352268E+03 0.  0.
         24    2    5    5    0    0 -0.23438218086E+02 -0.61415951483E+02 -0.20522096689E+03  0.23506934268E+03  0.93918483006E+02 0.  0.
          5    1    5    5  501    0  0.62641710486E+02  0.19188759557E+02 -0.80745143772E+02  0.10408679373E+03  0.47000000000E+01 0. -1.
        -13    1    6    6    0    0  0.17949658594E+02  0.69432407756E+01 -0.10568930471E+03  0.10742731480E+03  0.00000000000E+00 0.  1.
         14    1    6    6    0    0 -0.41387876680E+02 -0.68359192259E+02 -0.99531662185E+02  0.12764202787E+03  0.00000000000E+00 0. -1.
         -5    1    3    3    0  503  0.76653724970E+01  0.53274570554E+02 -0.70258514405E+03  0.70465943011E+03  0.47000000000E+01 0.  1.
         11    1    4    4    0    0  0.11222048020E+02 -0.31048286278E+02 -0.10651223716E+03  0.11151137659E+03  0.00000000000E+00 0. -1.
        -12    1    4    4    0    0 -0.58090912917E+02  0.20000907650E+02 -0.19275244381E+03  0.20230693281E+03  0.00000000000E+00 0.  1.
<mgrwt>
<rscale>  2 0.18305084E+03</rscale>
<asrwt>0</asrwt>
<pdfrwt beam="1">  1       21 0.53706120E-02 0.18328621E+03</pdfrwt>
<pdfrwt beam="2">  1       21 0.20349609E+00 0.18328621E+03</pdfrwt>
<totfact> 0.30589402E+04</totfact>
</mgrwt>
</event>
<event>
12    1  0.1013215E-001  0.1752608E+03  0.7546771E-02  0.1173183E+00
         21   -1    0    0  503  502  0.00000000000E+00  0.00000000000E+00  0.40310234822E+03  0.40310234822E+03  0.00000000000E+00 0.  1.
         21   -1    0    0  501  503 -0.00000000000E+00 -0.00000000000E+00 -0.11143928532E+03  0.11143928532E+03  0.00000000000E+00 0.  1.
          6    2    1    2  501    0  0.37306904258E+01 -0.20290965747E+02 -0.52676886289E+00  0.17526161042E+03  0.17404227435E+03 0.  0.
         24    2    3    3    0    0  0.34533087361E+02 -0.62124278928E+02 -0.32038660774E+02  0.11431980966E+03  0.83609706025E+02 0.  0.
         -6    2    1    2    0  502 -0.37306904258E+01  0.20290965747E+02  0.29218983177E+03  0.33928002311E+03  0.17120278897E+03 0.  0.
        -24    2    5    5    0    0 -0.30469241126E+02  0.42510886844E+02  0.83506261800E+02  0.12766812042E+03  0.81180681544E+02 0.  0.
          5    1    3    3  501    0 -0.30802396935E+02  0.41833313181E+02  0.31511891911E+02  0.60941800765E+02  0.47000000000E+01 0. -1.
        -13    1    4    4    0    0  0.23770357122E+02 -0.77817732366E+02 -0.53516829175E+01  0.81543055243E+02  0.00000000000E+00 0.  1.
         14    1    4    4    0    0  0.10762730239E+02  0.15693453438E+02 -0.26686977856E+02  0.32776754417E+02  0.00000000000E+00 0. -1.
         -5    1    5    5    0  502  0.26738550700E+02 -0.22219921097E+02  0.20868356997E+03  0.21161190270E+03  0.47000000000E+01 0.  1.
         13    1    6    6    0    0 -0.49521088977E+02  0.86099882602E+01  0.70659400607E+02  0.86713442127E+02  0.00000000000E+00 0. -1.
        -14    1    6    6    0    0  0.19051847852E+02  0.33900898583E+02  0.12846861192E+02  0.40954678290E+02  0.00000000000E+00 0.  1.
<mgrwt>
<rscale>  2 0.17455167E+03</rscale>
<asrwt>0</asrwt>
<pdfrwt beam="1">  1       21 0.62015745E-01 0.17526082E+03</pdfrwt>
<pdfrwt beam="2">  1       21 0.17144506E-01 0.17526082E+03</pdfrwt>
<totfact> 0.74673654E+04</totfact>
</mgrwt>
</event>
<event>
12    1  0.1013215E-001  0.1873933E+03  0.7546771E-02  0.1160938E+00
         21   -1    0    0  503  502  0.00000000000E+00  0.00000000000E+00  0.70184496289E+03  0.70184496289E+03  0.00000000000E+00 0.  1.
         21   -1    0    0  501  503 -0.00000000000E+00 -0.00000000000E+00 -0.17112175567E+03  0.17112175567E+03  0.00000000000E+00 0. -1.
          6    2    1    2  501    0  0.70064713764E+02 -0.10707357626E+02 -0.10189607103E+03  0.21330509057E+03  0.17347201720E+03 0.  0.
         24    2    3    3    0    0 -0.25585178036E+02 -0.25917468377E+02 -0.32821162222E+02  0.94251815536E+02  0.80497574746E+02 0.  0.
         -6    2    1    2    0  502 -0.70064713764E+02  0.10707357626E+02  0.63261927824E+03  0.65966162799E+03  0.17298150367E+03 0.  0.
        -24    2    5    5    0    0 -0.22064837284E+02  0.70023049126E+02  0.36569618735E+03  0.38200650765E+03  0.82493551192E+02 0.  0.
          5    1    3    3  501    0  0.95649891801E+02  0.15210110751E+02 -0.69074908804E+02  0.11905327504E+03  0.47000000000E+01 0. -1.
        -11    1    4    4    0    0 -0.50879456543E+01  0.53287276776E+00  0.26043191080E+02  0.26540891959E+02  0.00000000000E+00 0.  1.
         12    1    4    4    0    0 -0.20497232382E+02 -0.26450341144E+02 -0.58864353302E+02  0.67710923577E+02  0.00000000000E+00 0. -1.
         -5    1    5    5    0  502 -0.47999876481E+02 -0.59315691500E+02  0.26692309089E+03  0.27765512034E+03  0.47000000000E+01 0.  1.
         13    1    6    6    0    0 -0.11505994560E+02 -0.14929311789E+02  0.28917846448E+02  0.34518315493E+02  0.00000000000E+00 0. -1.
        -14    1    6    6    0    0 -0.10558842724E+02  0.84952360915E+02  0.33677834090E+03  0.34748819215E+03  0.00000000000E+00 0.  1.
<mgrwt>
<rscale>  2 0.18727971E+03</rscale>
<asrwt>0</asrwt>
<pdfrwt beam="1">  1       21 0.10797615E+00 0.18739331E+03</pdfrwt>
<pdfrwt beam="2">  1       21 0.26326424E-01 0.18739331E+03</pdfrwt>
<totfact> 0.94070815E+03</totfact>
</mgrwt>
</event>
<event>
12    1  0.1013215E-001  0.2372398E+03  0.7546771E-02  0.1122752E+00
         21   -1    0    0  501  502  0.00000000000E+00  0.00000000000E+00  0.10094295707E+04  0.10094295707E+04  0.00000000000E+00 0.  1.
         21   -1    0    0  502  503 -0.00000000000E+00 -0.00000000000E+00 -0.10574515820E+03  0.10574515820E+03  0.00000000000E+00 0.  1.
         -6    2    1    2    0  503 -0.80519383631E+02 -0.14107502793E+03  0.59566794348E+02  0.23835246114E+03  0.16394559494E+03 0.  0.
        -24    2    3    3    0    0 -0.53887601044E+02 -0.16119194443E+03  0.73376716923E+02  0.20192793459E+03  0.80647577054E+02 0.  0.
          6    2    1    2  501    0  0.80519383631E+02  0.14107502793E+03  0.84411761817E+03  0.87682226777E+03  0.17290807187E+03 0.  0.
         24    2    5    5    0    0  0.10208327341E+03  0.60599674009E+02  0.65217570955E+03  0.66752565954E+03  0.78511367515E+02 0.  0.
          5    1    5    5  501    0 -0.21563889780E+02  0.80475353919E+02  0.19194190862E+03  0.20929660823E+03  0.47000000000E+01 0. -1.
        -13    1    6    6    0    0  0.11684033939E+02  0.43874707145E+02  0.14042423207E+03  0.14758208404E+03  0.00000000000E+00 0.  1.
         14    1    6    6    0    0  0.90399239472E+02  0.16724966864E+02  0.51175147747E+03  0.51994357551E+03  0.00000000000E+00 0. -1.
         -5    1    3    3    0  503 -0.26631782587E+02  0.20116916502E+02 -0.13809922575E+02  0.36424526556E+02  0.47000000000E+01 0.  1.
         13    1    4    4    0    0 -0.59745205557E+02 -0.57015558121E+02  0.43774483122E+02  0.93469079526E+02  0.00000000000E+00 0. -1.
        -14    1    4    4    0    0  0.58576045128E+01 -0.10417638631E+03  0.29602233801E+02  0.10845885506E+03  0.00000000000E+00 0.  1.
<mgrwt>
<rscale>  2 0.23561048E+03</rscale>
<asrwt>0</asrwt>
<pdfrwt beam="1">  1       21 0.15529685E+00 0.23723983E+03</pdfrwt>
<pdfrwt beam="2">  1       21 0.16268487E-01 0.23723983E+03</pdfrwt>
<totfact> 0.89296939E+03</totfact>
</mgrwt>
</event>
<event>
12    1  0.1013215E-001  0.1932783E+03  0.7546771E-02  0.1155796E+00
         21   -1    0    0  501  502  0.00000000000E+00  0.00000000000E+00  0.15518928564E+03  0.15518928564E+03  0.00000000000E+00 0. -1.
         21   -1    0    0  502  503 -0.00000000000E+00 -0.00000000000E+00 -0.71308374785E+03  0.71308374785E+03  0.00000000000E+00 0. -1.
         -6    2    1    2    0  503 -0.69387568874E+01 -0.85731429478E+02 -0.63254906519E+03  0.66107790823E+03  0.17177792794E+03 0.  0.
        -24    2    3    3    0    0  0.38753442226E+02 -0.29892440016E+02 -0.51445005146E+03  0.52260322878E+03  0.77845308346E+02 0.  0.
          6    2    1    2  501    0  0.69387568874E+01  0.85731429478E+02  0.74654602975E+02  0.20719512526E+03  0.17308519820E+03 0.  0.
         24    2    5    5    0    0 -0.96339335558E+01  0.10347852100E+03  0.10490926103E+03  0.16811766807E+03  0.80355337622E+02 0.  0.
          5    1    5    5  501    0  0.16572690443E+02 -0.17747091520E+02 -0.30254658056E+02  0.39077457185E+02  0.47000000000E+01 0. -1.
        -11    1    6    6    0    0  0.34403860698E+02  0.53151976820E+02  0.39810365113E+02  0.74790530425E+02  0.00000000000E+00 0.  1.
         12    1    6    6    0    0 -0.44037794254E+02  0.50326544178E+02  0.65098895918E+02  0.93327137647E+02  0.00000000000E+00 0. -1.
         -5    1    3    3    0  503 -0.45692199114E+02 -0.55838989462E+02 -0.11809901373E+03  0.13847467945E+03  0.47000000000E+01 0.  1.
         11    1    4    4    0    0  0.55648775937E+02 -0.49288941572E+01 -0.23580988305E+03  0.24233732937E+03  0.00000000000E+00 0. -1.
        -12    1    4    4    0    0 -0.16895333710E+02 -0.24963545859E+02 -0.27864016841E+03  0.28026589941E+03  0.00000000000E+00 0.  1.
<mgrwt>
<rscale>  2 0.19298520E+03</rscale>
<asrwt>0</asrwt>
<pdfrwt beam="1">  1       21 0.23875275E-01 0.19327832E+03</pdfrwt>
<pdfrwt beam="2">  1       21 0.10970519E+00 0.19327832E+03</pdfrwt>
<totfact> 0.10865142E+04</totfact>
</mgrwt>
</event>
<event>
12    1  0.1013215E-001  0.1983251E+03  0.7546771E-02  0.1151687E+00
         21   -1    0    0  501  502  0.00000000000E+00  0.00000000000E+00  0.25025642758E+03  0.25025642758E+03  0.00000000000E+00 0.  1.
         21   -1    0    0  502  503 -0.00000000000E+00 -0.00000000000E+00 -0.67676448363E+03  0.67676448363E+03  0.00000000000E+00 0.  1.
         -6    2    1    2    0  503  0.15477554557E+02 -0.90150392190E+02 -0.62045139949E+03  0.65137760618E+03  0.17597215348E+03 0.  0.
        -24    2    3    3    0    0  0.73955608294E+02 -0.57159486143E+02 -0.31799588988E+03  0.34152359549E+03  0.82342828709E+02 0.  0.
          6    2    1    2  501    0 -0.15477554557E+02  0.90150392190E+02  0.19394334344E+03  0.27564330502E+03  0.17320093312E+03 0.  0.
         24    2    5    5    0    0 -0.62195488797E+01 -0.14195744645E+02  0.45585226786E+02  0.93967638744E+02  0.80695119280E+02 0.  0.
          5    1    5    5  501    0 -0.92580056773E+01  0.10434613683E+03  0.14835811665E+03  0.18167566628E+03  0.47000000000E+01 0. -1.
        -13    1    6    6    0    0  0.26493880530E+02 -0.23194305396E+02  0.48477207112E+02  0.59916117345E+02  0.00000000000E+00 0.  1.
         14    1    6    6    0    0 -0.32713429410E+02  0.89985607515E+01 -0.28919803251E+01  0.34051521399E+02  0.00000000000E+00 0. -1.
         -5    1    3    3    0  503 -0.58478053737E+02 -0.32990906047E+02 -0.30245550960E+03  0.30985401069E+03  0.47000000000E+01 0.  1.
         11    1    4    4    0    0  0.64462117902E+02 -0.26890675779E+01 -0.21693844438E+03  0.22632915053E+03  0.00000000000E+00 0. -1.
        -12    1    4    4    0    0  0.94934903923E+01 -0.54470418565E+02 -0.10105744550E+03  0.11519444496E+03  0.00000000000E+00 0.  1.
<mgrwt>
<rscale>  2 0.19770856E+03</rscale>
<asrwt>0</asrwt>
<pdfrwt beam="1">  1       21 0.38500989E-01 0.19832510E+03</pdfrwt>
<pdfrwt beam="2">  1       21 0.10411761E+00 0.19832510E+03</pdfrwt>
<totfact> 0.48281176E+03</totfact>
</mgrwt>
</event>
<event>
12    1  0.1013215E-001  0.1898064E+03  0.7546771E-02  0.1158773E+00
         21   -1    0    0  503  502  0.00000000000E+00  0.00000000000E+00  0.15365533519E+03  0.15365533519E+03  0.00000000000E+00 0. -1.
         21   -1    0    0  501  503 -0.00000000000E+00 -0.00000000000E+00 -0.23413705488E+03  0.23413705488E+03  0.00000000000E+00 0. -1.
          6    2    1    2  501    0 -0.37901234655E+02  0.79051265632E+02 -0.31958527486E+02  0.19188175533E+03  0.16766530459E+03 0.  0.
         24    2    3    3    0    0  0.36571257541E+02  0.68633301016E+02 -0.35060682579E+01  0.11134407150E+03  0.79606675960E+02 0.  0.
         -6    2    1    2    0  502  0.37901234655E+02 -0.79051265632E+02 -0.48523192205E+02  0.19591063474E+03  0.16834746935E+03 0.  0.
        -24    2    5    5    0    0 -0.48003429743E+02 -0.38752251225E+02 -0.75255548429E+01  0.92438328317E+02  0.68426196185E+02 0.  0.
          5    1    3    3  501    0 -0.74472492196E+02  0.10417964616E+02 -0.28452459228E+02  0.80537683830E+02  0.47000000000E+01 0. -1.
        -11    1    4    4    0    0 -0.40483686802E+01  0.67031176825E+02  0.11266587154E+02  0.68091878676E+02  0.00000000000E+00 0.  1.
         12    1    4    4    0    0  0.40619626221E+02  0.16021241907E+01 -0.14772655411E+02  0.43252192825E+02  0.00000000000E+00 0. -1.
         -5    1    5    5    0  502  0.85904664398E+02 -0.40299014407E+02 -0.40997637362E+02  0.10347230642E+03  0.47000000000E+01 0.  1.
         11    1    6    6    0    0 -0.19215680992E+02 -0.37170571668E+02  0.25182710265E+02  0.48837103624E+02  0.00000000000E+00 0. -1.
        -12    1    6    6    0    0 -0.28787748751E+02 -0.15816795569E+01 -0.32708265108E+02  0.43601224693E+02  0.00000000000E+00 0.  1.
<mgrwt>
<rscale>  2 0.18965504E+03</rscale>
<asrwt>0</asrwt>
<pdfrwt beam="1">  1       21 0.23639282E-01 0.18980642E+03</pdfrwt>
<pdfrwt beam="2">  1       21 0.36021085E-01 0.18980642E+03</pdfrwt>
<totfact> 0.12535323E+05</totfact>
</mgrwt>
</event>
<event>
12    1  0.1013215E-001  0.1740361E+03  0.7546771E-02  0.1174429E+00
         21   -1    0    0  503  502  0.00000000000E+00  0.00000000000E+00  0.48629380141E+03  0.48629380141E+03  0.00000000000E+00 0.  1.
         21   -1    0    0  501  503 -0.00000000000E+00 -0.00000000000E+00 -0.61736980173E+02  0.61736980173E+02  0.00000000000E+00 0.  1.
          6    2    1    2  501    0  0.23640929126E+02  0.38517941975E+01  0.18672161636E+03  0.25332048104E+03  0.16950685606E+03 0.  0.
         24    2    3    3    0    0  0.65496641831E+02 -0.31849193039E+02  0.15859971827E+03  0.19135765083E+03  0.78483748046E+02 0.  0.
         -6    2    1    2    0  502 -0.23640929126E+02 -0.38517941975E+01  0.23783520489E+03  0.29471030055E+03  0.17237994871E+03 0.  0.
        -24    2    5    5    0    0  0.30189922742E+02  0.54403400844E+02  0.85511985298E+02  0.12290843331E+03  0.62634031401E+02 0.  0.
          5    1    3    3  501    0 -0.41855712705E+02  0.35700987236E+02  0.28121898083E+02  0.61962830208E+02  0.47000000000E+01 0. -1.
        -13    1    4    4    0    0  0.13274861267E+02  0.13679031592E+02  0.86814914678E+00  0.19081182613E+02  0.00000000000E+00 0.  1.
         14    1    4    4    0    0  0.52221780564E+02 -0.45528224630E+02  0.15773156913E+03  0.17227646822E+03  0.00000000000E+00 0. -1.
         -5    1    5    5    0  502 -0.53830851868E+02 -0.58255195042E+02  0.15232321959E+03  0.17180186724E+03  0.47000000000E+01 0.  1.
         11    1    6    6    0    0  0.37221967308E+02  0.40642895301E+02  0.91102334680E+02  0.10647513875E+03  0.00000000000E+00 0. -1.
        -12    1    6    6    0    0 -0.70320445666E+01  0.13760505544E+02 -0.55903493816E+01  0.16433294551E+02  0.00000000000E+00 0.  1.
<mgrwt>
<rscale>  2 0.17332041E+03</rscale>
<asrwt>0</asrwt>
<pdfrwt beam="1">  1       21 0.74814429E-01 0.17403614E+03</pdfrwt>
<pdfrwt beam="2">  1       21 0.94979973E-02 0.17403614E+03</pdfrwt>
<totfact> 0.14299089E+05</totfact>
</mgrwt>
</event>
<event>
12    1  0.1013215E-001  0.2158946E+03  0.7546771E-02  0.1140023E+00
         21   -1    0    0  503  502  0.00000000000E+00  0.00000000000E+00  0.45064923802E+03  0.45064923802E+03  0.00000000000E+00 0. -1.
         21   -1    0    0  501  503 -0.00000000000E+00 -0.00000000000E+00 -0.98107851029E+02  0.98107851029E+02  0.00000000000E+00 0. -1.
          6    2    1    2  501    0  0.64264950812E+02 -0.85523880089E+02  0.13192483536E+03  0.24007901868E+03  0.16967455630E+03 0.  0.
         24    2    3    3    0    0 -0.35594061877E+02 -0.23939945427E+02  0.60302411857E+02  0.10254260542E+03  0.70982721999E+02 0.  0.
         -6    2    1    2    0  502 -0.64264950812E+02  0.85523880089E+02  0.22061655163E+03  0.30867807037E+03  0.18752645229E+03 0.  0.
        -24    2    5    5    0    0  0.41783375686E+02  0.50660580705E+02  0.11703066069E+03  0.15631723551E+03  0.80165813511E+02 0.  0.
          5    1    3    3  501    0  0.99859012689E+02 -0.61583934662E+02  0.71622423503E+02  0.13753641326E+03  0.47000000000E+01 0. -1.
        -13    1    4    4    0    0  0.14083182798E+02  0.12111174565E+02  0.26820413579E+02  0.32624395345E+02  0.00000000000E+00 0.  1.
         14    1    4    4    0    0 -0.49677244675E+02 -0.36051119993E+02  0.33481998278E+02  0.69918210074E+02  0.00000000000E+00 0. -1.
         -5    1    5    5    0  502 -0.10604832650E+03  0.34863299384E+02  0.10358589094E+03  0.15236083486E+03  0.47000000000E+01 0.  1.
         11    1    6    6    0    0  0.13955089552E+02  0.51772033263E+02  0.23169960011E+02  0.58411771069E+02  0.00000000000E+00 0. -1.
        -12    1    6    6    0    0  0.27828286133E+02 -0.11114525578E+01  0.93860700680E+02  0.97905464445E+02  0.00000000000E+00 0.  1.
<mgrwt>
<rscale>  2 0.21196064E+03</rscale>
<asrwt>0</asrwt>
<pdfrwt beam="1">  1       21 0.69330651E-01 0.21589462E+03</pdfrwt>
<pdfrwt beam="2">  1       21 0.15093516E-01 0.21589462E+03</pdfrwt>
<totfact> 0.72656534E+04</totfact>
</mgrwt>
</event>
<event>
12    1  0.1013215E-001  0.3601456E+03  0.7546771E-02  0.1058529E+00
         21   -1    0    0  501  502  0.00000000000E+00  0.00000000000E+00  0.17239339721E+03  0.17239339721E+03  0.00000000000E+00 0.  1.
         21   -1    0    0  502  503 -0.00000000000E+00 -0.00000000000E+00 -0.76407223388E+03  0.76407223388E+03  0.00000000000E+00 0. -1.
         -6    2    1    2    0  503 -0.15903359512E+02 -0.31544677175E+03 -0.35390405644E+03  0.50490837228E+03  0.17298786253E+03 0.  0.
        -24    2    3    3    0    0 -0.18593526295E+02 -0.32843709580E+03 -0.35499511688E+03  0.49079221384E+03  0.81478948409E+02 0.  0.
          6    2    1    2  501    0  0.15903359512E+02  0.31544677175E+03 -0.23777478023E+03  0.43155725881E+03  0.17304692677E+03 0.  0.
         24    2    5    5    0    0  0.12872675158E+02  0.85915323595E+02 -0.32703520787E+02  0.12370959812E+03  0.81776499077E+02 0.  0.
          5    1    5    5  501    0  0.30306843539E+01  0.22953144816E+03 -0.20507125944E+03  0.30784766069E+03  0.47000000000E+01 0. -1.
        -11    1    6    6    0    0 -0.47907907922E+01  0.71527554324E+02  0.12800127803E+02  0.72821603771E+02  0.00000000000E+00 0.  1.
         12    1    6    6    0    0  0.17663465950E+02  0.14387769271E+02 -0.45503648590E+02  0.50887994350E+02  0.00000000000E+00 0. -1.
         -5    1    3    3    0  503  0.26901667832E+01  0.12990324050E+02  0.10910604463E+01  0.14116158442E+02  0.47000000000E+01 0.  1.
         11    1    4    4    0    0 -0.21202344363E+02 -0.51392587118E+02 -0.28133043756E+02  0.62307347626E+02  0.00000000000E+00 0. -1.
        -12    1    4    4    0    0  0.26088180678E+01 -0.27704450868E+03 -0.32686207313E+03  0.42848486621E+03  0.00000000000E+00 0.  1.
<mgrwt>
<rscale>  2 0.36013846E+03</rscale>
<asrwt>0</asrwt>
<pdfrwt beam="1">  1       21 0.26522061E-01 0.36014556E+03</pdfrwt>
<pdfrwt beam="2">  1       21 0.11754957E+00 0.36014556E+03</pdfrwt>
<totfact> 0.68426434E+03</totfact>
</mgrwt>
</event>
<event>
12    1  0.1013215E-001  0.2228616E+03  0.7546771E-02  0.1131888E+00
         21   -1    0    0  501  502  0.00000000000E+00  0.00000000000E+00  0.48367433838E+03  0.48367433838E+03  0.00000000000E+00 0. -1.
         21   -1    0    0  502  503 -0.00000000000E+00 -0.00000000000E+00 -0.12807298457E+03  0.12807298457E+03  0.00000000000E+00 0.  1.
         -6    2    1    2    0  503 -0.11320203037E+03  0.83299322429E+02  0.41021949598E+02  0.22660562640E+03  0.17295615852E+03 0.  0.
        -24    2    3    3    0    0 -0.49164726180E+02  0.49842256072E+02  0.91165561982E+02  0.13853393128E+03  0.77324443968E+02 0.  0.
          6    2    1    2  501    0  0.11320203037E+03 -0.83299322429E+02  0.31457940421E+03  0.38514169656E+03  0.17210592109E+03 0.  0.
         24    2    5    5    0    0  0.10380403051E+03 -0.15329674651E+02  0.11702160462E+03  0.17595429350E+03  0.79092235886E+02 0.  0.
          5    1    5    5  501    0  0.93979998631E+01 -0.67969647779E+02  0.19755779959E+03  0.20918740306E+03  0.47000000000E+01 0. -1.
        -11    1    6    6    0    0  0.56057961143E+02 -0.42132223048E+02  0.37836330170E+02  0.79681912045E+02  0.00000000000E+00 0.  1.
         12    1    6    6    0    0  0.47746069363E+02  0.26802548397E+02  0.79185274455E+02  0.96272381454E+02  0.00000000000E+00 0. -1.
         -5    1    3    3    0  503 -0.64037304188E+02  0.33457066357E+02 -0.50143612384E+02  0.88071695112E+02  0.47000000000E+01 0.  1.
         11    1    4    4    0    0 -0.61256609120E+02  0.92835061387E+01  0.52511243017E+02  0.81215677614E+02  0.00000000000E+00 0. -1.
        -12    1    4    4    0    0  0.12091882940E+02  0.40558749934E+02  0.38654318965E+02  0.57318253671E+02  0.00000000000E+00 0.  1.
<mgrwt>
<rscale>  2 0.22269666E+03</rscale>
<asrwt>0</asrwt>
<pdfrwt beam="1">  1       21 0.74411436E-01 0.22286164E+03</pdfrwt>
<pdfrwt beam="2">  1       21 0.19703536E-01 0.22286164E+03</pdfrwt>
<totfact> 0.37818142E+04</totfact>
</mgrwt>
</event>
<event>
11    1  0.1013215E-001  0.2060277E+03  0.7546771E-02  0.1145846E+00
         21   -1    0    0  503  502  0.00000000000E+00  0.00000000000E+00  0.10670972012E+04  0.10670972012E+04  0.00000000000E+00 0. -1.
         21   -1    0    0  501  503 -0.00000000000E+00 -0.00000000000E+00 -0.43289788176E+02  0.43289788176E+02  0.00000000000E+00 0. -1.
          6    2    1    2  501    0  0.82953111724E+02  0.65079132442E+02  0.33827233822E+03  0.39607524263E+03  0.17700539765E+03 0.  0.
         -6    2    1    2    0  502 -0.82953111724E+02 -0.65079132442E+02  0.68553507483E+03  0.71431174677E+03  0.17078179214E+03 0.  0.
        -24    2    4    4    0    0 -0.11918117984E+03 -0.68367738746E+02  0.60628685790E+03  0.62698673468E+03  0.81549433281E+02 0.  0.
          5    1    3    3  501    0  0.76260814114E+02  0.11190804530E+03  0.18346409181E+03  0.22807955927E+03  0.47000000000E+01 0. -1.
        -11    1    3    3    0    0 -0.67046230828E+01 -0.28584394382E+02  0.13423427604E+03  0.13740764330E+03  0.00000000000E+00 0.  1.
         12    1    3    3    0    0  0.13396920693E+02 -0.18244518471E+02  0.20573970367E+02  0.30588040064E+02  0.00000000000E+00 0. -1.
         -5    1    4    4    0  502  0.36228068115E+02  0.32886063046E+01  0.79248216932E+02  0.87325012096E+02  0.47000000000E+01 0.  1.
         13    1    5    5    0    0 -0.96399871355E+02 -0.37175232007E+02  0.54377939315E+03  0.55350786940E+03  0.00000000000E+00 0. -1.
        -14    1    5    5    0    0 -0.22781308484E+02 -0.31192506739E+02  0.62507464749E+02  0.73478865276E+02  0.00000000000E+00 0.  1.
<mgrwt>
<rscale>  2 0.20468423E+03</rscale>
<asrwt>0</asrwt>
<pdfrwt beam="1">  1       21 0.16416878E+00 0.20602772E+03</pdfrwt>
<pdfrwt beam="2">  1       21 0.66599682E-02 0.20602772E+03</pdfrwt>
<totfact> 0.38377292E+04</totfact>
</mgrwt>
</event>
<event>
12    1  0.1013215E-001  0.1844305E+03  0.7546771E-02  0.1164052E+00
         21   -1    0    0  501  502  0.00000000000E+00  0.00000000000E+00  0.42438785436E+02  0.42438785436E+02  0.00000000000E+00 0.  1.
         21   -1    0    0  502  503 -0.00000000000E+00 -0.00000000000E+00 -0.85289215977E+03  0.85289215977E+03  0.00000000000E+00 0.  1.
         -6    2    1    2    0  503 -0.33671499226E+01 -0.58318111865E+02 -0.52193375915E+03  0.55290111029E+03  0.17283648036E+03 0.  0.
        -24    2    3    3    0    0 -0.30592847871E+01 -0.10592208601E+03 -0.41566435674E+03  0.43636137876E+03  0.80034666748E+02 0.  0.
          6    2    1    2  501    0  0.33671499226E+01  0.58318111865E+02 -0.28851961518E+03  0.34242983492E+03  0.17493508404E+03 0.  0.
         24    2    5    5    0    0  0.54151190794E+02 -0.24250743837E+01 -0.20295256806E+03  0.22575694588E+03  0.82693538332E+02 0.  0.
          5    1    5    5  501    0 -0.50784040871E+02  0.60743186249E+02 -0.85567047118E+02  0.11667288903E+03  0.47000000000E+01 0. -1.
        -13    1    6    6    0    0  0.23151795006E+02  0.34089121825E+01 -0.19035949630E+03  0.19179250279E+03  0.00000000000E+00 0.  1.
         14    1    6    6    0    0  0.30999395788E+02 -0.58339865662E+01 -0.12593071763E+02  0.33964443097E+02  0.00000000000E+00 0. -1.
         -5    1    3    3    0  503 -0.30786513549E+00  0.47603974144E+02 -0.10626940241E+03  0.11653973153E+03  0.47000000000E+01 0.  1.
         13    1    4    4    0    0  0.32035203605E+02 -0.86053141872E+02 -0.30780455775E+03  0.32120872228E+03  0.00000000000E+00 0. -1.
        -14    1    4    4    0    0 -0.35094488392E+02 -0.19868944137E+02 -0.10785979899E+03  0.11515265649E+03  0.00000000000E+00 0.  1.
<mgrwt>
<rscale>  2 0.18393118E+03</rscale>
<asrwt>0</asrwt>
<pdfrwt beam="1">  1       21 0.65290445E-02 0.18443054E+03</pdfrwt>
<pdfrwt beam="2">  1       21 0.13121417E+00 0.18443054E+03</pdfrwt>
<totfact> 0.72302655E+04</totfact>
</mgrwt>
</event>
<event>
12    1  0.1013215E-001  0.1865408E+03  0.7546771E-02  0.1161664E+00
         21   -1    0    0  503  502  0.00000000000E+00  0.00000000000E+00  0.17552729414E+04  0.17552729414E+04  0.00000000000E+00 0.  1.
         21   -1    0    0  501  503 -0.00000000000E+00 -0.00000000000E+00 -0.32024475026E+02  0.32024475026E+02  0.00000000000E+00 0.  1.
          6    2    1    2  501    0 -0.64742952583E+02  0.17536701463E+02  0.30985809206E+03  0.36167595260E+03  0.17406398728E+03 0.  0.
         24    2    3    3    0    0 -0.79454291460E+02  0.69444692739E+02  0.22087482413E+03  0.25750793917E+03  0.79931852360E+02 0.  0.
         -6    2    1    2    0  502  0.64742952583E+02 -0.17536701463E+02  0.14133903743E+04  0.14256214638E+04  0.17385345010E+03 0.  0.
        -24    2    5    5    0    0  0.78498709211E+02 -0.55295806459E+02  0.68592559749E+03  0.69703237362E+03  0.78361540443E+02 0.  0.
          5    1    3    3  501    0  0.14711338877E+02 -0.51907991276E+02  0.88983267929E+02  0.10416801343E+03  0.47000000000E+01 0. -1.
        -11    1    4    4    0    0 -0.60797455646E+02  0.23189584902E+02  0.57997863796E+02  0.87165587624E+02  0.00000000000E+00 0.  1.
         12    1    4    4    0    0 -0.18656835814E+02  0.46255107836E+02  0.16287696033E+03  0.17034235155E+03  0.00000000000E+00 0. -1.
         -5    1    5    5    0  502 -0.13755756628E+02  0.37759104996E+02  0.72746477682E+03  0.72858909020E+03  0.47000000000E+01 0.  1.
         11    1    6    6    0    0  0.14362571565E+02 -0.55842839056E+02  0.38970616241E+03  0.39394872656E+03  0.00000000000E+00 0. -1.
        -12    1    6    6    0    0  0.64136137646E+02  0.54703259737E+00  0.29621943508E+03  0.30308364706E+03  0.00000000000E+00 0.  1.
<mgrwt>
<rscale>  2 0.18649164E+03</rscale>
<asrwt>0</asrwt>
<pdfrwt beam="1">  1       21 0.27004192E+00 0.18654077E+03</pdfrwt>
<pdfrwt beam="2">  1       21 0.49268437E-02 0.18654077E+03</pdfrwt>
<totfact> 0.14095866E+04</totfact>
</mgrwt>
</event>
<event>
12    1  0.1013215E-001  0.1929914E+03  0.7546771E-02  0.1156256E+00
         21   -1    0    0  503  502  0.00000000000E+00  0.00000000000E+00  0.22172519126E+03  0.22172519126E+03  0.00000000000E+00 0.  1.
         21   -1    0    0  501  503 -0.00000000000E+00 -0.00000000000E+00 -0.16885747975E+03  0.16885747975E+03  0.00000000000E+00 0.  1.
          6    2    1    2  501    0  0.77900119306E+02  0.33244731935E+02  0.51242343934E+02  0.19967834435E+03  0.17341286746E+03 0.  0.
         24    2    3    3    0    0  0.37306816076E+02  0.21584844471E+02  0.94977223398E+02  0.13869802847E+03  0.91426287804E+02 0.  0.
         -6    2    1    2    0  502 -0.77900119306E+02 -0.33244731935E+02  0.16253675732E+01  0.19090432666E+03  0.17107945326E+03 0.  0.
        -24    2    5    5    0    0  0.48781333916E+01  0.10562974364E+02 -0.41249230373E+02  0.87794310655E+02  0.76622251104E+02 0.  0.
          5    1    3    3  501    0  0.40593303230E+02  0.11659887463E+02 -0.43734879464E+02  0.60980315877E+02  0.47000000000E+01 0. -1.
        -11    1    4    4    0    0  0.45041130566E+02  0.50655443449E+02  0.48550957743E+02  0.83377892102E+02  0.00000000000E+00 0.  1.
         12    1    4    4    0    0 -0.77343144900E+01 -0.29070598977E+02  0.46426265654E+02  0.55320136371E+02  0.00000000000E+00 0. -1.
         -5    1    5    5    0  502 -0.82778252698E+02 -0.43807706298E+02  0.42874597946E+02  0.10311001600E+03  0.47000000000E+01 0.  1.
         13    1    6    6    0    0 -0.59798991595E+01  0.41511742497E+02 -0.34504639304E+02  0.54309797391E+02  0.00000000000E+00 0. -1.
        -14    1    6    6    0    0  0.10858032551E+02 -0.30948768134E+02 -0.67445910687E+01  0.33484513264E+02  0.00000000000E+00 0.  1.
<mgrwt>
<rscale>  2 0.19246573E+03</rscale>
<asrwt>0</asrwt>
<pdfrwt beam="1">  1       21 0.34111568E-01 0.19299136E+03</pdfrwt>
<pdfrwt beam="2">  1       21 0.25978074E-01 0.19299136E+03</pdfrwt>
<totfact> 0.11654275E+05</totfact>
</mgrwt>
</event>
<event>
12    1  0.1013215E-001  0.1792013E+03  0.7546771E-02  0.1168848E+00
         21   -1    0    0  503  502  0.00000000000E+00  0.00000000000E+00  0.63923227017E+03  0.63923227017E+03  0.00000000000E+00 0.  1.
         21   -1    0    0  501  503 -0.00000000000E+00 -0.00000000000E+00 -0.52709842156E+02  0.52709842156E+02  0.00000000000E+00 0.  1.
          6    2    1    2  501    0 -0.19625509810E+02  0.42057119419E+02  0.37189127809E+03  0.41233587609E+03  0.17194124015E+03 0.  0.
         24    2    3    3    0    0 -0.33864848120E+02  0.67370107887E+02  0.36616033284E+03  0.38236188947E+03  0.80259988764E+02 0.  0.
         -6    2    1    2    0  502  0.19625509810E+02 -0.42057119419E+02  0.21463114992E+03  0.27960623623E+03  0.17308713093E+03 0.  0.
        -24    2    5    5    0    0 -0.49043068707E+02 -0.59626982665E+01  0.74898631371E+02  0.11971424877E+03  0.79252255604E+02 0.  0.
          5    1    3    3  501    0  0.14239338310E+02 -0.25312988467E+02  0.57309452465E+01  0.29973986623E+02  0.47000000000E+01 0. -1.
        -13    1    4    4    0    0 -0.44000908746E+02  0.21027671020E+02  0.91983940744E+02  0.10411190265E+03  0.00000000000E+00 0.  1.
         14    1    4    4    0    0  0.10136060626E+02  0.46342436867E+02  0.27417639210E+03  0.27824998682E+03  0.00000000000E+00 0. -1.
         -5    1    5    5    0  502  0.68668578518E+02 -0.36094421153E+02  0.13973251855E+03  0.15989198746E+03  0.47000000000E+01 0.  1.
         11    1    6    6    0    0 -0.63377846162E+02 -0.47827517835E+01  0.81939537363E+02  0.10370011515E+03  0.00000000000E+00 0. -1.
        -12    1    6    6    0    0  0.14334777455E+02 -0.11799464830E+01 -0.70409059921E+01  0.16014133619E+02  0.00000000000E+00 0.  1.
<mgrwt>
<rscale>  2 0.17892405E+03</rscale>
<asrwt>0</asrwt>
<pdfrwt beam="1">  1       21 0.98343421E-01 0.17920133E+03</pdfrwt>
<pdfrwt beam="2">  1       21 0.81092069E-02 0.17920133E+03</pdfrwt>
<totfact> 0.10064671E+05</totfact>
</mgrwt>
</event>
<event>
12    1  0.1013215E-001  0.2259999E+03  0.7546771E-02  0.1129637E+00
         21   -1    0    0  501  502  0.00000000000E+00  0.00000000000E+00  0.69183620641E+03  0.69183620641E+03  0.00000000000E+00 0.  1.
         21   -1    0    0  502  503 -0.00000000000E+00 -0.00000000000E+00 -0.12523315054E+03  0.12523315054E+03  0.00000000000E+00 0.  1.
         -6    2    1    2    0  503 -0.10648965866E+03  0.99063099959E+02  0.21174977744E+02  0.22698972661E+03  0.17298095598E+03 0.  0.
        -24    2    3    3    0    0 -0.96783049585E+01  0.12437641284E+02 -0.26253429000E+02  0.88613601280E+02  0.83155055709E+02 0.  0.
          6    2    1    2  501    0  0.10648965866E+03 -0.99063099959E+02  0.54542807813E+03  0.59007963033E+03  0.17189716852E+03 0.  0.
         24    2    5    5    0    0  0.83520785210E+02 -0.12521848652E+03  0.51842107126E+03  0.54577227413E+03  0.80321710343E+02 0.  0.
          5    1    5    5  501    0  0.22968873447E+02  0.26155386561E+02  0.27007006864E+02  0.44307356199E+02  0.47000000000E+01 0. -1.
        -13    1    6    6    0    0  0.58605626889E+02 -0.37599301385E+02  0.31930143152E+03  0.32680534135E+03  0.00000000000E+00 0.  1.
         14    1    6    6    0    0  0.24915158320E+02 -0.87619185135E+02  0.19911963974E+03  0.21896693278E+03  0.00000000000E+00 0. -1.
         -5    1    3    3    0  503 -0.96811353698E+02  0.86625458675E+02  0.47428406744E+02  0.13837612533E+03  0.47000000000E+01 0.  1.
         11    1    4    4    0    0  0.18070435936E+02 -0.22924450383E+02  0.10010909822E+02  0.30859186570E+02  0.00000000000E+00 0. -1.
        -12    1    4    4    0    0 -0.27748740895E+02  0.35362091667E+02 -0.36264338822E+02  0.57754414710E+02  0.00000000000E+00 0.  1.
<mgrwt>
<rscale>  2 0.22579250E+03</rscale>
<asrwt>0</asrwt>
<pdfrwt beam="1">  1       21 0.10643634E+00 0.22599990E+03</pdfrwt>
<pdfrwt beam="2">  1       21 0.19266639E-01 0.22599990E+03</pdfrwt>
<totfact> 0.17143896E+04</totfact>
</mgrwt>
</event>
<event>
12    1  0.1013215E-001  0.1887163E+03  0.7546771E-02  0.1159829E+00
         21   -1    0    0  503  502  0.00000000000E+00  0.00000000000E+00  0.20927928352E+03  0.20927928352E+03  0.00000000000E+00 0. -1.
         21   -1    0    0  501  503 -0.00000000000E+00 -0.00000000000E+00 -0.35282259554E+03  0.35282259554E+03  0.00000000000E+00 0. -1.
          6    2    1    2  501    0 -0.33487246543E+02 -0.70102709277E+02 -0.27435159989E+03  0.33248338348E+03  0.17099887251E+03 0.  0.
         24    2    3    3    0    0  0.25121332232E+02 -0.58309516710E+02 -0.79790010694E+02  0.12888980085E+03  0.78835613050E+02 0.  0.
         -6    2    1    2    0  502  0.33487246543E+02  0.70102709277E+02  0.13080828787E+03  0.22961849557E+03  0.17198273111E+03 0.  0.
        -24    2    5    5    0    0  0.27447146169E+02  0.91698941438E+01  0.14498122365E+03  0.16659268434E+03  0.76786290919E+02 0.  0.
          5    1    3    3  501    0 -0.58608578775E+02 -0.11793192567E+02 -0.19456158920E+03  0.20359358263E+03  0.47000000000E+01 0. -1.
        -13    1    4    4    0    0  0.30511690856E+02 -0.40695832427E+01 -0.65757137525E+02  0.72605274754E+02  0.00000000000E+00 0.  1.
         14    1    4    4    0    0 -0.53903586244E+01 -0.54239933468E+02 -0.14032873169E+02  0.56284526098E+02  0.00000000000E+00 0. -1.
         -5    1    5    5    0  502  0.60401003742E+01  0.60932815134E+02 -0.14172935774E+02  0.63025811229E+02  0.47000000000E+01 0.  1.
         13    1    6    6    0    0  0.48534792886E+02  0.13958979411E+02  0.57732717062E+02  0.76704275279E+02  0.00000000000E+00 0. -1.
        -14    1    6    6    0    0 -0.21087646717E+02 -0.47890852675E+01  0.87248506586E+02  0.89888409060E+02  0.00000000000E+00 0.  1.
<mgrwt>
<rscale>  2 0.18849186E+03</rscale>
<asrwt>0</asrwt>
<pdfrwt beam="1">  1       21 0.32196813E-01 0.18871631E+03</pdfrwt>
<pdfrwt beam="2">  1       21 0.54280399E-01 0.18871631E+03</pdfrwt>
<totfact> 0.29825917E+04</totfact>
</mgrwt>
</event>
<event>
12    1  0.1013215E-001  0.1791657E+03  0.7546771E-02  0.1168666E+00
         21   -1    0    0  501  502  0.00000000000E+00  0.00000000000E+00  0.25820062897E+03  0.25820062897E+03  0.00000000000E+00 0.  1.
         21   -1    0    0  502  503 -0.00000000000E+00 -0.00000000000E+00 -0.13173208617E+03  0.13173208617E+03  0.00000000000E+00 0.  1.
         -6    2    1    2    0  503 -0.38257760425E+02  0.30627804799E+02  0.16495667163E+02  0.17970814208E+03  0.17210807835E+03 0.  0.
        -24    2    3    3    0    0 -0.14807254898E+02  0.49568350577E+02  0.69571723274E+02  0.11848863362E+03  0.80765434688E+02 0.  0.
          6    2    1    2  501    0  0.38257760425E+02 -0.30627804799E+02  0.10997287564E+03  0.21022457307E+03  0.17233287291E+03 0.  0.
         24    2    5    5    0    0  0.80000725210E+02 -0.20839555008E+02  0.32377127587E+02  0.12144690099E+03  0.82865362380E+02 0.  0.
          5    1    5    5  501    0 -0.41742964785E+02 -0.97882497919E+01  0.77595748055E+02  0.88777672076E+02  0.47000000000E+01 0. -1.
        -13    1    6    6    0    0  0.54356931371E+02  0.21350811491E+02  0.40962757572E+02  0.71333587092E+02  0.00000000000E+00 0.  1.
         14    1    6    6    0    0  0.25643793839E+02 -0.42190366499E+02 -0.85856299850E+01  0.50113313899E+02  0.00000000000E+00 0. -1.
         -5    1    3    3    0  503 -0.23450505527E+02 -0.18940545777E+02 -0.53076056110E+02  0.61219508460E+02  0.47000000000E+01 0.  1.
         11    1    4    4    0    0 -0.12616665260E+02  0.49926556923E+02  0.26859425375E+01  0.51566031608E+02  0.00000000000E+00 0. -1.
        -12    1    4    4    0    0 -0.21905896382E+01 -0.35820634647E+00  0.66885780736E+02  0.66922602007E+02  0.00000000000E+00 0.  1.
<mgrwt>
<rscale>  2 0.17911159E+03</rscale>
<asrwt>0</asrwt>
<pdfrwt beam="1">  1       21 0.39723174E-01 0.17916567E+03</pdfrwt>
<pdfrwt beam="2">  1       21 0.20266475E-01 0.17916567E+03</pdfrwt>
<totfact> 0.13817997E+05</totfact>
</mgrwt>
</event>
<event>
11    1  0.1013215E-001  0.1803151E+03  0.7546771E-02  0.1167549E+00
         21   -1    0    0  503  502  0.00000000000E+00  0.00000000000E+00  0.33078457313E+02  0.33078457313E+02  0.00000000000E+00 0. -1.
         21   -1    0    0  501  503 -0.00000000000E+00 -0.00000000000E+00 -0.17747697791E+04  0.17747697791E+04  0.00000000000E+00 0. -1.
          6    2    1    2  501    0  0.35293195621E+02  0.35506120360E+02 -0.14753504014E+04  0.14863284785E+04  0.17322599348E+03 0.  0.
         -6    2    1    2    0  502 -0.35293195621E+02 -0.35506120360E+02 -0.26634092039E+03  0.32151975792E+03  0.17300628492E+03 0.  0.
        -24    2    4    4    0    0 -0.27963478843E+02  0.43382210690E+02 -0.10566068855E+03  0.14230669917E+03  0.80143890415E+02 0.  0.
          5    1    3    3  501    0  0.29895055629E+02  0.55459979798E+02 -0.39496284331E+03  0.39998407632E+03  0.47000000000E+01 0. -1.
        -13    1    3    3    0    0 -0.14027598735E+02  0.15857887499E+02 -0.40865554854E+02  0.46024338080E+02  0.00000000000E+00 0.  1.
         14    1    3    3    0    0  0.19425738727E+02 -0.35811746937E+02 -0.10395220032E+04  0.10403200641E+04  0.00000000000E+00 0. -1.
         -5    1    4    4    0  502 -0.73297167782E+01 -0.78888331050E+02 -0.16068023184E+03  0.17921305876E+03  0.47000000000E+01 0.  1.
         11    1    5    5    0    0  0.21975875976E+02 -0.79366031868E+01 -0.20911548922E+02  0.31356365755E+02  0.00000000000E+00 0. -1.
        -12    1    5    5    0    0 -0.49939354819E+02  0.51318813876E+02 -0.84749139624E+02  0.11095033341E+03  0.00000000000E+00 0.  1.
<mgrwt>
<rscale>  2 0.18026232E+03</rscale>
<asrwt>0</asrwt>
<pdfrwt beam="1">  1       21 0.50889932E-02 0.18031511E+03</pdfrwt>
<pdfrwt beam="2">  1       21 0.27304152E+00 0.18031511E+03</pdfrwt>
<totfact> 0.12903237E+04</totfact>
</mgrwt>
</event>
<event>
12    1  0.1013215E-001  0.4773106E+03  0.7546771E-02  0.1019895E+00
         21   -1    0    0  501  502  0.00000000000E+00  0.00000000000E+00  0.69817115165E+03  0.69817115165E+03  0.00000000000E+00 0. -1.
         21   -1    0    0  502  503 -0.00000000000E+00 -0.00000000000E+00 -0.33189563945E+03  0.33189563945E+03  0.00000000000E+00 0.  1.
         -6    2    1    2    0  503  0.42173318865E+03  0.14114111220E+03  0.11533185173E+03  0.49104667264E+03  0.17333696296E+03 0.  0.
        -24    2    3    3    0    0  0.13023785315E+03  0.94611819252E+02  0.22364940067E+02  0.18153182262E+03  0.80872228510E+02 0.  0.
          6    2    1    2  501    0 -0.42173318865E+03 -0.14114111220E+03  0.25094366047E+03  0.53902011846E+03  0.17259858462E+03 0.  0.
         24    2    5    5    0    0 -0.23545869152E+03 -0.15955261434E+02  0.16316420138E+03  0.29798690716E+03  0.80487728532E+02 0.  0.
          5    1    5    5  501    0 -0.18627449713E+03 -0.12518585076E+03  0.87779459086E+02  0.24103321130E+03  0.47000000000E+01 0. -1.
        -11    1    6    6    0    0 -0.65302336068E+02  0.52621292434E+01  0.90565712409E+02  0.11177760672E+03  0.00000000000E+00 0.  1.
         12    1    6    6    0    0 -0.17015635545E+03 -0.21217390677E+02  0.72598488975E+02  0.18620930043E+03  0.00000000000E+00 0. -1.
         -5    1    3    3    0  503  0.29149533550E+03  0.46529292945E+02  0.92966911667E+02  0.30951485002E+03  0.47000000000E+01 0.  1.
         13    1    4    4    0    0  0.99527683508E+02  0.86085080785E+02 -0.14972734830E+02  0.13244086872E+03  0.00000000000E+00 0. -1.
        -14    1    4    4    0    0  0.30710169643E+02  0.85267384673E+01  0.37337674898E+02  0.49090953904E+02  0.00000000000E+00 0.  1.
<mgrwt>
<rscale>  2 0.47724366E+03</rscale>
<asrwt>0</asrwt>
<pdfrwt beam="1">  1       21 0.10741095E+00 0.47731059E+03</pdfrwt>
<pdfrwt beam="2">  1       21 0.51060868E-01 0.47731059E+03</pdfrwt>
<totfact> 0.21563819E+03</totfact>
</mgrwt>
</event>
<event>
12    1  0.1013215E-001  0.1928143E+03  0.7546771E-02  0.1156256E+00
         21   -1    0    0  501  502  0.00000000000E+00  0.00000000000E+00  0.15731193520E+03  0.15731193520E+03  0.00000000000E+00 0.  1.
         21   -1    0    0  502  503 -0.00000000000E+00 -0.00000000000E+00 -0.33587104182E+03  0.33587104182E+03  0.00000000000E+00 0.  1.
         -6    2    1    2    0  503 -0.36061989513E+02 -0.75018877195E+02 -0.22443849460E+03  0.29498545860E+03  0.17238179690E+03 0.  0.
        -24    2    3    3    0    0  0.33687343352E+02 -0.80099548892E+02 -0.12670589457E+03  0.17471686848E+03  0.83191499436E+02 0.  0.
          6    2    1    2  501    0  0.36061989513E+02  0.75018877195E+02  0.45879387972E+02  0.19819751842E+03  0.17392250874E+03 0.  0.
         24    2    5    5    0    0  0.68183421251E+02  0.10369432384E+03  0.46600063979E+02  0.15487688833E+03  0.80086158897E+02 0.  0.
          5    1    5    5  501    0 -0.32121431738E+02 -0.28675446648E+02 -0.72067600622E+00  0.43320630088E+02  0.47000000000E+01 0. -1.
        -13    1    6    6    0    0  0.12105110491E+02  0.50871756008E+02 -0.16990496348E+02  0.54983144922E+02  0.00000000000E+00 0.  1.
         14    1    6    6    0    0  0.56078310761E+02  0.52822567834E+02  0.63590560327E+02  0.99893743413E+02  0.00000000000E+00 0. -1.
         -5    1    3    3    0  503 -0.69749332865E+02  0.50806716975E+01 -0.97732600028E+02  0.12026859011E+03  0.47000000000E+01 0.  1.
         13    1    4    4    0    0  0.20289427398E+02  0.12501607835E+02 -0.11976344985E+02  0.26671781002E+02  0.00000000000E+00 0. -1.
        -14    1    4    4    0    0  0.13397915954E+02 -0.92601156727E+02 -0.11472954958E+03  0.14804508748E+03  0.00000000000E+00 0.  1.
<mgrwt>
<rscale>  2 0.19246617E+03</rscale>
<asrwt>0</asrwt>
<pdfrwt beam="1">  1       21 0.24201836E-01 0.19281426E+03</pdfrwt>
<pdfrwt beam="2">  1       21 0.51672467E-01 0.19281426E+03</pdfrwt>
<totfact> 0.57316598E+04</totfact>
</mgrwt>
</event>
<event>
12    1  0.1013215E-001  0.2091701E+03  0.7546771E-02  0.1144390E+00
         21   -1    0    0  501  502  0.00000000000E+00  0.00000000000E+00  0.20760679790E+03  0.20760679790E+03  0.00000000000E+00 0.  1.
         21   -1    0    0  502  503 -0.00000000000E+00 -0.00000000000E+00 -0.84064304212E+03  0.84064304212E+03  0.00000000000E+00 0.  1.
         -6    2    1    2    0  503  0.93027207437E+02  0.27429194385E+02 -0.77199541921E+03  0.79712877647E+03  0.17329436510E+03 0.  0.
        -24    2    3    3    0    0  0.77739685292E+02 -0.35464633499E+02 -0.63207168923E+03  0.64288843762E+03  0.80558823210E+02 0.  0.
          6    2    1    2  501    0 -0.93027207437E+02 -0.27429194385E+02  0.13895917499E+03  0.25112106354E+03  0.18532596746E+03 0.  0.
         24    2    5    5    0    0 -0.11367727435E+03 -0.72555599427E+02  0.10347057716E+03  0.18992998354E+03  0.84737244467E+02 0.  0.
          5    1    5    5  501    0  0.20650066912E+02  0.45126405042E+02  0.35488597829E+02  0.61191079998E+02  0.47000000000E+01 0. -1.
        -13    1    6    6    0    0 -0.14013396475E+02  0.75303708255E+01 -0.10162114373E+02  0.18877243815E+02  0.00000000000E+00 0.  1.
         14    1    6    6    0    0 -0.99663877874E+02 -0.80085970253E+02  0.11363269153E+03  0.17105273973E+03  0.00000000000E+00 0. -1.
         -5    1    3    3    0  503  0.15287522145E+02  0.62893827884E+02 -0.13992372998E+03  0.15424033885E+03  0.47000000000E+01 0.  1.
         11    1    4    4    0    0 -0.70937465264E-01 -0.53856013392E+01 -0.51343492713E-01  0.53863132162E+01  0.00000000000E+00 0. -1.
        -12    1    4    4    0    0  0.77810622757E+02 -0.30079032160E+02 -0.63202034574E+03  0.63750212440E+03  0.00000000000E+00 0.  1.
<mgrwt>
<rscale>  2 0.20647297E+03</rscale>
<asrwt>0</asrwt>
<pdfrwt beam="1">  1       21 0.31939507E-01 0.20917011E+03</pdfrwt>
<pdfrwt beam="2">  1       21 0.12932970E+00 0.20917011E+03</pdfrwt>
<totfact> 0.40722411E+03</totfact>
</mgrwt>
</event>
<event>
12    1  0.1013215E-001  0.2241033E+03  0.7546771E-02  0.1131252E+00
         21   -1    0    0  503  502  0.00000000000E+00  0.00000000000E+00  0.50604104232E+03  0.50604104232E+03  0.00000000000E+00 0.  1.
         21   -1    0    0  501  503 -0.00000000000E+00 -0.00000000000E+00 -0.13319771607E+03  0.13319771607E+03  0.00000000000E+00 0. -1.
          6    2    1    2  501    0  0.53066006689E+02  0.13085887867E+03  0.34936030896E+03  0.41390846018E+03  0.17125285615E+03 0.  0.
         24    2    3    3    0    0  0.97342773318E+02  0.11629619629E+03  0.29980761067E+03  0.34571708471E+03  0.81457218549E+02 0.  0.
         -6    2    1    2    0  502 -0.53066006689E+02 -0.13085887867E+03  0.23483017288E+02  0.22533029822E+03  0.17401794161E+03 0.  0.
        -24    2    5    5    0    0 -0.93000518005E+02 -0.12148935714E+03 -0.62591751628E+01  0.17444571175E+03  0.83566553289E+02 0.  0.
          5    1    3    3  501    0 -0.44276766628E+02  0.14562682375E+02  0.49552698289E+02  0.68191375472E+02  0.47000000000E+01 0. -1.
        -11    1    4    4    0    0  0.57287028045E+01  0.64767009221E+02  0.14107320902E+03  0.15533587423E+03  0.00000000000E+00 0.  1.
         12    1    4    4    0    0  0.91614070513E+02  0.51529187073E+02  0.15873440165E+03  0.19038121048E+03  0.00000000000E+00 0. -1.
         -5    1    5    5    0  502  0.39934511315E+02 -0.93695215324E+01  0.29742192450E+02  0.50884586463E+02  0.47000000000E+01 0.  1.
         11    1    6    6    0    0 -0.14598603702E+02 -0.84363753174E+02  0.99594422629E+01  0.86194852340E+02  0.00000000000E+00 0. -1.
        -12    1    6    6    0    0 -0.78401914303E+02 -0.37125603962E+02 -0.16218617426E+02  0.88250859413E+02  0.00000000000E+00 0.  1.
<mgrwt>
<rscale>  2 0.22356631E+03</rscale>
<asrwt>0</asrwt>
<pdfrwt beam="1">  1       21 0.77852467E-01 0.22410330E+03</pdfrwt>
<pdfrwt beam="2">  1       21 0.20491957E-01 0.22410330E+03</pdfrwt>
<totfact> 0.31721321E+04</totfact>
</mgrwt>
</event>
<event>
12    1  0.1013215E-001  0.2592163E+03  0.7546771E-02  0.1108077E+00
         21   -1    0    0  501  502  0.00000000000E+00  0.00000000000E+00  0.85671018906E+02  0.85671018906E+02  0.00000000000E+00 0. -1.
         21   -1    0    0  502  503 -0.00000000000E+00 -0.00000000000E+00 -0.93331986484E+03  0.93331986484E+03  0.00000000000E+00 0.  1.
         -6    2    1    2    0  503  0.10477818663E+03 -0.15603818188E+03 -0.63150134286E+03  0.68148109646E+03  0.17405791050E+03 0.  0.
        -24    2    3    3    0    0  0.36746416715E+02 -0.19745417411E+02 -0.13692235283E+03  0.16395379599E+03  0.79955836954E+02 0.  0.
          6    2    1    2  501    0 -0.10477818663E+03  0.15603818188E+03 -0.21614750308E+03  0.33750978728E+03  0.17851255090E+03 0.  0.
         24    2    5    5    0    0 -0.58562733923E+02  0.17923471361E+03 -0.18309241280E+03  0.27595756437E+03  0.84113431391E+02 0.  0.
          5    1    5    5  501    0 -0.46215452702E+02 -0.23196531726E+02 -0.33055090281E+02  0.61552222918E+02  0.47000000000E+01 0. -1.
        -11    1    6    6    0    0 -0.66963158663E+02  0.86803247642E+02 -0.12588495854E+03  0.16693079766E+03  0.00000000000E+00 0.  1.
         12    1    6    6    0    0  0.84004247402E+01  0.92431465967E+02 -0.57207454252E+02  0.10902676671E+03  0.00000000000E+00 0. -1.
         -5    1    3    3    0  503  0.68031769910E+02 -0.13629276447E+03 -0.49457899002E+03  0.51752730047E+03  0.47000000000E+01 0.  1.
         13    1    4    4    0    0  0.99620769599E+01  0.64805162009E+01 -0.12360116653E+03  0.12417120615E+03  0.00000000000E+00 0. -1.
        -14    1    4    4    0    0  0.26784339755E+02 -0.26225933612E+02 -0.13321186300E+02  0.39782589840E+02  0.00000000000E+00 0.  1.
<mgrwt>
<rscale>  2 0.25845112E+03</rscale>
<asrwt>0</asrwt>
<pdfrwt beam="1">  1       21 0.13180157E-01 0.25921634E+03</pdfrwt>
<pdfrwt beam="2">  1       21 0.14358767E+00 0.25921634E+03</pdfrwt>
<totfact> 0.15950388E+04</totfact>
</mgrwt>
</event>
<event>
11    1  0.1013215E-001  0.1885179E+03  0.7546771E-02  0.1160922E+00
         21   -1    0    0  503  502  0.00000000000E+00  0.00000000000E+00  0.15638591538E+03  0.15638591538E+03  0.00000000000E+00 0. -1.
         21   -1    0    0  501  503 -0.00000000000E+00 -0.00000000000E+00 -0.29895069418E+03  0.29895069418E+03  0.00000000000E+00 0.  1.
          6    2    1    2  501    0 -0.58800912984E+02 -0.31065610730E+01 -0.18787415839E+03  0.26614978488E+03  0.17908604221E+03 0.  0.
         -6    2    1    2    0  502  0.58800912984E+02  0.31065610730E+01  0.45309379591E+02  0.18918682467E+03  0.17398711636E+03 0.  0.
        -24    2    4    4    0    0 -0.37022168679E+02  0.44989443564E+01  0.32365539632E+02  0.92369291633E+02  0.78062003607E+02 0.  0.
          5    1    3    3  501    0 -0.93202351562E+02 -0.28055804749E+02 -0.18543938537E+03  0.20948427665E+03  0.47000000000E+01 0. -1.
        -11    1    3    3    0    0 -0.58475861661E+01  0.82972955371E+01 -0.77686539507E+01  0.12782463041E+02  0.00000000000E+00 0.  1.
         12    1    3    3    0    0  0.40249024744E+02  0.16651948139E+02  0.53338809299E+01  0.43883045193E+02  0.00000000000E+00 0. -1.
         -5    1    4    4    0  502  0.95823081663E+02 -0.13923832834E+01  0.12943839959E+02  0.96817533037E+02  0.47000000000E+01 0.  1.
         13    1    5    5    0    0 -0.10536288253E+02 -0.14124573527E+02  0.51725488530E+02  0.54644698838E+02  0.00000000000E+00 0. -1.
        -14    1    5    5    0    0 -0.26485880425E+02  0.18623517884E+02 -0.19359948898E+02  0.37724592795E+02  0.00000000000E+00 0.  1.
<mgrwt>
<rscale>  2 0.18729689E+03</rscale>
<asrwt>0</asrwt>
<pdfrwt beam="1">  1       21 0.24059372E-01 0.18851793E+03</pdfrwt>
<pdfrwt beam="2">  1       21 0.45992414E-01 0.18851793E+03</pdfrwt>
<totfact> 0.73956562E+04</totfact>
</mgrwt>
</event>
<event>
12    1  0.1013215E-001  0.2430366E+03  0.7546771E-02  0.1118019E+00
         21   -1    0    0  503  502  0.00000000000E+00  0.00000000000E+00  0.67594733608E+03  0.67594733608E+03  0.00000000000E+00 0. -1.
         21   -1    0    0  501  503 -0.00000000000E+00 -0.00000000000E+00 -0.50220879604E+03  0.50220879604E+03  0.00000000000E+00 0. -1.
          6    2    1    2  501    0  0.16679650710E+03 -0.27562424866E+02 -0.44879600370E+03  0.51037695252E+03  0.17460245897E+03 0.  0.
         24    2    3    3    0    0  0.53724343750E+02 -0.64496035332E+01 -0.82771510520E+02  0.12667513475E+03  0.79167950036E+02 0.  0.
         -6    2    1    2    0  502 -0.16679650710E+03  0.27562424866E+02  0.62253454374E+03  0.66777917960E+03  0.17262390482E+03 0.  0.
        -24    2    5    5    0    0 -0.18843155740E+03  0.37480273780E+01  0.48602847625E+03  0.52745385263E+03  0.80395195087E+02 0.  0.
          5    1    3    3  501    0  0.11307216335E+03 -0.21112821333E+02 -0.36602449318E+03  0.38370181777E+03  0.47000000000E+01 0. -1.
        -11    1    4    4    0    0  0.19067171947E+02 -0.42070255226E+02 -0.39226826950E+02  0.60598740692E+02  0.00000000000E+00 0.  1.
         12    1    4    4    0    0  0.34657171803E+02  0.35620651693E+02 -0.43544683570E+02  0.66076394057E+02  0.00000000000E+00 0. -1.
         -5    1    5    5    0  502  0.21635050298E+02  0.23814397488E+02  0.13650606748E+03  0.14032532697E+03  0.47000000000E+01 0.  1.
         11    1    6    6    0    0 -0.60562813087E+02 -0.28571321949E+02  0.22859751017E+03  0.23820368684E+03  0.00000000000E+00 0. -1.
        -12    1    6    6    0    0 -0.12786874431E+03  0.32319349327E+02  0.25743096608E+03  0.28925016579E+03  0.00000000000E+00 0.  1.
<mgrwt>
<rscale>  2 0.24268143E+03</rscale>
<asrwt>0</asrwt>
<pdfrwt beam="1">  1       21 0.10399190E+00 0.24303658E+03</pdfrwt>
<pdfrwt beam="2">  1       21 0.77262891E-01 0.24303658E+03</pdfrwt>
<totfact> 0.10625714E+03</totfact>
</mgrwt>
</event>
<event>
12    1  0.1013215E-001  0.2518658E+03  0.7546771E-02  0.1112311E+00
         21   -1    0    0  503  502  0.00000000000E+00  0.00000000000E+00  0.13393105705E+04  0.13393105705E+04  0.00000000000E+00 0.  1.
         21   -1    0    0  501  503 -0.00000000000E+00 -0.00000000000E+00 -0.80517288064E+02  0.80517288064E+02  0.00000000000E+00 0. -1.
          6    2    1    2  501    0 -0.10527117590E+03  0.14859773365E+03  0.17155127558E+03  0.30379400498E+03  0.17233006234E+03 0.  0.
         24    2    3    3    0    0 -0.10869675355E+03  0.85111727542E+02  0.17859735284E+03  0.23965396477E+03  0.80486135395E+02 0.  0.
         -6    2    1    2    0  502  0.10527117590E+03 -0.14859773365E+03  0.10872420068E+04  0.11160338535E+04  0.17399159160E+03 0.  0.
        -24    2    5    5    0    0  0.12016847922E+03 -0.16465988290E+03  0.10499947208E+04  0.10725669397E+04  0.79734471633E+02 0.  0.
          5    1    3    3  501    0  0.34255776431E+01  0.63486006113E+02 -0.70460772564E+01  0.64140040217E+02  0.47000000000E+01 0. -1.
        -13    1    4    4    0    0 -0.89312566672E+02  0.10063311830E+03  0.15676169875E+03  0.20658651761E+03  0.00000000000E+00 0.  1.
         14    1    4    4    0    0 -0.19384186873E+02 -0.15521390758E+02  0.21835654087E+02  0.33067447152E+02  0.00000000000E+00 0. -1.
         -5    1    5    5    0  502 -0.14897303315E+02  0.16062149240E+02  0.37247285972E+02  0.43466913814E+02  0.47000000000E+01 0.  1.
         11    1    6    6    0    0  0.81335683888E+02 -0.68824345594E+02  0.38058948287E+03  0.39522226467E+03  0.00000000000E+00 0. -1.
        -12    1    6    6    0    0  0.38832795329E+02 -0.95835537301E+02  0.66940523798E+03  0.67734467506E+03  0.00000000000E+00 0.  1.
<mgrwt>
<rscale>  2 0.25157908E+03</rscale>
<asrwt>0</asrwt>
<pdfrwt beam="1">  1       21 0.20604776E+00 0.25186580E+03</pdfrwt>
<pdfrwt beam="2">  1       21 0.12387276E-01 0.25186580E+03</pdfrwt>
<totfact> 0.64935282E+03</totfact>
</mgrwt>
</event>
<event>
12    1  0.1013215E-001  0.2020252E+03  0.7546771E-02  0.1148125E+00
         21   -1    0    0  501  502  0.00000000000E+00  0.00000000000E+00  0.68738365734E+03  0.68738365734E+03  0.00000000000E+00 0.  1.
         21   -1    0    0  502  503 -0.00000000000E+00 -0.00000000000E+00 -0.14772179311E+03  0.14772179311E+03  0.00000000000E+00 0.  1.
         -6    2    1    2    0  503 -0.35934335063E+02 -0.96752934850E+02 -0.53186773306E+02  0.20890911824E+03  0.17367147143E+03 0.  0.
        -24    2    3    3    0    0 -0.34959706364E+02  0.68116376131E+01 -0.57264096276E+02  0.10515322620E+03  0.80681130266E+02 0.  0.
          6    2    1    2  501    0  0.35934335063E+02  0.96752934850E+02  0.59284863753E+03  0.62619633221E+03  0.17320488623E+03 0.  0.
         24    2    5    5    0    0 -0.19803526399E+02  0.34063908316E+02  0.45590060646E+03  0.46553060325E+03  0.85561966351E+02 0.  0.
          5    1    5    5  501    0  0.55737861462E+02  0.62689026534E+02  0.13694803107E+03  0.16066572896E+03  0.47000000000E+01 0. -1.
        -13    1    6    6    0    0 -0.17271605067E+02  0.29591837083E+02  0.45849521460E+03  0.45977369104E+03  0.00000000000E+00 0.  1.
         14    1    6    6    0    0 -0.25319213325E+01  0.44720712327E+01 -0.25946081427E+01  0.57569122069E+01  0.00000000000E+00 0. -1.
         -5    1    3    3    0  503 -0.97462869859E+00 -0.10356457246E+03  0.40773229704E+01  0.10375589204E+03  0.47000000000E+01 0.  1.
         13    1    4    4    0    0 -0.93328508708E+01  0.24314539877E+01 -0.73743745501E+02  0.74371728999E+02  0.00000000000E+00 0. -1.
        -14    1    4    4    0    0 -0.25626855494E+02  0.43801836253E+01  0.16479649225E+02  0.30781497196E+02  0.00000000000E+00 0.  1.
<mgrwt>
<rscale>  2 0.20192490E+03</rscale>
<asrwt>0</asrwt>
<pdfrwt beam="1">  1       21 0.10575133E+00 0.20202521E+03</pdfrwt>
<pdfrwt beam="2">  1       21 0.22726430E-01 0.20202521E+03</pdfrwt>
<totfact> 0.12956169E+04</totfact>
</mgrwt>
</event>
<event>
12    1  0.1013215E-001  0.2273708E+03  0.7546771E-02  0.1128544E+00
         21   -1    0    0  503  502  0.00000000000E+00  0.00000000000E+00  0.17201576653E+04  0.17201576653E+04  0.00000000000E+00 0.  1.
         21   -1    0    0  501  503 -0.00000000000E+00 -0.00000000000E+00 -0.33260491005E+02  0.33260491005E+02  0.00000000000E+00 0.  1.
          6    2    1    2  501    0 -0.51849527002E+02  0.13869548905E+03  0.11172835642E+04  0.11401842142E+04  0.17254757992E+03 0.  0.
         24    2    3    3    0    0 -0.72999067910E+02  0.15497281953E+03  0.10595574385E+04  0.10764139220E+04  0.81605927925E+02 0.  0.
         -6    2    1    2    0  502  0.51849527002E+02 -0.13869548905E+03  0.56961361008E+03  0.61323394209E+03  0.17225385573E+03 0.  0.
        -24    2    5    5    0    0  0.36668769862E+02 -0.77582818864E+02  0.52043700751E+03  0.53319868683E+03  0.77990181337E+02 0.  0.
          5    1    3    3  501    0  0.21149540908E+02 -0.16277330477E+02  0.57726125776E+02  0.63770292183E+02  0.47000000000E+01 0. -1.
        -11    1    4    4    0    0 -0.72387551550E+02  0.92413032846E+02  0.83837951970E+03  0.84655793973E+03  0.00000000000E+00 0.  1.
         12    1    4    4    0    0 -0.61151635937E+00  0.62559786684E+02  0.22117791875E+03  0.22985598231E+03  0.00000000000E+00 0. -1.
         -5    1    5    5    0  502  0.15180757140E+02 -0.61112670189E+02  0.49176602571E+02  0.80035255266E+02  0.47000000000E+01 0.  1.
         11    1    6    6    0    0  0.11853009403E+02 -0.87285274641E+02  0.42943290852E+03  0.43837408217E+03  0.00000000000E+00 0. -1.
        -12    1    6    6    0    0  0.24815760460E+02  0.97024557777E+01  0.91004098985E+02  0.94824604651E+02  0.00000000000E+00 0.  1.
<mgrwt>
<rscale>  2 0.22731507E+03</rscale>
<asrwt>0</asrwt>
<pdfrwt beam="1">  1       21 0.26463957E+00 0.22737080E+03</pdfrwt>
<pdfrwt beam="2">  1       21 0.51169999E-02 0.22737080E+03</pdfrwt>
<totfact> 0.13690490E+04</totfact>
</mgrwt>
</event>
<event>
12    1  0.1013215E-001  0.1827638E+03  0.7546771E-02  0.1165304E+00
         21   -1    0    0  503  502  0.00000000000E+00  0.00000000000E+00  0.23628492178E+03  0.23628492178E+03  0.00000000000E+00 0. -1.
         21   -1    0    0  501  503 -0.00000000000E+00 -0.00000000000E+00 -0.14475212363E+03  0.14475212363E+03  0.00000000000E+00 0. -1.
          6    2    1    2  501    0  0.26770662361E+02  0.52037475357E+02  0.14525977603E+02  0.18271243582E+03  0.17247684765E+03 0.  0.
         24    2    3    3    0    0  0.44485051134E+01  0.99564536383E+02  0.20144535198E+02  0.12969584952E+03  0.80512887047E+02 0.  0.
         -6    2    1    2    0  502 -0.26770662361E+02 -0.52037475357E+02  0.77006820542E+02  0.19832460959E+03  0.17314165633E+03 0.  0.
        -24    2    5    5    0    0 -0.56572933628E+02  0.23375665335E+02  0.28889171149E+02  0.10391743113E+03  0.78850045875E+02 0.  0.
          5    1    3    3  501    0  0.22322157247E+02 -0.47527061026E+02 -0.56185575946E+01  0.53016586305E+02  0.47000000000E+01 0. -1.
        -11    1    4    4    0    0 -0.37613205966E+02  0.45927662760E+02  0.31541395326E+01  0.59447893704E+02  0.00000000000E+00 0.  1.
         12    1    4    4    0    0  0.42061711080E+02  0.53636873623E+02  0.16990395665E+02  0.70247955813E+02  0.00000000000E+00 0. -1.
         -5    1    5    5    0  502  0.29802271268E+02 -0.75413140692E+02  0.48117649394E+02  0.94407178461E+02  0.47000000000E+01 0.  1.
         13    1    6    6    0    0 -0.51244197156E+02  0.34951491215E+02  0.49721049040E+02  0.79496900556E+02  0.00000000000E+00 0. -1.
        -14    1    6    6    0    0 -0.53287364724E+01 -0.11575825880E+02 -0.20831877891E+02  0.24420530577E+02  0.00000000000E+00 0.  1.
<mgrwt>
<rscale>  2 0.18260616E+03</rscale>
<asrwt>0</asrwt>
<pdfrwt beam="1">  1       21 0.36351526E-01 0.18276378E+03</pdfrwt>
<pdfrwt beam="2">  1       21 0.22269558E-01 0.18276378E+03</pdfrwt>
<totfact> 0.13812736E+05</totfact>
</mgrwt>
</event>
<event>
12    1  0.1013215E-001  0.1801504E+03  0.7546771E-02  0.1167881E+00
         21   -1    0    0  503  502  0.00000000000E+00  0.00000000000E+00  0.49779060519E+03  0.49779060519E+03  0.00000000000E+00 0.  1.
         21   -1    0    0  501  503 -0.00000000000E+00 -0.00000000000E+00 -0.16639374047E+03  0.16639374047E+03  0.00000000000E+00 0.  1.
          6    2    1    2  501    0 -0.25348466933E+02 -0.46377362198E+02 -0.93878482761E+02  0.20232583925E+03  0.17125761648E+03 0.  0.
         24    2    3    3    0    0  0.73440744156E+01 -0.33745565566E+01 -0.11728491104E+03  0.14326659410E+03  0.81879445333E+02 0.  0.
         -6    2    1    2    0  502  0.25348466933E+02  0.46377362198E+02  0.42527534748E+03  0.46185850640E+03  0.17222297831E+03 0.  0.
        -24    2    5    5    0    0 -0.18800273712E+02 -0.41624836902E+02  0.18283072323E+03  0.20014304225E+03  0.67409841008E+02 0.  0.
          5    1    3    3  501    0 -0.32692541349E+02 -0.43002805641E+02  0.23406428276E+02  0.59059245148E+02  0.47000000000E+01 0. -1.
        -11    1    4    4    0    0 -0.70520578231E+01  0.37348620248E+02 -0.43471998184E+02  0.57744831631E+02  0.00000000000E+00 0.  1.
         12    1    4    4    0    0  0.14396132239E+02 -0.40723176805E+02 -0.73812912854E+02  0.85521762473E+02  0.00000000000E+00 0. -1.
         -5    1    5    5    0  502  0.44148740645E+02  0.88002199100E+02  0.24244462425E+03  0.26171546415E+03  0.47000000000E+01 0.  1.
         13    1    6    6    0    0 -0.24471202880E+02 -0.79068577689E+00  0.13408278952E+03  0.13629988774E+03  0.00000000000E+00 0. -1.
        -14    1    6    6    0    0  0.56709291679E+01 -0.40834151125E+02  0.48747933714E+02  0.63843154505E+02  0.00000000000E+00 0.  1.
<mgrwt>
<rscale>  2 0.17991927E+03</rscale>
<asrwt>0</asrwt>
<pdfrwt beam="1">  1       21 0.76583169E-01 0.18015038E+03</pdfrwt>
<pdfrwt beam="2">  1       21 0.25599037E-01 0.18015038E+03</pdfrwt>
<totfact> 0.22128297E+04</totfact>
</mgrwt>
</event>
<event>
12    1  0.1013215E-001  0.1984579E+03  0.7546771E-02  0.1151220E+00
         21   -1    0    0  501  502  0.00000000000E+00  0.00000000000E+00  0.78813192513E+03  0.78813192513E+03  0.00000000000E+00 0. -1.
         21   -1    0    0  502  503 -0.00000000000E+00 -0.00000000000E+00 -0.54232162262E+02  0.54232162262E+02  0.00000000000E+00 0. -1.
         -6    2    1    2    0  503  0.70611835678E+02  0.64993016042E+02  0.24543306101E+03  0.31512102287E+03  0.17278237221E+03 0.  0.
        -24    2    3    3    0    0  0.34917415275E+02  0.10840782286E+03  0.16213922267E+03  0.21452832629E+03  0.82230124090E+02 0.  0.
          6    2    1    2  501    0 -0.70611835678E+02 -0.64993016042E+02  0.48846670187E+03  0.52724306452E+03  0.17371069854E+03 0.  0.
         24    2    5    5    0    0 -0.44678273941E+02 -0.26265616677E+00  0.41610996577E+03  0.42664407660E+03  0.82954489507E+02 0.  0.
          5    1    5    5  501    0 -0.25933561736E+02 -0.64730359876E+02  0.72356736091E+02  0.10059898793E+03  0.47000000000E+01 0. -1.
        -13    1    6    6    0    0  0.58324547693E+01 -0.27024889544E+02  0.61131996287E+02  0.67093093188E+02  0.00000000000E+00 0.  1.
         14    1    6    6    0    0 -0.50510728711E+02  0.26762233377E+02  0.35497796949E+03  0.35955098341E+03  0.00000000000E+00 0. -1.
         -5    1    3    3    0  503  0.35694420402E+02 -0.43414806821E+02  0.83293838342E+02  0.10059269658E+03  0.47000000000E+01 0.  1.
         11    1    4    4    0    0 -0.10979339498E+02  0.74643842204E+02  0.55638642979E+02  0.93743840691E+02  0.00000000000E+00 0. -1.
        -12    1    4    4    0    0  0.45896754774E+02  0.33763980659E+02  0.10650057969E+03  0.12078448560E+03  0.00000000000E+00 0.  1.
<mgrwt>
<rscale>  2 0.19825455E+03</rscale>
<asrwt>0</asrwt>
<pdfrwt beam="1">  1       21 0.12125106E+00 0.19845788E+03</pdfrwt>
<pdfrwt beam="2">  1       21 0.83434102E-02 0.19845788E+03</pdfrwt>
<totfact> 0.57226762E+04</totfact>
</mgrwt>
</event>
<event>
12    1  0.1013215E-001  0.1820600E+03  0.7546771E-02  0.1166199E+00
         21   -1    0    0  501  502  0.00000000000E+00  0.00000000000E+00  0.28850070854E+04  0.28850070854E+04  0.00000000000E+00 0. -1.
         21   -1    0    0  502  503 -0.00000000000E+00 -0.00000000000E+00 -0.11447232254E+03  0.11447232254E+03  0.00000000000E+00 0. -1.
         -6    2    1    2    0  503 -0.48306290392E+02 -0.27411483794E+02 -0.38497137951E+02  0.18455381829E+03  0.17173582934E+03 0.  0.
        -24    2    3    3    0    0 -0.83494375348E+02 -0.74281654734E+01  0.15202926884E+02  0.11714965449E+03  0.80414079637E+02 0.  0.
          6    2    1    2  501    0  0.48306290392E+02  0.27411483794E+02  0.28090319008E+04  0.28149255897E+04  0.17338099184E+03 0.  0.
         24    2    5    5    0    0 -0.41038416856E+02  0.29486904502E+02  0.12263443100E+04  0.12297098679E+04  0.75580179680E+02 0.  0.
          5    1    5    5  501    0  0.89344707248E+02 -0.20754207080E+01  0.15826875909E+04  0.15852157217E+04  0.47000000000E+01 0. -1.
        -11    1    6    6    0    0 -0.11339405293E+02  0.16401134186E+02  0.66822501448E+02  0.69733966005E+02  0.00000000000E+00 0.  1.
         12    1    6    6    0    0 -0.29699011563E+02  0.13085770316E+02  0.11595218085E+04  0.11599759019E+04  0.00000000000E+00 0. -1.
         -5    1    3    3    0  503  0.35188084956E+02 -0.19983318320E+02 -0.53700064834E+02  0.67404163797E+02  0.47000000000E+01 0.  1.
         11    1    4    4    0    0 -0.54456975672E+02 -0.41050124464E+02 -0.49329633802E+01  0.68374037803E+02  0.00000000000E+00 0. -1.
        -12    1    4    4    0    0 -0.29037399676E+02  0.33621958990E+02  0.20135890264E+02  0.48775616685E+02  0.00000000000E+00 0.  1.
<mgrwt>
<rscale>  2 0.18166725E+03</rscale>
<asrwt>0</asrwt>
<pdfrwt beam="1">  1       21 0.44384719E+00 0.18206003E+03</pdfrwt>
<pdfrwt beam="2">  1       21 0.17611129E-01 0.18206003E+03</pdfrwt>
<totfact> 0.13628734E+02</totfact>
</mgrwt>
</event>
<event>
12    1  0.1013215E-001  0.1870365E+03  0.7546771E-02  0.1161318E+00
         21   -1    0    0  501  502  0.00000000000E+00  0.00000000000E+00  0.60850676084E+03  0.60850676084E+03  0.00000000000E+00 0.  1.
         21   -1    0    0  502  503 -0.00000000000E+00 -0.00000000000E+00 -0.69386457675E+02  0.69386457675E+02  0.00000000000E+00 0.  1.
         -6    2    1    2    0  503 -0.16118824025E+02  0.67385500543E+02  0.12758680174E+03  0.22585065421E+03  0.17300145624E+03 0.  0.
        -24    2    3    3    0    0  0.19035744065E+02 -0.27642625816E+01  0.12116959614E+03  0.14698302174E+03  0.80944035925E+02 0.  0.
          6    2    1    2  501    0  0.16118824025E+02 -0.67385500543E+02  0.41153350143E+03  0.45204256430E+03  0.17372977572E+03 0.  0.
         24    2    5    5    0    0  0.60124617715E+02 -0.61537578333E+02  0.37893815793E+03  0.39676820777E+03  0.80181294325E+02 0.  0.
          5    1    5    5  501    0 -0.44005793690E+02 -0.58479222096E+01  0.32595343504E+02  0.55274356537E+02  0.47000000000E+01 0. -1.
        -13    1    6    6    0    0  0.48627980403E+02 -0.13584259626E+02  0.86138913128E+02  0.99845505370E+02  0.00000000000E+00 0.  1.
         14    1    6    6    0    0  0.11496637312E+02 -0.47953318707E+02  0.29279924480E+03  0.29692270240E+03  0.00000000000E+00 0. -1.
         -5    1    3    3    0  503 -0.35154568089E+02  0.70149763124E+02  0.64172055975E+01  0.78867632471E+02  0.47000000000E+01 0.  1.
         13    1    4    4    0    0 -0.13845164537E+02  0.28559900003E+02  0.78480826614E+02  0.84655753587E+02  0.00000000000E+00 0. -1.
        -14    1    4    4    0    0  0.32880908602E+02 -0.31324162584E+02  0.42688769528E+02  0.62327268157E+02  0.00000000000E+00 0.  1.
<mgrwt>
<rscale>  2 0.18686721E+03</rscale>
<asrwt>0</asrwt>
<pdfrwt beam="1">  1       21 0.93616422E-01 0.18703651E+03</pdfrwt>
<pdfrwt beam="2">  1       21 0.10674840E-01 0.18703651E+03</pdfrwt>
<totfact> 0.69472268E+04</totfact>
</mgrwt>
</event>
<event>
12    1  0.1013215E-001  0.2292430E+03  0.7546771E-02  0.1127276E+00
         21   -1    0    0  501  502  0.00000000000E+00  0.00000000000E+00  0.13045441116E+04  0.13045441116E+04  0.00000000000E+00 0. -1.
         21   -1    0    0  502  503 -0.00000000000E+00 -0.00000000000E+00 -0.40201206676E+02  0.40201206676E+02  0.00000000000E+00 0.  1.
         -6    2    1    2    0  503 -0.53492577420E+02 -0.14004439960E+03  0.61845421817E+03  0.65957406722E+03  0.17343137109E+03 0.  0.
        -24    2    3    3    0    0 -0.88840481141E+02 -0.13946506917E+03  0.57341500858E+03  0.60212469540E+03  0.80038991422E+02 0.  0.
          6    2    1    2  501    0  0.53492577420E+02  0.14004439960E+03  0.64588868680E+03  0.68517125110E+03  0.17266602997E+03 0.  0.
         24    2    5    5    0    0  0.34418816394E+02  0.16362747494E+03  0.61546303160E+03  0.64195342727E+03  0.73149532051E+02 0.  0.
          5    1    5    5  501    0  0.19073761025E+02 -0.23583075345E+02  0.30425655192E+02  0.43217823826E+02  0.47000000000E+01 0. -1.
        -13    1    6    6    0    0 -0.21091521826E+02  0.51443416928E+02  0.23246643003E+03  0.23902284102E+03  0.00000000000E+00 0.  1.
         14    1    6    6    0    0  0.55510338220E+02  0.11218405801E+03  0.38299660158E+03  0.40293058626E+03  0.00000000000E+00 0. -1.
         -5    1    3    3    0  503  0.35347903722E+02 -0.57933042935E+00  0.45039209600E+02  0.57449371821E+02  0.47000000000E+01 0.  1.
         11    1    4    4    0    0  0.62963606978E+01  0.30996140043E+01  0.69629649919E+02  0.69982425743E+02  0.00000000000E+00 0. -1.
        -12    1    4    4    0    0 -0.95136841839E+02 -0.14256468317E+03  0.50378535866E+03  0.53214226966E+03  0.00000000000E+00 0.  1.
<mgrwt>
<rscale>  2 0.22909820E+03</rscale>
<asrwt>0</asrwt>
<pdfrwt beam="1">  1       21 0.20069906E+00 0.22924295E+03</pdfrwt>
<pdfrwt beam="2">  1       21 0.61848020E-02 0.22924295E+03</pdfrwt>
<totfact> 0.24245694E+04</totfact>
</mgrwt>
</event>
<event>
12    1  0.1013215E-001  0.1805589E+03  0.7546771E-02  0.1167733E+00
         21   -1    0    0  503  502  0.00000000000E+00  0.00000000000E+00  0.31882246467E+02  0.31882246467E+02  0.00000000000E+00 0.  1.
         21   -1    0    0  501  503 -0.00000000000E+00 -0.00000000000E+00 -0.11172026327E+04  0.11172026327E+04  0.00000000000E+00 0.  1.
          6    2    1    2  501    0  0.30805863878E+02 -0.35233387407E+02 -0.72195242454E+03  0.74418870099E+03  0.17438786236E+03 0.  0.
         24    2    3    3    0    0  0.47213426661E+02 -0.73680829402E+02 -0.34885953498E+03  0.36873190167E+03  0.81254340708E+02 0.  0.
         -6    2    1    2    0  502 -0.30805863878E+02  0.35233387407E+02 -0.36336796173E+03  0.40489617822E+03  0.17237820827E+03 0.  0.
        -24    2    5    5    0    0 -0.77016588963E+01  0.17282358699E+02 -0.69052832793E+02  0.10909298547E+03  0.82310329182E+02 0.  0.
          5    1    3    3  501    0 -0.16407562783E+02  0.38447441995E+02 -0.37309288956E+03  0.37545679931E+03  0.47000000000E+01 0. -1.
        -13    1    4    4    0    0  0.23718591247E+02 -0.69493703989E+01 -0.22288507410E+03  0.22425124654E+03  0.00000000000E+00 0.  1.
         14    1    4    4    0    0  0.23494835414E+02 -0.66731459003E+02 -0.12597446088E+03  0.14448065513E+03  0.00000000000E+00 0. -1.
         -5    1    5    5    0  502 -0.23104204981E+02  0.17951028708E+02 -0.29431512893E+03  0.29580319275E+03  0.47000000000E+01 0.  1.
         11    1    6    6    0    0  0.13950923830E+02 -0.25526801781E+02 -0.49235927020E+02  0.57187607000E+02  0.00000000000E+00 0. -1.
        -12    1    6    6    0    0 -0.21652582726E+02  0.42809160480E+02 -0.19816905773E+02  0.51905378470E+02  0.00000000000E+00 0.  1.
<mgrwt>
<rscale>  2 0.18007189E+03</rscale>
<asrwt>0</asrwt>
<pdfrwt beam="1">  1       21 0.49049605E-02 0.18055891E+03</pdfrwt>
<pdfrwt beam="2">  1       21 0.17187735E+00 0.18055891E+03</pdfrwt>
<totfact> 0.57932706E+04</totfact>
</mgrwt>
</event>
<event>
12    1  0.1013215E-001  0.1825948E+03  0.7546771E-02  0.1165752E+00
         21   -1    0    0  503  502  0.00000000000E+00  0.00000000000E+00  0.80623789454E+03  0.80623789454E+03  0.00000000000E+00 0. -1.
         21   -1    0    0  501  503 -0.00000000000E+00 -0.00000000000E+00 -0.18040911471E+03  0.18040911471E+03  0.00000000000E+00 0. -1.
          6    2    1    2  501    0 -0.71378527534E+01 -0.53956330940E+02 -0.12119451865E+03  0.21763161440E+03  0.17237509578E+03 0.  0.
         24    2    3    3    0    0 -0.63215701313E+02 -0.29031064641E+01 -0.87419117093E+02  0.13448100058E+03  0.80239544887E+02 0.  0.
         -6    2    1    2    0  502  0.71378527534E+01  0.53956330940E+02  0.74702329848E+03  0.76901539485E+03  0.17429467709E+03 0.  0.
        -24    2    5    5    0    0 -0.58461798628E+01  0.87409144813E+02  0.33510586722E+03  0.35551117960E+03  0.80110674433E+02 0.  0.
          5    1    3    3  501    0  0.56077848560E+02 -0.51053224476E+02 -0.33775401557E+02  0.83150613821E+02  0.47000000000E+01 0. -1.
        -13    1    4    4    0    0 -0.36277039839E+02 -0.16678492352E+02  0.21043853259E+01  0.39982798354E+02  0.00000000000E+00 0.  1.
         14    1    4    4    0    0 -0.26938661474E+02  0.13775385888E+02 -0.89523502419E+02  0.94498202225E+02  0.00000000000E+00 0. -1.
         -5    1    5    5    0  502  0.12984032616E+02 -0.33452813872E+02  0.41191743126E+03  0.41350421526E+03  0.47000000000E+01 0.  1.
         11    1    6    6    0    0 -0.39607625860E+02  0.70244545560E+02  0.23731781350E+03  0.25064477814E+03  0.00000000000E+00 0. -1.
        -12    1    6    6    0    0  0.33761445997E+02  0.17164599253E+02  0.97788053721E+02  0.10486640145E+03  0.00000000000E+00 0.  1.
<mgrwt>
<rscale>  2 0.18213524E+03</rscale>
<asrwt>0</asrwt>
<pdfrwt beam="1">  1       21 0.12403660E+00 0.18259482E+03</pdfrwt>
<pdfrwt beam="2">  1       21 0.27755249E-01 0.18259482E+03</pdfrwt>
<totfact> 0.60752720E+03</totfact>
</mgrwt>
</event>
<event>
12    1  0.1013215E-001  0.2008507E+03  0.7546771E-02  0.1149027E+00
         21   -1    0    0  503  502  0.00000000000E+00  0.00000000000E+00  0.29715736372E+03  0.29715736372E+03  0.00000000000E+00 0. -1.
         21   -1    0    0  501  503 -0.00000000000E+00 -0.00000000000E+00 -0.17079964537E+03  0.17079964537E+03  0.00000000000E+00 0. -1.
          6    2    1    2  501    0  0.56849399416E+02  0.82896425681E+02 -0.42820077085E+02  0.20536443310E+03  0.17388881440E+03 0.  0.
         24    2    3    3    0    0  0.44055873385E+02 -0.16416915452E+02 -0.48945500441E+02  0.10493323851E+03  0.80030540653E+02 0.  0.
         -6    2    1    2    0  502 -0.56849399416E+02 -0.82896425681E+02  0.16917779544E+03  0.26259257600E+03  0.17386794672E+03 0.  0.
        -24    2    5    5    0    0 -0.83616412113E+02 -0.92136309815E+02  0.10343609882E+03  0.19085758383E+03  0.10122641357E+03 0.  0.
          5    1    3    3  501    0  0.12793526031E+02  0.99313341133E+02  0.61254233564E+01  0.10043119459E+03  0.47000000000E+01 0. -1.
        -13    1    4    4    0    0 -0.13215238806E+02  0.12739090216E+02  0.70816380842E+01  0.19674261211E+02  0.00000000000E+00 0.  1.
         14    1    4    4    0    0  0.57271112191E+02 -0.29156005668E+02 -0.56027138526E+02  0.85258977295E+02  0.00000000000E+00 0. -1.
         -5    1    5    5    0  502  0.26767012697E+02  0.92398841332E+01  0.65741696614E+02  0.71734992167E+02  0.47000000000E+01 0.  1.
         11    1    6    6    0    0 -0.48444241969E+02  0.58429834707E+01  0.61793812256E+02  0.78736651370E+02  0.00000000000E+00 0. -1.
        -12    1    6    6    0    0 -0.35172170144E+02 -0.97979293285E+02  0.41642286566E+02  0.11212093246E+03  0.00000000000E+00 0.  1.
<mgrwt>
<rscale>  2 0.20084615E+03</rscale>
<asrwt>0</asrwt>
<pdfrwt beam="1">  1       21 0.45716518E-01 0.20085067E+03</pdfrwt>
<pdfrwt beam="2">  1       21 0.26276868E-01 0.20085067E+03</pdfrwt>
<totfact> 0.62924771E+04</totfact>
</mgrwt>
</event>
<event>
12    1  0.1013215E-001  0.1943386E+03  0.7546771E-02  0.1154976E+00
         21   -1    0    0  503  502  0.00000000000E+00  0.00000000000E+00  0.48695784659E+02  0.48695784659E+02  0.00000000000E+00 0.  1.
         21   -1    0    0  501  503 -0.00000000000E+00 -0.00000000000E+00 -0.93762044876E+03  0.93762044876E+03  0.00000000000E+00 0.  1.
          6    2    1    2  501    0  0.86945320679E+02 -0.17211509730E+02 -0.65208662242E+03  0.67995086444E+03  0.17105697901E+03 0.  0.
         24    2    3    3    0    0  0.11707127721E+03 -0.33537776236E+02 -0.60075613590E+03  0.61805555703E+03  0.79083945039E+02 0.  0.
         -6    2    1    2    0  502 -0.86945320679E+02  0.17211509730E+02 -0.23683804169E+03  0.30636536898E+03  0.17295015601E+03 0.  0.
        -24    2    5    5    0    0 -0.32694490413E+02 -0.44313806769E+02 -0.18115866981E+03  0.20711417449E+03  0.83935537490E+02 0.  0.
          5    1    3    3  501    0 -0.30125956529E+02  0.16326266506E+02 -0.51330486514E+02  0.61895307420E+02  0.47000000000E+01 0. -1.
        -11    1    4    4    0    0  0.34907093380E+02 -0.48400859128E+02 -0.30261787055E+03  0.30844565795E+03  0.00000000000E+00 0.  1.
         12    1    4    4    0    0  0.82164183829E+02  0.14863082892E+02 -0.29813826535E+03  0.30960989907E+03  0.00000000000E+00 0. -1.
         -5    1    5    5    0  502 -0.54250830266E+02  0.61525316498E+02 -0.55679371883E+02  0.99251194492E+02  0.47000000000E+01 0.  1.
         13    1    6    6    0    0 -0.22061385817E+02 -0.69245656050E+01 -0.16224644042E+03  0.16388581934E+03  0.00000000000E+00 0. -1.
        -14    1    6    6    0    0 -0.10633104597E+02 -0.37389241164E+02 -0.18912229389E+02  0.43228355146E+02  0.00000000000E+00 0.  1.
<mgrwt>
<rscale>  2 0.19391648E+03</rscale>
<asrwt>0</asrwt>
<pdfrwt beam="1">  1       21 0.74916591E-02 0.19433857E+03</pdfrwt>
<pdfrwt beam="2">  1       21 0.14424930E+00 0.19433857E+03</pdfrwt>
<totfact> 0.44494003E+04</totfact>
</mgrwt>
</event>
<event>
12    1  0.1013215E-001  0.2426917E+03  0.7546771E-02  0.1119164E+00
         21   -1    0    0  503  502  0.00000000000E+00  0.00000000000E+00  0.35153019758E+03  0.35153019758E+03  0.00000000000E+00 0.  1.
         21   -1    0    0  501  503 -0.00000000000E+00 -0.00000000000E+00 -0.18461671066E+03  0.18461671066E+03  0.00000000000E+00 0. -1.
          6    2    1    2  501    0 -0.18081000557E+02  0.15925463208E+03 -0.75929981084E+01  0.24281042279E+03  0.18223689906E+03 0.  0.
         24    2    3    3    0    0  0.31791995151E+02  0.88211523444E+02  0.55618465276E+02  0.13532917751E+03  0.80178356064E+02 0.  0.
         -6    2    1    2    0  502  0.18081000557E+02 -0.15925463208E+03  0.17450648503E+03  0.29333648544E+03  0.17293010136E+03 0.  0.
        -24    2    5    5    0    0  0.36564230701E+01 -0.14560600687E+03  0.60538671535E+02  0.17755606431E+03  0.81527581556E+02 0.  0.
          5    1    3    3  501    0 -0.49872995708E+02  0.71043108633E+02 -0.63211463384E+02  0.10748124529E+03  0.47000000000E+01 0. -1.
        -11    1    4    4    0    0 -0.10167303951E+01  0.87312488854E+02  0.25967171422E+02  0.91097741148E+02  0.00000000000E+00 0.  1.
         12    1    4    4    0    0  0.32808725546E+02  0.89903458934E+00  0.29651293854E+02  0.44231436359E+02  0.00000000000E+00 0. -1.
         -5    1    5    5    0  502  0.14424577486E+02 -0.13648625203E+02  0.11396781349E+03  0.11578042114E+03  0.47000000000E+01 0.  1.
         11    1    6    6    0    0 -0.33040137040E+02 -0.47794271335E+02  0.27478123498E+01  0.58167804675E+02  0.00000000000E+00 0. -1.
        -12    1    6    6    0    0  0.36696560110E+02 -0.97811735538E+02  0.57790859185E+02  0.11938825963E+03  0.00000000000E+00 0.  1.
<mgrwt>
<rscale>  2 0.24094584E+03</rscale>
<asrwt>0</asrwt>
<pdfrwt beam="1">  1       21 0.54081569E-01 0.24269167E+03</pdfrwt>
<pdfrwt beam="2">  1       21 0.28402571E-01 0.24269167E+03</pdfrwt>
<totfact> 0.37388074E+04</totfact>
</mgrwt>
</event>
<event>
12    1  0.1013215E-001  0.1927860E+03  0.7546771E-02  0.1156025E+00
         21   -1    0    0  501  502  0.00000000000E+00  0.00000000000E+00  0.21008494658E+02  0.21008494658E+02  0.00000000000E+00 0.  1.
         21   -1    0    0  502  503 -0.00000000000E+00 -0.00000000000E+00 -0.18716454226E+04  0.18716454226E+04  0.00000000000E+00 0.  1.
         -6    2    1    2    0  503 -0.76311569386E+02 -0.31268515231E+02 -0.11497124483E+04  0.11657637666E+04  0.17425633430E+03 0.  0.
        -24    2    3    3    0    0 -0.10694051354E+03 -0.37925268125E+02 -0.10833707089E+04  0.10922398863E+04  0.80132871045E+02 0.  0.
          6    2    1    2  501    0  0.76311569386E+02  0.31268515231E+02 -0.70092447963E+03  0.72689015066E+03  0.17399134839E+03 0.  0.
         24    2    5    5    0    0  0.57350012326E+02  0.52358553210E+02 -0.68507721132E+03  0.69406399857E+03  0.79772217187E+02 0.  0.
          5    1    5    5  501    0  0.18961557060E+02 -0.21090037980E+02 -0.15847268313E+02  0.32826152091E+02  0.47000000000E+01 0. -1.
        -11    1    6    6    0    0  0.84735927638E+01  0.36352238573E+02 -0.10014660394E+03  0.10687670141E+03  0.00000000000E+00 0.  1.
         12    1    6    6    0    0  0.48876419563E+02  0.16006314637E+02 -0.58493060738E+03  0.58718729716E+03  0.00000000000E+00 0. -1.
         -5    1    3    3    0  503  0.30628944158E+02  0.66567528941E+01 -0.66341739423E+02  0.73523880264E+02  0.47000000000E+01 0.  1.
         13    1    4    4    0    0 -0.32680188504E+02  0.16512585053E+01 -0.64717320980E+03  0.64799991116E+03  0.00000000000E+00 0. -1.
        -14    1    4    4    0    0 -0.74260325040E+02 -0.39576526630E+02 -0.43619749910E+03  0.44423997519E+03  0.00000000000E+00 0.  1.
<mgrwt>
<rscale>  2 0.19272611E+03</rscale>
<asrwt>0</asrwt>
<pdfrwt beam="1">  1       21 0.32320765E-02 0.19278601E+03</pdfrwt>
<pdfrwt beam="2">  1       21 0.28794541E+00 0.19278601E+03</pdfrwt>
<totfact> 0.22392619E+04</totfact>
</mgrwt>
</event>
<event>
12    1  0.1013215E-001  0.2639327E+03  0.7546771E-02  0.1105142E+00
         21   -1    0    0  501  502  0.00000000000E+00  0.00000000000E+00  0.31860153827E+03  0.31860153827E+03  0.00000000000E+00 0. -1.
         21   -1    0    0  502  503 -0.00000000000E+00 -0.00000000000E+00 -0.32990405206E+03  0.32990405206E+03  0.00000000000E+00 0.  1.
         -6    2    1    2    0  503  0.15390517403E+03  0.11684410129E+03 -0.19556407445E+03  0.32849015887E+03  0.17978078501E+03 0.  0.
        -24    2    3    3    0    0  0.16538819832E+03  0.13696879911E+03 -0.20021122392E+03  0.30439556803E+03  0.80364292938E+02 0.  0.
          6    2    1    2  501    0 -0.15390517403E+03 -0.11684410129E+03  0.18426156066E+03  0.32001543146E+03  0.17640353465E+03 0.  0.
         24    2    5    5    0    0 -0.15918011498E+03 -0.98839695130E+02  0.20647734770E+03  0.29056012910E+03  0.81760009603E+02 0.  0.
          5    1    5    5  501    0  0.52749409522E+01 -0.18004406156E+02 -0.22215787043E+02  0.29455302359E+02  0.47000000000E+01 0. -1.
        -13    1    6    6    0    0 -0.40993929135E+02 -0.38232446016E+02  0.15903130995E+02  0.58267758921E+02  0.00000000000E+00 0.  1.
         14    1    6    6    0    0 -0.11818618585E+03 -0.60607249114E+02  0.19057421671E+03  0.23229237018E+03  0.00000000000E+00 0. -1.
         -5    1    3    3    0  503 -0.11483024288E+02 -0.20124697826E+02  0.46471494701E+01  0.24094590837E+02  0.47000000000E+01 0.  1.
         11    1    4    4    0    0  0.20044417256E+01  0.23074327195E+02 -0.17427635278E+01  0.23226699870E+02  0.00000000000E+00 0. -1.
        -12    1    4    4    0    0  0.16338375659E+03  0.11389447192E+03 -0.19846846040E+03  0.28116886816E+03  0.00000000000E+00 0.  1.
<mgrwt>
<rscale>  2 0.26335865E+03</rscale>
<asrwt>0</asrwt>
<pdfrwt beam="1">  1       21 0.49015621E-01 0.26393271E+03</pdfrwt>
<pdfrwt beam="2">  1       21 0.50754469E-01 0.26393271E+03</pdfrwt>
<totfact> 0.14086433E+04</totfact>
</mgrwt>
</event>
<event>
12    1  0.1013215E-001  0.2823059E+03  0.7546771E-02  0.1094453E+00
         21   -1    0    0  503  502  0.00000000000E+00  0.00000000000E+00  0.87844060540E+02  0.87844060540E+02  0.00000000000E+00 0.  1.
         21   -1    0    0  501  503 -0.00000000000E+00 -0.00000000000E+00 -0.10150306992E+04  0.10150306992E+04  0.00000000000E+00 0. -1.
          6    2    1    2  501    0  0.17348291395E+03 -0.14067076614E+03 -0.28366358213E+03  0.40020204377E+03  0.17266169851E+03 0.  0.
         24    2    3    3    0    0  0.40188941294E+02 -0.90390381914E+01 -0.77650482390E+02  0.12171024459E+03  0.84183911812E+02 0.  0.
         -6    2    1    2    0  502 -0.17348291395E+03  0.14067076614E+03 -0.64352305654E+03  0.70267271598E+03  0.17245995363E+03 0.  0.
        -24    2    5    5    0    0 -0.15905729288E+03  0.66688927876E+02 -0.32151063849E+03  0.37192281301E+03  0.72186235909E+02 0.  0.
          5    1    3    3  501    0  0.13329397265E+03 -0.13163172795E+03 -0.20601309974E+03  0.27849179919E+03  0.47000000000E+01 0. -1.
        -11    1    4    4    0    0 -0.10279348928E+02 -0.13229116896E+02  0.10697349967E+02  0.19877319853E+02  0.00000000000E+00 0.  1.
         12    1    4    4    0    0  0.50468290222E+02  0.41900787045E+01 -0.88347832356E+02  0.10183292473E+03  0.00000000000E+00 0. -1.
         -5    1    5    5    0  502 -0.14425621065E+02  0.73981838266E+02 -0.32201241805E+03  0.33074990297E+03  0.47000000000E+01 0.  1.
         11    1    6    6    0    0 -0.15228498134E+03  0.48287195765E+02 -0.31110001665E+03  0.34972215997E+03  0.00000000000E+00 0. -1.
        -12    1    6    6    0    0 -0.67723115434E+01  0.18401732111E+02 -0.10410621847E+02  0.22200653044E+02  0.00000000000E+00 0.  1.
<mgrwt>
<rscale>  2 0.28227511E+03</rscale>
<asrwt>0</asrwt>
<pdfrwt beam="1">  1       21 0.13514470E-01 0.28230595E+03</pdfrwt>
<pdfrwt beam="2">  1       21 0.15615858E+00 0.28230595E+03</pdfrwt>
<totfact> 0.12035708E+04</totfact>
</mgrwt>
</event>
<event>
12    1  0.1013215E-001  0.1930199E+03  0.7546771E-02  0.1156718E+00
         21   -1    0    0  503  502  0.00000000000E+00  0.00000000000E+00  0.68804195733E+02  0.68804195733E+02  0.00000000000E+00 0. -1.
         21   -1    0    0  501  503 -0.00000000000E+00 -0.00000000000E+00 -0.83848514663E+03  0.83848514663E+03  0.00000000000E+00 0. -1.
          6    2    1    2  501    0 -0.62449295873E+02  0.56841729344E+02 -0.66287950733E+03  0.69040997496E+03  0.17356784131E+03 0.  0.
         24    2    3    3    0    0  0.13336268813E+02  0.64712222925E+02 -0.49797594423E+03  0.50869406590E+03  0.80150382310E+02 0.  0.
         -6    2    1    2    0  502  0.62449295873E+02 -0.56841729344E+02 -0.10680144357E+03  0.21687936740E+03  0.16881710490E+03 0.  0.
        -24    2    5    5    0    0  0.69704429742E+02 -0.84005313499E+02 -0.36240642887E+02  0.14077802796E+03  0.81175542739E+02 0.  0.
          5    1    3    3  501    0 -0.75785564686E+02 -0.78704935814E+01 -0.16490356310E+03  0.18171590907E+03  0.47000000000E+01 0. -1.
        -11    1    4    4    0    0 -0.57792804020E+01  0.74281431177E+02 -0.28248297219E+03  0.29214339061E+03  0.00000000000E+00 0.  1.
         12    1    4    4    0    0  0.19115549215E+02 -0.95692082521E+01 -0.21549297204E+03  0.21655067528E+03  0.00000000000E+00 0. -1.
         -5    1    5    5    0  502 -0.72551338687E+01  0.27163584155E+02 -0.70560800682E+02  0.76101339440E+02  0.47000000000E+01 0.  1.
         13    1    6    6    0    0  0.69991329374E+02 -0.22137203832E+02 -0.12265890933E+02  0.74426433888E+02  0.00000000000E+00 0. -1.
        -14    1    6    6    0    0 -0.28689963156E+00 -0.61868109668E+02 -0.23974751954E+02  0.66351594076E+02  0.00000000000E+00 0.  1.
<mgrwt>
<rscale>  2 0.19194586E+03</rscale>
<asrwt>0</asrwt>
<pdfrwt beam="1">  1       21 0.10585261E-01 0.19301993E+03</pdfrwt>
<pdfrwt beam="2">  1       21 0.12899772E+00 0.19301993E+03</pdfrwt>
<totfact> 0.32335856E+04</totfact>
</mgrwt>
</event>
<event>
11    1  0.1013215E-001  0.2211231E+03  0.7546771E-02  0.1133128E+00
         21   -1    0    0  501  502  0.00000000000E+00  0.00000000000E+00  0.96667122957E+03  0.96667122957E+03  0.00000000000E+00 0. -1.
         21   -1    0    0  502  503 -0.00000000000E+00 -0.00000000000E+00 -0.11619477354E+03  0.11619477354E+03  0.00000000000E+00 0.  1.
         -6    2    1    2    0  503 -0.95553892570E+02 -0.97779852171E+02  0.17890707903E+02  0.22141697006E+03  0.17324535009E+03 0.  0.
        -24    2    3    3    0    0 -0.78325895827E+02 -0.14665717226E+02  0.58178711181E+02  0.12734265631E+03  0.80506896992E+02 0.  0.
          6    2    1    2  501    0  0.95553892570E+02  0.97779852171E+02  0.83258574813E+03  0.86144903304E+03  0.17379287287E+03 0.  0.
          5    1    5    5  501    0  0.40667895045E+02  0.81149383941E+02  0.41640535007E+03  0.42620957963E+03  0.47000000000E+01 0. -1.
        -13    1    5    5    0    0  0.30420936741E+02  0.65038502973E+02  0.20522775650E+03  0.21742555577E+03  0.00000000000E+00 0.  1.
         14    1    5    5    0    0  0.24465060784E+02 -0.48408034743E+02  0.21095264156E+03  0.21781389765E+03  0.00000000000E+00 0. -1.
         -5    1    3    3    0  503 -0.17227996744E+02 -0.83114134946E+02 -0.40288003278E+02  0.94074313751E+02  0.47000000000E+01 0.  1.
         13    1    4    4    0    0 -0.78796023652E+02  0.14005159025E+02  0.25788387345E+02  0.84083284573E+02  0.00000000000E+00 0. -1.
        -14    1    4    4    0    0  0.47012782542E+00 -0.28670876251E+02  0.32390323835E+02  0.43259371740E+02  0.00000000000E+00 0.  1.
<mgrwt>
<rscale>  2 0.22101547E+03</rscale>
<asrwt>0</asrwt>
<pdfrwt beam="1">  1       21 0.14871865E+00 0.22112306E+03</pdfrwt>
<pdfrwt beam="2">  1       21 0.17876120E-01 0.22112306E+03</pdfrwt>
<totfact> 0.85108562E+03</totfact>
</mgrwt>
</event>
<event>
12    1  0.1013215E-001  0.1825912E+03  0.7546771E-02  0.1165858E+00
         21   -1    0    0  501  502  0.00000000000E+00  0.00000000000E+00  0.66136015629E+03  0.66136015629E+03  0.00000000000E+00 0. -1.
         21   -1    0    0  502  503 -0.00000000000E+00 -0.00000000000E+00 -0.57239718809E+02  0.57239718809E+02  0.00000000000E+00 0. -1.
         -6    2    1    2    0  503  0.50896903413E+02 -0.12213394182E+02  0.17407258201E+03  0.25227129555E+03  0.17492821664E+03 0.  0.
        -24    2    3    3    0    0  0.54346169722E+02 -0.13274717281E+02  0.20304316866E+03  0.22270089252E+03  0.72383940938E+02 0.  0.
          6    2    1    2  501    0 -0.50896903413E+02  0.12213394182E+02  0.43004785547E+03  0.46632857955E+03  0.17257324340E+03 0.  0.
         24    2    5    5    0    0 -0.46644369958E+02  0.68589620253E+02  0.21507365069E+03  0.24399468283E+03  0.79978101856E+02 0.  0.
          5    1    5    5  501    0 -0.42525334553E+01 -0.56376226070E+02  0.21497420478E+03  0.22233389672E+03  0.47000000000E+01 0. -1.
        -13    1    6    6    0    0 -0.26310932288E+02  0.35761745165E+02  0.26924801643E+02  0.51924103446E+02  0.00000000000E+00 0.  1.
         14    1    6    6    0    0 -0.20333437669E+02  0.32827875088E+02  0.18814884904E+03  0.19207057939E+03  0.00000000000E+00 0. -1.
         -5    1    3    3    0  503 -0.34492663085E+01  0.10613230990E+01 -0.28970586648E+02  0.29570403033E+02  0.47000000000E+01 0.  1.
         13    1    4    4    0    0 -0.32862608409E+01  0.21202831315E+02  0.76363346813E+02  0.79320364993E+02  0.00000000000E+00 0. -1.
        -14    1    4    4    0    0  0.57632430563E+02 -0.34477548596E+02  0.12667982185E+03  0.14338052752E+03  0.00000000000E+00 0.  1.
<mgrwt>
<rscale>  2 0.18202484E+03</rscale>
<asrwt>0</asrwt>
<pdfrwt beam="1">  1       21 0.10174771E+00 0.18259119E+03</pdfrwt>
<pdfrwt beam="2">  1       21 0.88061110E-02 0.18259119E+03</pdfrwt>
<totfact> 0.80299701E+04</totfact>
</mgrwt>
</event>
<event>
12    1  0.1013215E-001  0.1786636E+03  0.7546771E-02  0.1169689E+00
         21   -1    0    0  501  502  0.00000000000E+00  0.00000000000E+00  0.17892487492E+03  0.17892487492E+03  0.00000000000E+00 0.  1.
         21   -1    0    0  502  503 -0.00000000000E+00 -0.00000000000E+00 -0.21381652982E+03  0.21381652982E+03  0.00000000000E+00 0.  1.
         -6    2    1    2    0  503  0.27681560735E+02 -0.37247091036E+02 -0.10009247271E+03  0.20479062675E+03  0.17253139748E+03 0.  0.
        -24    2    3    3    0    0 -0.34109408180E+02  0.10932582249E+02 -0.91617206117E+02  0.12583921827E+03  0.78478170959E+02 0.  0.
          6    2    1    2  501    0 -0.27681560735E+02  0.37247091036E+02  0.65200817805E+02  0.18795077799E+03  0.17006097056E+03 0.  0.
         24    2    5    5    0    0 -0.43172543757E+02 -0.47491021227E+02  0.22509873847E+02  0.91695259076E+02  0.61498459207E+02 0.  0.
          5    1    5    5  501    0  0.15490983022E+02  0.84738112263E+02  0.42690943958E+02  0.96255518911E+02  0.47000000000E+01 0. -1.
        -13    1    6    6    0    0 -0.39602039406E+01  0.14447393475E+02 -0.98862010577E-01  0.14980659770E+02  0.00000000000E+00 0.  1.
         14    1    6    6    0    0 -0.39212339816E+02 -0.61938414701E+02  0.22608735858E+02  0.76714599306E+02  0.00000000000E+00 0. -1.
         -5    1    3    3    0  503  0.61790968915E+02 -0.48179673285E+02 -0.84752665955E+01  0.78951408481E+02  0.47000000000E+01 0.  1.
         11    1    4    4    0    0  0.19175814339E+02  0.62624556772E+01 -0.49619583804E+00  0.20178612861E+02  0.00000000000E+00 0. -1.
        -12    1    4    4    0    0 -0.53285222519E+02  0.46701265720E+01 -0.91121010279E+02  0.10566060541E+03  0.00000000000E+00 0.  1.
<mgrwt>
<rscale>  2 0.17806452E+03</rscale>
<asrwt>0</asrwt>
<pdfrwt beam="1">  1       21 0.27526904E-01 0.17866364E+03</pdfrwt>
<pdfrwt beam="2">  1       21 0.32894851E-01 0.17866364E+03</pdfrwt>
<totfact> 0.11258269E+05</totfact>
</mgrwt>
</event>
<event>
12    1  0.1013215E-001  0.2436133E+03  0.7546771E-02  0.1117422E+00
         21   -1    0    0  503  502  0.00000000000E+00  0.00000000000E+00  0.10516848333E+03  0.10516848333E+03  0.00000000000E+00 0. -1.
         21   -1    0    0  501  503 -0.00000000000E+00 -0.00000000000E+00 -0.72318934401E+03  0.72318934401E+03  0.00000000000E+00 0. -1.
          6    2    1    2  501    0 -0.15766441411E+01 -0.17080311786E+03 -0.50329558476E+03  0.55915461897E+03  0.17369873748E+03 0.  0.
         24    2    3    3    0    0 -0.44362734004E+02 -0.31842031530E+02 -0.20715637919E+03  0.22921318163E+03  0.81504294696E+02 0.  0.
         -6    2    1    2    0  502  0.15766441411E+01  0.17080311786E+03 -0.11472527592E+03  0.26920320837E+03  0.17358654207E+03 0.  0.
        -24    2    5    5    0    0 -0.54340359737E+02  0.17122000748E+03 -0.87728787146E+02  0.20693134052E+03  0.53432891904E+02 0.  0.
          5    1    3    3  501    0  0.42786089863E+02 -0.13896108632E+03 -0.29613920557E+03  0.32994143734E+03  0.47000000000E+01 0. -1.
        -11    1    4    4    0    0  0.15513826027E+02  0.15379602577E+02 -0.47077957479E+02  0.51899374311E+02  0.00000000000E+00 0.  1.
         12    1    4    4    0    0 -0.59876560031E+02 -0.47221634107E+02 -0.16007842171E+03  0.17731380732E+03  0.00000000000E+00 0. -1.
         -5    1    5    5    0  502  0.55917003878E+02 -0.41688962636E+00 -0.26996488772E+02  0.62271867851E+02  0.47000000000E+01 0.  1.
         11    1    6    6    0    0  0.26009292806E+01  0.60145149067E+02 -0.13460932451E+02  0.61687928250E+02  0.00000000000E+00 0. -1.
        -12    1    6    6    0    0 -0.56941289018E+02  0.11107485841E+03 -0.74267854695E+02  0.14524341227E+03  0.00000000000E+00 0.  1.
<mgrwt>
<rscale>  2 0.24359331E+03</rscale>
<asrwt>0</asrwt>
<pdfrwt beam="1">  1       21 0.16179766E-01 0.24361330E+03</pdfrwt>
<pdfrwt beam="2">  1       21 0.11125990E+00 0.24361330E+03</pdfrwt>
<totfact> 0.21077828E+04</totfact>
</mgrwt>
</event>
<event>
12    1  0.1013215E-001  0.3404266E+03  0.7546771E-02  0.1066898E+00
         21   -1    0    0  503  502  0.00000000000E+00  0.00000000000E+00  0.19866502143E+03  0.19866502143E+03  0.00000000000E+00 0.  1.
         21   -1    0    0  501  503 -0.00000000000E+00 -0.00000000000E+00 -0.77901480178E+03  0.77901480178E+03  0.00000000000E+00 0.  1.
          6    2    1    2  501    0  0.20964367152E+03  0.20525627384E+03 -0.53714880381E+03  0.63452300569E+03  0.16736188441E+03 0.  0.
         24    2    3    3    0    0  0.27751875146E+02  0.53163418543E+02 -0.13405857511E+03  0.16684717278E+03  0.79181827817E+02 0.  0.
         -6    2    1    2    0  502 -0.20964367152E+03 -0.20525627384E+03 -0.43200976540E+02  0.34315681752E+03  0.17265477138E+03 0.  0.
        -24    2    5    5    0    0 -0.11640637391E+03 -0.38010448444E+02 -0.27219641204E+01  0.14738909745E+03  0.81981088546E+02 0.  0.
          5    1    3    3  501    0  0.18189179637E+03  0.15209285530E+03 -0.40309022870E+03  0.46767583291E+03  0.47000000000E+01 0. -1.
        -11    1    4    4    0    0  0.49605882695E+02  0.53900633453E+02 -0.12079991352E+03  0.14127505438E+03  0.00000000000E+00 0.  1.
         12    1    4    4    0    0 -0.21854007549E+02 -0.73721490977E+00 -0.13258661592E+02  0.25572118391E+02  0.00000000000E+00 0. -1.
         -5    1    5    5    0  502 -0.93237297605E+02 -0.16724582540E+03 -0.40479012419E+02  0.19576772007E+03  0.47000000000E+01 0.  1.
         11    1    6    6    0    0 -0.41179317178E+01  0.15666621210E+02  0.14505176061E+02  0.21743976507E+02  0.00000000000E+00 0. -1.
        -12    1    6    6    0    0 -0.11228844220E+03 -0.53677069654E+02 -0.17227140182E+02  0.12564512094E+03  0.00000000000E+00 0.  1.
<mgrwt>
<rscale>  2 0.33976126E+03</rscale>
<asrwt>0</asrwt>
<pdfrwt beam="1">  1       21 0.30563850E-01 0.34042661E+03</pdfrwt>
<pdfrwt beam="2">  1       21 0.11984843E+00 0.34042661E+03</pdfrwt>
<totfact> 0.49746660E+03</totfact>
</mgrwt>
</event>
<event>
12    1  0.1013215E-001  0.2057234E+03  0.7546771E-02  0.1145047E+00
         21   -1    0    0  503  502  0.00000000000E+00  0.00000000000E+00  0.35558195703E+02  0.35558195703E+02  0.00000000000E+00 0. -1.
         21   -1    0    0  501  503 -0.00000000000E+00 -0.00000000000E+00 -0.22818636818E+04  0.22818636818E+04  0.00000000000E+00 0. -1.
          6    2    1    2  501    0  0.82440799961E+02  0.74469736215E+02 -0.19254397578E+04  0.19363988199E+04  0.17314705224E+03 0.  0.
         24    2    3    3    0    0 -0.91867591110E+01 -0.81780904352E+01 -0.66531070276E+03  0.67023390245E+03  0.80149080357E+02 0.  0.
         -6    2    1    2    0  502 -0.82440799961E+02 -0.74469736215E+02 -0.32086572837E+03  0.38102305767E+03  0.17286274245E+03 0.  0.
        -24    2    5    5    0    0 -0.10361682220E+03 -0.88966548405E+02 -0.31746725365E+03  0.35471296243E+03  0.79902040003E+02 0.  0.
          5    1    3    3  501    0  0.91627559072E+02  0.82647826650E+02 -0.12601290550E+04  0.12661649174E+04  0.47000000000E+01 0. -1.
        -11    1    4    4    0    0  0.19228503843E+02 -0.23745544802E+02 -0.11562072412E+03  0.11958987459E+03  0.00000000000E+00 0.  1.
         12    1    4    4    0    0 -0.28415262954E+02  0.15567454366E+02 -0.54968997864E+03  0.55064402786E+03  0.00000000000E+00 0. -1.
         -5    1    5    5    0  502  0.21176022237E+02  0.14496812191E+02 -0.33984747223E+01  0.26310095247E+02  0.47000000000E+01 0.  1.
         11    1    6    6    0    0 -0.64770887399E+02 -0.27789015652E+02 -0.80903224865E+02  0.10729785198E+03  0.00000000000E+00 0. -1.
        -12    1    6    6    0    0 -0.38845934799E+02 -0.61177532754E+02 -0.23656402878E+03  0.24741511045E+03  0.00000000000E+00 0.  1.
<mgrwt>
<rscale>  2 0.20566359E+03</rscale>
<asrwt>0</asrwt>
<pdfrwt beam="1">  1       21 0.54704911E-02 0.20572343E+03</pdfrwt>
<pdfrwt beam="2">  1       21 0.35105599E+00 0.20572343E+03</pdfrwt>
<totfact> 0.39146229E+03</totfact>
</mgrwt>
</event>
<event>
12    1  0.1013215E-001  0.2993768E+03  0.7546771E-02  0.1085579E+00
         21   -1    0    0  503  502  0.00000000000E+00  0.00000000000E+00  0.69647023572E+03  0.69647023572E+03  0.00000000000E+00 0. -1.
         21   -1    0    0  501  503 -0.00000000000E+00 -0.00000000000E+00 -0.32906038051E+03  0.32906038051E+03  0.00000000000E+00 0. -1.
          6    2    1    2  501    0 -0.10869275720E+03  0.21887938949E+03 -0.21649008040E+03  0.36945155088E+03  0.17292828260E+03 0.  0.
         24    2    3    3    0    0 -0.12648053637E+03  0.16506592114E+03 -0.10952718577E+03  0.24830929859E+03  0.80107546074E+02 0.  0.
         -6    2    1    2    0  502  0.10869275720E+03 -0.21887938949E+03  0.58389993561E+03  0.65607906536E+03  0.17256390868E+03 0.  0.
        -24    2    5    5    0    0  0.17385419774E+02 -0.13492097760E+03  0.42871955240E+03  0.45736045493E+03  0.82898782311E+02 0.  0.
          5    1    3    3  501    0  0.17787779173E+02  0.53813468348E+02 -0.10696289463E+03  0.12114225229E+03  0.47000000000E+01 0. -1.
        -11    1    4    4    0    0  0.54931365573E+01  0.39343961744E+02 -0.28197784035E+02  0.48715879336E+02  0.00000000000E+00 0.  1.
         12    1    4    4    0    0 -0.13197367293E+03  0.12572195940E+03 -0.81329401737E+02  0.19959341925E+03  0.00000000000E+00 0. -1.
         -5    1    5    5    0  502  0.91307337425E+02 -0.83958411892E+02  0.15518038322E+03  0.19871861043E+03  0.47000000000E+01 0.  1.
         13    1    6    6    0    0  0.43710619707E+02 -0.97046204361E+02  0.23114381953E+03  0.25447209938E+03  0.00000000000E+00 0. -1.
        -14    1    6    6    0    0 -0.26325199933E+02 -0.37874773234E+02  0.19757573286E+03  0.20288835554E+03  0.00000000000E+00 0.  1.
<mgrwt>
<rscale>  2 0.29932425E+03</rscale>
<asrwt>0</asrwt>
<pdfrwt beam="1">  1       21 0.10714927E+00 0.29937684E+03</pdfrwt>
<pdfrwt beam="2">  1       21 0.50624674E-01 0.29937684E+03</pdfrwt>
<totfact> 0.23922988E+03</totfact>
</mgrwt>
</event>
<event>
12    1  0.1013215E-001  0.2323766E+03  0.7546771E-02  0.1127346E+00
         21   -1    0    0  501  502  0.00000000000E+00  0.00000000000E+00  0.20701634497E+03  0.20701634497E+03  0.00000000000E+00 0. -1.
         21   -1    0    0  502  503 -0.00000000000E+00 -0.00000000000E+00 -0.24935159910E+03  0.24935159910E+03  0.00000000000E+00 0.  1.
         -6    2    1    2    0  503 -0.13382168412E+03 -0.34952674581E+01 -0.47348390906E+02  0.23715131255E+03  0.18994318858E+03 0.  0.
        -24    2    3    3    0    0 -0.80891491466E+02  0.39002670886E+02  0.40033136751E+02  0.12640249118E+03  0.79437371631E+02 0.  0.
          6    2    1    2  501    0  0.13382168412E+03  0.34952674581E+01  0.50131367764E+01  0.21921663152E+03  0.17352331244E+03 0.  0.
         24    2    5    5    0    0  0.47086681886E+02 -0.58897651499E+02  0.14983126133E+02  0.11180467857E+03  0.81176986385E+02 0.  0.
          5    1    5    5  501    0  0.86735002235E+02  0.62392918957E+02 -0.99699893562E+01  0.10741195295E+03  0.47000000000E+01 0. -1.
        -13    1    6    6    0    0  0.60828575582E+02 -0.69799897610E+02  0.80225392039E+01  0.92932784575E+02  0.00000000000E+00 0.  1.
         14    1    6    6    0    0 -0.13741893695E+02  0.10902246111E+02  0.69605869286E+01  0.18871893996E+02  0.00000000000E+00 0. -1.
         -5    1    3    3    0  503 -0.52930192656E+02 -0.42497938344E+02 -0.87381527656E+02  0.11074882136E+03  0.47000000000E+01 0.  1.
         11    1    4    4    0    0 -0.81840956360E+02  0.44480176571E+02  0.75563438896E+01  0.93453339045E+02  0.00000000000E+00 0. -1.
        -12    1    4    4    0    0  0.94946489423E+00 -0.54775056851E+01  0.32476792861E+02  0.32949152139E+02  0.00000000000E+00 0.  1.
<mgrwt>
<rscale>  2 0.22899935E+03</rscale>
<asrwt>0</asrwt>
<pdfrwt beam="1">  1       21 0.31848668E-01 0.23237658E+03</pdfrwt>
<pdfrwt beam="2">  1       21 0.38361785E-01 0.23237658E+03</pdfrwt>
<totfact> 0.61049740E+04</totfact>
</mgrwt>
</event>
<event>
12    1  0.1013215E-001  0.1835789E+03  0.7546771E-02  0.1165904E+00
         21   -1    0    0  501  502  0.00000000000E+00  0.00000000000E+00  0.33197489906E+03  0.33197489906E+03  0.00000000000E+00 0. -1.
         21   -1    0    0  502  503 -0.00000000000E+00 -0.00000000000E+00 -0.12702342972E+03  0.12702342972E+03  0.00000000000E+00 0. -1.
         -6    2    1    2    0  503 -0.13856194453E+02 -0.30677500593E+02 -0.57352643761E+01  0.18366847278E+03  0.18046637213E+03 0.  0.
        -24    2    3    3    0    0  0.10149768336E+02  0.24151578608E+02 -0.38819777294E+02  0.11511784062E+03  0.10516095080E+03 0.  0.
          6    2    1    2  501    0  0.13856194453E+02  0.30677500593E+02  0.21068673371E+03  0.27532985600E+03  0.17402450021E+03 0.  0.
         24    2    5    5    0    0 -0.48351672927E+02  0.15791996001E+02  0.85713686795E+02  0.13486011026E+03  0.90846804147E+02 0.  0.
          5    1    5    5  501    0  0.62207867380E+02  0.14885504591E+02  0.12497304692E+03  0.14046974573E+03  0.47000000000E+01 0. -1.
        -13    1    6    6    0    0 -0.33143301236E+02  0.20464531012E+02 -0.80338768367E+01  0.39772083468E+02  0.00000000000E+00 0.  1.
         14    1    6    6    0    0 -0.15208371691E+02 -0.46725350110E+01  0.93747563632E+02  0.95088026795E+02  0.00000000000E+00 0. -1.
         -5    1    3    3    0  503 -0.24005962789E+02 -0.54829079201E+02  0.33084512918E+02  0.68550632167E+02  0.47000000000E+01 0.  1.
         11    1    4    4    0    0  0.36377487906E+01 -0.41787742158E+02 -0.11929536329E+02  0.43609201414E+02  0.00000000000E+00 0. -1.
        -12    1    4    4    0    0  0.65120195456E+01  0.65939320766E+02 -0.26890240965E+02  0.71508639204E+02  0.00000000000E+00 0.  1.
<mgrwt>
<rscale>  2 0.18197585E+03</rscale>
<asrwt>0</asrwt>
<pdfrwt beam="1">  1       21 0.51073061E-01 0.18357891E+03</pdfrwt>
<pdfrwt beam="2">  1       21 0.19542066E-01 0.18357891E+03</pdfrwt>
<totfact> 0.88171968E+04</totfact>
</mgrwt>
</event>
<event>
12    1  0.1013215E-001  0.3115993E+03  0.7546771E-02  0.1079613E+00
         21   -1    0    0  501  502  0.00000000000E+00  0.00000000000E+00  0.39370434055E+03  0.39370434055E+03  0.00000000000E+00 0.  1.
         21   -1    0    0  502  503 -0.00000000000E+00 -0.00000000000E+00 -0.59885882511E+03  0.59885882511E+03  0.00000000000E+00 0. -1.
         -6    2    1    2    0  503  0.20405234522E+03  0.15943755455E+03 -0.48328690168E+03  0.57488890803E+03  0.17283904030E+03 0.  0.
        -24    2    3    3    0    0  0.18631262246E+03  0.14961389274E+03 -0.49109035550E+03  0.55265861368E+03  0.84646889030E+02 0.  0.
          6    2    1    2  501    0 -0.20405234522E+03 -0.15943755455E+03  0.27813241711E+03  0.41767425763E+03  0.17331027278E+03 0.  0.
         24    2    5    5    0    0 -0.63953092375E+02 -0.13432902793E+03  0.14238927907E+03  0.22093451004E+03  0.80019154985E+02 0.  0.
          5    1    5    5  501    0 -0.14009925284E+03 -0.25108526616E+02  0.13574313804E+03  0.19673974759E+03  0.47000000000E+01 0. -1.
        -11    1    6    6    0    0 -0.18896428645E+02 -0.21623875318E+02  0.78881616876E+02  0.83946271390E+02  0.00000000000E+00 0.  1.
         12    1    6    6    0    0 -0.45056663730E+02 -0.11270515261E+03  0.63507662198E+02  0.13698823865E+03  0.00000000000E+00 0. -1.
         -5    1    3    3    0  503  0.17739722763E+02  0.98236618073E+01  0.78034538259E+01  0.22230294344E+02  0.47000000000E+01 0.  1.
         11    1    4    4    0    0 -0.27107724774E+01  0.27094921370E+02 -0.69896184027E+02  0.75013062816E+02  0.00000000000E+00 0. -1.
        -12    1    4    4    0    0  0.18902339493E+03  0.12251897137E+03 -0.42119417147E+03  0.47764555087E+03  0.00000000000E+00 0.  1.
<mgrwt>
<rscale>  2 0.31153385E+03</rscale>
<asrwt>0</asrwt>
<pdfrwt beam="1">  1       21 0.60569899E-01 0.31159933E+03</pdfrwt>
<pdfrwt beam="2">  1       21 0.92132126E-01 0.31159933E+03</pdfrwt>
<totfact> 0.23244980E+03</totfact>
</mgrwt>
</event>
<event>
12    1  0.1013215E-001  0.2106028E+03  0.7546771E-02  0.1141170E+00
         21   -1    0    0  501  502  0.00000000000E+00  0.00000000000E+00  0.55938874104E+02  0.55938874104E+02  0.00000000000E+00 0.  1.
         21   -1    0    0  502  503 -0.00000000000E+00 -0.00000000000E+00 -0.84515137109E+03  0.84515137109E+03  0.00000000000E+00 0.  1.
         -6    2    1    2    0  503 -0.85571424038E+02 -0.82693116739E+02 -0.28129306930E+03  0.35139625759E+03  0.17376109703E+03 0.  0.
        -24    2    3    3    0    0 -0.12686835869E+02 -0.34650887962E+02 -0.45457567661E+02  0.99879473312E+02  0.80918964962E+02 0.  0.
          6    2    1    2  501    0  0.85571424038E+02  0.82693116739E+02 -0.50791942768E+03  0.54969398760E+03  0.17326486898E+03 0.  0.
         24    2    5    5    0    0  0.64129406512E+02  0.10462724906E+02 -0.13766513689E+03  0.17182189355E+03  0.79680761756E+02 0.  0.
          5    1    5    5  501    0  0.21442017526E+02  0.72230391833E+02 -0.37025429079E+03  0.37787209406E+03  0.47000000000E+01 0. -1.
        -11    1    6    6    0    0  0.73337304445E+02  0.31785841223E+01 -0.64490169490E+02  0.97711031010E+02  0.00000000000E+00 0.  1.
         12    1    6    6    0    0 -0.92078979330E+01  0.72841407838E+01 -0.73174967405E+02  0.74110862537E+02  0.00000000000E+00 0. -1.
         -5    1    3    3    0  503 -0.72884588169E+02 -0.48042228777E+02 -0.23583550164E+03  0.25151678428E+03  0.47000000000E+01 0.  1.
         13    1    4    4    0    0  0.12561109286E+02  0.12152652741E+02 -0.43257337700E+02  0.46654750026E+02  0.00000000000E+00 0. -1.
        -14    1    4    4    0    0 -0.25247945156E+02 -0.46803540703E+02 -0.22002299615E+01  0.53224723285E+02  0.00000000000E+00 0.  1.
<mgrwt>
<rscale>  2 0.21050042E+03</rscale>
<asrwt>0</asrwt>
<pdfrwt beam="1">  1       21 0.86059811E-02 0.21060280E+03</pdfrwt>
<pdfrwt beam="2">  1       21 0.13002328E+00 0.21060280E+03</pdfrwt>
<totfact> 0.45199923E+04</totfact>
</mgrwt>
</event>
<event>
12    1  0.1013215E-001  0.2646025E+03  0.7546771E-02  0.1104519E+00
         21   -1    0    0  501  502  0.00000000000E+00  0.00000000000E+00  0.28066851712E+03  0.28066851712E+03  0.00000000000E+00 0.  1.
         21   -1    0    0  502  503 -0.00000000000E+00 -0.00000000000E+00 -0.28892666525E+03  0.28892666525E+03  0.00000000000E+00 0. -1.
         -6    2    1    2    0  503 -0.81126729472E+02 -0.18291269885E+03  0.10206574204E+03  0.28360516372E+03  0.17313541392E+03 0.  0.
        -24    2    3    3    0    0 -0.49281492095E+02 -0.25066301706E+02  0.65766123719E+02  0.11847080470E+03  0.81566927083E+02 0.  0.
          6    2    1    2  501    0  0.81126729472E+02  0.18291269885E+03 -0.11032389017E+03  0.28599001866E+03  0.17198932640E+03 0.  0.
         24    2    5    5    0    0 -0.15135834735E+02  0.11036495921E+03 -0.26843164891E+02  0.13929040282E+03  0.79194337560E+02 0.  0.
          5    1    5    5  501    0  0.96262564207E+02  0.72547739640E+02 -0.83480725275E+02  0.14669961584E+03  0.47000000000E+01 0. -1.
        -11    1    6    6    0    0  0.38516352614E+01  0.10851279380E+03 -0.28254874378E+01  0.10861788477E+03  0.00000000000E+00 0.  1.
         12    1    6    6    0    0 -0.18987469996E+02  0.18521654163E+01 -0.24017677454E+02  0.30672518055E+02  0.00000000000E+00 0. -1.
         -5    1    3    3    0  503 -0.31845237377E+02 -0.15784639715E+03  0.36299618318E+02  0.16513435901E+03  0.47000000000E+01 0.  1.
         13    1    4    4    0    0  0.15226955158E+02 -0.63087219749E+01 -0.83184045267E+01  0.18462285618E+02  0.00000000000E+00 0. -1.
        -14    1    4    4    0    0 -0.64508447254E+02 -0.18757579731E+02  0.74084528246E+02  0.10000851909E+03  0.00000000000E+00 0.  1.
<mgrwt>
<rscale>  2 0.26441516E+03</rscale>
<asrwt>0</asrwt>
<pdfrwt beam="1">  1       21 0.43179772E-01 0.26460248E+03</pdfrwt>
<pdfrwt beam="2">  1       21 0.44450256E-01 0.26460248E+03</pdfrwt>
<totfact> 0.24160861E+04</totfact>
</mgrwt>
</event>
<event>
12    1  0.1013215E-001  0.1738039E+03  0.7546771E-02  0.1173950E+00
         21   -1    0    0  503  502  0.00000000000E+00  0.00000000000E+00  0.21427241220E+03  0.21427241220E+03  0.00000000000E+00 0. -1.
         21   -1    0    0  501  503 -0.00000000000E+00 -0.00000000000E+00 -0.14133417294E+03  0.14133417294E+03  0.00000000000E+00 0. -1.
          6    2    1    2  501    0  0.20678698985E+02 -0.16709731185E+02  0.45850824051E+02  0.17970455641E+03  0.17171082034E+03 0.  0.
         24    2    3    3    0    0  0.65736886934E+02  0.30054955138E+02  0.24627657017E+02  0.11122325234E+03  0.80866876655E+02 0.  0.
         -6    2    1    2    0  502 -0.20678698985E+02  0.16709731185E+02  0.27087415212E+02  0.17590202873E+03  0.17175846978E+03 0.  0.
        -24    2    5    5    0    0  0.35567601470E+02  0.42999417874E+02  0.49818739906E+02  0.10961781444E+03  0.80125864646E+02 0.  0.
          5    1    3    3  501    0 -0.45058187949E+02 -0.46764686323E+02  0.21223167034E+02  0.68481304069E+02  0.47000000000E+01 0. -1.
        -11    1    4    4    0    0  0.73067980329E+02  0.36706858491E+02 -0.30518380825E+01  0.81826871657E+02  0.00000000000E+00 0.  1.
         12    1    4    4    0    0 -0.73310933944E+01 -0.66519033532E+01  0.27679495099E+02  0.29396380688E+02  0.00000000000E+00 0. -1.
         -5    1    5    5    0  502 -0.56246300456E+02 -0.26289686689E+02 -0.22731324694E+02  0.66284214286E+02  0.47000000000E+01 0.  1.
         13    1    6    6    0    0  0.44291679229E+02  0.44685684237E+01 -0.18755683765E+01  0.44556017656E+02  0.00000000000E+00 0. -1.
        -14    1    6    6    0    0 -0.87240777585E+01  0.38530849451E+02  0.51694308282E+02  0.65061796785E+02  0.00000000000E+00 0.  1.
<mgrwt>
<rscale>  2 0.17379213E+03</rscale>
<asrwt>0</asrwt>
<pdfrwt beam="1">  1       21 0.32964987E-01 0.17380390E+03</pdfrwt>
<pdfrwt beam="2">  1       21 0.21743719E-01 0.17380390E+03</pdfrwt>
<totfact> 0.17582733E+05</totfact>
</mgrwt>
</event>
<event>
12    1  0.1013215E-001  0.2212664E+03  0.7546771E-02  0.1133139E+00
         21   -1    0    0  501  502  0.00000000000E+00  0.00000000000E+00  0.31163096611E+03  0.31163096611E+03  0.00000000000E+00 0.  1.
         21   -1    0    0  502  503 -0.00000000000E+00 -0.00000000000E+00 -0.18673313128E+03  0.18673313128E+03  0.00000000000E+00 0.  1.
         -6    2    1    2    0  503 -0.44485776521E+02 -0.12990853168E+03  0.16282826153E+03  0.27387018655E+03  0.17215291288E+03 0.  0.
        -24    2    3    3    0    0 -0.74160961187E+02 -0.12087469935E+03  0.73231058161E+02  0.17893876097E+03  0.80905816778E+02 0.  0.
          6    2    1    2  501    0  0.44485776521E+02  0.12990853168E+03 -0.37930426707E+02  0.22449391084E+03  0.17350385535E+03 0.  0.
         24    2    5    5    0    0  0.45289807008E+02  0.89378598037E+02 -0.91182659009E+02  0.15740283669E+03  0.80135356045E+02 0.  0.
          5    1    5    5  501    0 -0.80403048687E+00  0.40529933639E+02  0.53252232301E+02  0.67091074152E+02  0.47000000000E+01 0. -1.
        -13    1    6    6    0    0  0.49400714887E+02  0.48819282796E+02 -0.15084103453E+02  0.71072379875E+02  0.00000000000E+00 0.  1.
         14    1    6    6    0    0 -0.41109078784E+01  0.40559315240E+02 -0.76098555555E+02  0.86330456815E+02  0.00000000000E+00 0. -1.
         -5    1    3    3    0  503  0.29675184666E+02 -0.90338323209E+01  0.89597203370E+02  0.94931425583E+02  0.47000000000E+01 0.  1.
         11    1    4    4    0    0  0.18776783065E+01 -0.55961149635E+02  0.17216281652E+01  0.56019103419E+02  0.00000000000E+00 0. -1.
        -12    1    4    4    0    0 -0.76038639494E+02 -0.64913549719E+02  0.71509429995E+02  0.12291965755E+03  0.00000000000E+00 0.  1.
<mgrwt>
<rscale>  2 0.22100144E+03</rscale>
<asrwt>0</asrwt>
<pdfrwt beam="1">  1       21 0.47943226E-01 0.22126635E+03</pdfrwt>
<pdfrwt beam="2">  1       21 0.28728174E-01 0.22126635E+03</pdfrwt>
<totfact> 0.47547196E+04</totfact>
</mgrwt>
</event>
<event>
12    1  0.1013215E-001  0.1854812E+03  0.7546771E-02  0.1162843E+00
         21   -1    0    0  501  502  0.00000000000E+00  0.00000000000E+00  0.23009361182E+03  0.23009361182E+03  0.00000000000E+00 0.  1.
         21   -1    0    0  502  503 -0.00000000000E+00 -0.00000000000E+00 -0.15143919562E+03  0.15143919562E+03  0.00000000000E+00 0.  1.
         -6    2    1    2    0  503 -0.59710483285E+02 -0.29226936408E+02  0.13700697997E+02  0.18598654831E+03  0.17315811099E+03 0.  0.
        -24    2    3    3    0    0 -0.21991570622E+02 -0.66440807448E+01 -0.58214902272E+02  0.10156708785E+03  0.79994534190E+02 0.  0.
          6    2    1    2  501    0  0.59710483285E+02  0.29226936408E+02  0.64953718198E+02  0.19554625913E+03  0.17204591924E+03 0.  0.
         24    2    5    5    0    0  0.64875244278E+01  0.24048775589E+02 -0.26156058987E+02  0.89798549003E+02  0.82214405069E+02 0.  0.
          5    1    5    5  501    0  0.53222958858E+02  0.51781608193E+01  0.91109777184E+02  0.10574771013E+03  0.47000000000E+01 0. -1.
        -13    1    6    6    0    0  0.30649202040E+02  0.42948589940E+02 -0.26665942371E+02  0.59118757142E+02  0.00000000000E+00 0.  1.
         14    1    6    6    0    0 -0.24161677612E+02 -0.18899814352E+02  0.50988338428E+00  0.30679791861E+02  0.00000000000E+00 0. -1.
         -5    1    3    3    0  503 -0.37718912664E+02 -0.22582855663E+02  0.71915600269E+02  0.84419460461E+02  0.47000000000E+01 0.  1.
         11    1    4    4    0    0  0.40686210392E+01  0.33119385995E+02 -0.12561993133E+02  0.35654608079E+02  0.00000000000E+00 0. -1.
        -12    1    4    4    0    0 -0.26060191661E+02 -0.39763466739E+02 -0.45652909139E+02  0.65912479770E+02  0.00000000000E+00 0.  1.
<mgrwt>
<rscale>  2 0.18522122E+03</rscale>
<asrwt>0</asrwt>
<pdfrwt beam="1">  1       21 0.35399017E-01 0.18548123E+03</pdfrwt>
<pdfrwt beam="2">  1       21 0.23298338E-01 0.18548123E+03</pdfrwt>
<totfact> 0.13358743E+05</totfact>
</mgrwt>
</event>
<event>
12    1  0.1013215E-001  0.1937530E+03  0.7546771E-02  0.1155792E+00
         21   -1    0    0  501  502  0.00000000000E+00  0.00000000000E+00  0.38884371309E+03  0.38884371309E+03  0.00000000000E+00 0. -1.
         21   -1    0    0  502  503 -0.00000000000E+00 -0.00000000000E+00 -0.24978229896E+03  0.24978229896E+03  0.00000000000E+00 0. -1.
         -6    2    1    2    0  503  0.24887321023E+02 -0.75542732096E+02 -0.18158815504E+03  0.26554566358E+03  0.17667529051E+03 0.  0.
        -24    2    3    3    0    0 -0.34048912010E+01 -0.33564941149E+02 -0.19431182034E+03  0.21313797460E+03  0.80823970057E+02 0.  0.
          6    2    1    2  501    0 -0.24887321023E+02  0.75542732096E+02  0.32064956917E+03  0.37308034846E+03  0.17333988890E+03 0.  0.
         24    2    5    5    0    0  0.28637798681E+02  0.35592268486E+02  0.28015884921E+03  0.29483351859E+03  0.79692470208E+02 0.  0.
          5    1    5    5  501    0 -0.53525119704E+02  0.39950463610E+02  0.40490719958E+02  0.78246829870E+02  0.47000000000E+01 0. -1.
        -11    1    6    6    0    0 -0.13613203562E+02  0.27334724855E+02  0.21220290466E+03  0.21438885055E+03  0.00000000000E+00 0.  1.
         12    1    6    6    0    0  0.42251002243E+02  0.82575436315E+01  0.67955944549E+02  0.80444668045E+02  0.00000000000E+00 0. -1.
         -5    1    3    3    0  503  0.28292212224E+02 -0.41977790947E+02  0.12723665302E+02  0.52407688978E+02  0.47000000000E+01 0.  1.
         11    1    4    4    0    0 -0.22768829009E+01 -0.46116539686E+02 -0.49172641123E+02  0.67452709830E+02  0.00000000000E+00 0. -1.
        -12    1    4    4    0    0 -0.11280083001E+01  0.12551598536E+02 -0.14513917921E+03  0.14568526477E+03  0.00000000000E+00 0.  1.
<mgrwt>
<rscale>  2 0.19298942E+03</rscale>
<asrwt>0</asrwt>
<pdfrwt beam="1">  1       21 0.59822109E-01 0.19375304E+03</pdfrwt>
<pdfrwt beam="2">  1       21 0.38428046E-01 0.19375304E+03</pdfrwt>
<totfact> 0.17018488E+04</totfact>
</mgrwt>
</event>
<event>
12    1  0.1013215E-001  0.1780607E+03  0.7546771E-02  0.1170647E+00
         21   -1    0    0  503  502  0.00000000000E+00  0.00000000000E+00  0.11683462212E+03  0.11683462212E+03  0.00000000000E+00 0. -1.
         21   -1    0    0  501  503 -0.00000000000E+00 -0.00000000000E+00 -0.26774674096E+03  0.26774674096E+03  0.00000000000E+00 0. -1.
          6    2    1    2  501    0  0.18887799559E+02  0.94245114506E+01 -0.93698781996E+02  0.20120900001E+03  0.17680506087E+03 0.  0.
         24    2    3    3    0    0  0.59705961951E+02  0.38361662822E+02 -0.14166346728E+02  0.10712935625E+03  0.78991104075E+02 0.  0.
         -6    2    1    2    0  502 -0.18887799559E+02 -0.94245114506E+01 -0.57213336854E+02  0.18337236307E+03  0.17293492197E+03 0.  0.
        -24    2    5    5    0    0  0.34149393591E+02 -0.70059414274E+02 -0.33094155065E+02  0.99150274357E+02  0.51585377719E+02 0.  0.
          5    1    3    3  501    0 -0.40818162393E+02 -0.28937151372E+02 -0.79532435267E+02  0.94079643761E+02  0.47000000000E+01 0. -1.
        -11    1    4    4    0    0  0.37083786810E+02 -0.15405540959E+02 -0.25688155151E+02  0.47669898798E+02  0.00000000000E+00 0.  1.
         12    1    4    4    0    0  0.22622175142E+02  0.53767203782E+02  0.11521808422E+02  0.59459457447E+02  0.00000000000E+00 0. -1.
         -5    1    5    5    0  502 -0.53037193150E+02  0.60634902824E+02 -0.24119181789E+02  0.84222088717E+02  0.47000000000E+01 0.  1.
         13    1    6    6    0    0  0.41703486176E+02 -0.26986661149E+02 -0.19378328207E+02  0.53319604680E+02  0.00000000000E+00 0. -1.
        -14    1    6    6    0    0 -0.75540925845E+01 -0.43072753125E+02 -0.13715826858E+02  0.45830669676E+02  0.00000000000E+00 0.  1.
<mgrwt>
<rscale>  2 0.17709223E+03</rscale>
<asrwt>0</asrwt>
<pdfrwt beam="1">  1       21 0.17974558E-01 0.17806066E+03</pdfrwt>
<pdfrwt beam="2">  1       21 0.41191806E-01 0.17806066E+03</pdfrwt>
<totfact> 0.16050709E+05</totfact>
</mgrwt>
</event>
<event>
12    1  0.1013215E-001  0.1983629E+03  0.7546771E-02  0.1151285E+00
         21   -1    0    0  503  502  0.00000000000E+00  0.00000000000E+00  0.59041542944E+03  0.59041542944E+03  0.00000000000E+00 0. -1.
         21   -1    0    0  501  503 -0.00000000000E+00 -0.00000000000E+00 -0.39623654466E+03  0.39623654466E+03  0.00000000000E+00 0.  1.
          6    2    1    2  501    0  0.96759062033E+02 -0.63762358791E+00 -0.35304029729E+03  0.40458955043E+03  0.17231520582E+03 0.  0.
         24    2    3    3    0    0  0.12149860125E+03 -0.39126106829E+02 -0.25768984778E+03  0.29872545659E+03  0.80870751356E+02 0.  0.
         -6    2    1    2    0  502 -0.96759062033E+02  0.63762358791E+00  0.54721918207E+03  0.58206242367E+03  0.17316208931E+03 0.  0.
        -24    2    5    5    0    0 -0.20680873568E+02  0.57347458844E+02  0.21945031079E+03  0.24080237743E+03  0.78172351286E+02 0.  0.
          5    1    3    3  501    0 -0.24739539215E+02  0.38488483241E+02 -0.95350449506E+02  0.10586409384E+03  0.47000000000E+01 0. -1.
        -13    1    4    4    0    0  0.24542332839E+02 -0.42307012256E+02 -0.12601986335E+03  0.13517845740E+03  0.00000000000E+00 0.  1.
         14    1    4    4    0    0  0.96956268410E+02  0.31809054273E+01 -0.13166998444E+03  0.16354699919E+03  0.00000000000E+00 0. -1.
         -5    1    5    5    0  502 -0.76078188465E+02 -0.56709835256E+02  0.32776887129E+03  0.34126004624E+03  0.47000000000E+01 0.  1.
         13    1    6    6    0    0  0.55779822578E+01  0.67146884402E+02  0.18165941225E+03  0.19375231619E+03  0.00000000000E+00 0. -1.
        -14    1    6    6    0    0 -0.26258855825E+02 -0.97994255574E+01  0.37790898536E+02  0.47050061239E+02  0.00000000000E+00 0.  1.
<mgrwt>
<rscale>  2 0.19817791E+03</rscale>
<asrwt>0</asrwt>
<pdfrwt beam="1">  1       21 0.90833144E-01 0.19836288E+03</pdfrwt>
<pdfrwt beam="2">  1       21 0.60959468E-01 0.19836288E+03</pdfrwt>
<totfact> 0.25626072E+03</totfact>
</mgrwt>
</event>
<event>
12    1  0.1013215E-001  0.2114739E+03  0.7546771E-02  0.1140984E+00
         21   -1    0    0  501  502  0.00000000000E+00  0.00000000000E+00  0.35917450926E+02  0.35917450926E+02  0.00000000000E+00 0.  1.
         21   -1    0    0  502  503 -0.00000000000E+00 -0.00000000000E+00 -0.13865495560E+04  0.13865495560E+04  0.00000000000E+00 0.  1.
         -6    2    1    2    0  503 -0.23219359454E+02  0.10794579623E+03 -0.92006154680E+03  0.94405214810E+03  0.18036012547E+03 0.  0.
        -24    2    3    3    0    0 -0.57477817767E+02  0.23974116481E+02 -0.67900734893E+03  0.68645924975E+03  0.79352781179E+02 0.  0.
          6    2    1    2  501    0  0.23219359454E+02 -0.10794579623E+03 -0.43057055831E+03  0.47841485886E+03  0.17691336274E+03 0.  0.
         24    2    5    5    0    0  0.43357748613E+02 -0.52992738395E+02 -0.10732971250E+03  0.14988460502E+03  0.79105012172E+02 0.  0.
          5    1    5    5  501    0 -0.20138389159E+02 -0.54953057840E+02 -0.32324084581E+03  0.32853025384E+03  0.47000000000E+01 0. -1.
        -13    1    6    6    0    0 -0.14367490585E+02 -0.27267281583E+02 -0.74803872340E+01  0.31715699958E+02  0.00000000000E+00 0.  1.
         14    1    6    6    0    0  0.57725239199E+02 -0.25725456811E+02 -0.99849325262E+02  0.11816890506E+03  0.00000000000E+00 0. -1.
         -5    1    3    3    0  503  0.34258458313E+02  0.83971679753E+02 -0.24105419787E+03  0.25759289834E+03  0.47000000000E+01 0.  1.
         11    1    4    4    0    0 -0.44682150358E+02 -0.15819010197E+02 -0.51619821443E+03  0.51836987974E+03  0.00000000000E+00 0. -1.
        -12    1    4    4    0    0 -0.12795667409E+02  0.39793126678E+02 -0.16280913450E+03  0.16808937001E+03  0.00000000000E+00 0.  1.
<mgrwt>
<rscale>  2 0.21073708E+03</rscale>
<asrwt>0</asrwt>
<pdfrwt beam="1">  1       21 0.55257620E-02 0.21147390E+03</pdfrwt>
<pdfrwt beam="2">  1       21 0.21331531E+00 0.21147390E+03</pdfrwt>
<totfact> 0.24758249E+04</totfact>
</mgrwt>
</event>
<event>
12    1  0.1013215E-001  0.1952564E+03  0.7546771E-02  0.1153906E+00
         21   -1    0    0  503  502  0.00000000000E+00  0.00000000000E+00  0.35664052982E+03  0.35664052982E+03  0.00000000000E+00 0. -1.
         21   -1    0    0  501  503 -0.00000000000E+00 -0.00000000000E+00 -0.10695868371E+03  0.10695868371E+03  0.00000000000E+00 0. -1.
          6    2    1    2  501    0  0.45510208704E+02 -0.76638237515E+02  0.11211915604E+03  0.22475080666E+03  0.17319821419E+03 0.  0.
         24    2    3    3    0    0  0.25302730975E+02 -0.76269841612E+02  0.38713251971E+01  0.11453211154E+03  0.81518712458E+02 0.  0.
         -6    2    1    2    0  502 -0.45510208704E+02  0.76638237515E+02  0.13756269007E+03  0.23884840687E+03  0.17372526937E+03 0.  0.
        -24    2    5    5    0    0 -0.81494867917E+01  0.61784956633E+02  0.16224250784E+03  0.19143926324E+03  0.80265591360E+02 0.  0.
          5    1    3    3  501    0  0.20207477729E+02 -0.36839590305E+00  0.10824783084E+03  0.11021869512E+03  0.47000000000E+01 0. -1.
        -13    1    4    4    0    0  0.34492652582E+02  0.13022273309E+01 -0.82325163216E+01  0.35485394223E+02  0.00000000000E+00 0.  1.
         14    1    4    4    0    0 -0.91899216069E+01 -0.77572068943E+02  0.12103841519E+02  0.79046717318E+02  0.00000000000E+00 0. -1.
         -5    1    5    5    0  502 -0.37360721913E+02  0.14853280881E+02 -0.24679817770E+02  0.47409143632E+02  0.47000000000E+01 0.  1.
         11    1    6    6    0    0 -0.44150477599E+01  0.80763020307E+02  0.11700665479E+03  0.14224174971E+03  0.00000000000E+00 0. -1.
        -12    1    6    6    0    0 -0.37344390318E+01 -0.18978063674E+02  0.45235853051E+02  0.49197513524E+02  0.00000000000E+00 0.  1.
<mgrwt>
<rscale>  2 0.19513911E+03</rscale>
<asrwt>0</asrwt>
<pdfrwt beam="1">  1       21 0.54867773E-01 0.19525642E+03</pdfrwt>
<pdfrwt beam="2">  1       21 0.16455182E-01 0.19525642E+03</pdfrwt>
<totfact> 0.10373351E+05</totfact>
</mgrwt>
</event>
<event>
12    1  0.1013215E-001  0.1838287E+03  0.7546771E-02  0.1164565E+00
         21   -1    0    0  501  502  0.00000000000E+00  0.00000000000E+00  0.32079605986E+02  0.32079605986E+02  0.00000000000E+00 0. -1.
         21   -1    0    0  502  503 -0.00000000000E+00 -0.00000000000E+00 -0.12486582510E+04  0.12486582510E+04  0.00000000000E+00 0. -1.
         -6    2    1    2    0  503 -0.45912390067E+02  0.39097094532E+02 -0.86550832750E+03  0.88445091167E+03  0.17179120997E+03 0.  0.
        -24    2    3    3    0    0 -0.57813601958E+02  0.31905759737E+02 -0.86330309346E+03  0.86960816267E+03  0.81029225208E+02 0.  0.
          6    2    1    2  501    0  0.45912390067E+02 -0.39097094532E+02 -0.35107031748E+03  0.39628694528E+03  0.17365611081E+03 0.  0.
         24    2    5    5    0    0  0.52762855703E+02  0.38418674096E+02 -0.23135627761E+03  0.25342629777E+03  0.80244923516E+02 0.  0.
          5    1    5    5  501    0 -0.68504656361E+01 -0.77515768628E+02 -0.11971403987E+03  0.14286064751E+03  0.47000000000E+01 0. -1.
        -11    1    6    6    0    0 -0.84776967296E+01  0.41265514283E+02 -0.95130730999E+02  0.10404119372E+03  0.00000000000E+00 0.  1.
         12    1    6    6    0    0  0.61240552433E+02 -0.28468401873E+01 -0.13622554661E+03  0.14938510404E+03  0.00000000000E+00 0. -1.
         -5    1    3    3    0  503  0.11901211890E+02  0.71913347951E+01 -0.22052340397E+01  0.14842748996E+02  0.47000000000E+01 0.  1.
         11    1    4    4    0    0 -0.40211190712E+02  0.12306280023E+02 -0.14902801172E+03  0.15484744965E+03  0.00000000000E+00 0. -1.
        -12    1    4    4    0    0 -0.17602411246E+02  0.19599479714E+02 -0.71427508174E+03  0.71476071302E+03  0.00000000000E+00 0.  1.
<mgrwt>
<rscale>  2 0.18338690E+03</rscale>
<asrwt>0</asrwt>
<pdfrwt beam="1">  1       21 0.49353248E-02 0.18382866E+03</pdfrwt>
<pdfrwt beam="2">  1       21 0.19210124E+00 0.18382866E+03</pdfrwt>
<totfact> 0.41791239E+04</totfact>
</mgrwt>
</event>
<event>
12    1  0.1013215E-001  0.2578164E+03  0.7546771E-02  0.1108471E+00
         21   -1    0    0  503  502  0.00000000000E+00  0.00000000000E+00  0.74290712739E+02  0.74290712739E+02  0.00000000000E+00 0.  1.
         21   -1    0    0  501  503 -0.00000000000E+00 -0.00000000000E+00 -0.20773189821E+04  0.20773189821E+04  0.00000000000E+00 0. -1.
          6    2    1    2  501    0  0.18845454819E+03 -0.31558874320E+02 -0.18133405791E+04  0.18315767423E+04  0.17308445309E+03 0.  0.
         24    2    3    3    0    0  0.12151941668E+03  0.46122721965E+02 -0.12101903975E+04  0.12197540770E+04  0.79655106833E+02 0.  0.
         -6    2    1    2    0  502 -0.18845454819E+03  0.31558874320E+02 -0.18968769024E+03  0.32003295251E+03  0.17299881959E+03 0.  0.
        -24    2    5    5    0    0 -0.73203883154E+02  0.39501906917E+02 -0.24452029230E+02  0.11836312028E+03  0.80577399753E+02 0.  0.
          5    1    3    3  501    0  0.66935131512E+02 -0.77681596285E+02 -0.60315018165E+03  0.61182266536E+03  0.47000000000E+01 0. -1.
        -11    1    4    4    0    0  0.13135682758E+03  0.34124810056E+02 -0.11256192317E+04  0.11337714821E+04  0.00000000000E+00 0.  1.
         12    1    4    4    0    0 -0.98374109066E+01  0.11997911909E+02 -0.84571165742E+02  0.85982594858E+02  0.00000000000E+00 0. -1.
         -5    1    5    5    0  502 -0.11525066504E+03 -0.79430325974E+01 -0.16523566101E+03  0.20166983222E+03  0.47000000000E+01 0.  1.
         13    1    6    6    0    0 -0.10748694408E+02 -0.37180442353E+01  0.25182388490E+02  0.27631702345E+02  0.00000000000E+00 0. -1.
        -14    1    6    6    0    0 -0.62455188746E+02  0.43219951152E+02 -0.49634417720E+02  0.90731417939E+02  0.00000000000E+00 0.  1.
<mgrwt>
<rscale>  2 0.25780205E+03</rscale>
<asrwt>0</asrwt>
<pdfrwt beam="1">  1       21 0.11429341E-01 0.25781642E+03</pdfrwt>
<pdfrwt beam="2">  1       21 0.31958751E+00 0.25781642E+03</pdfrwt>
<totfact> 0.15623218E+03</totfact>
</mgrwt>
</event>
<event>
12    1  0.1013215E-001  0.2279149E+03  0.7546771E-02  0.1129222E+00
         21   -1    0    0  501  502  0.00000000000E+00  0.00000000000E+00  0.29006655242E+03  0.29006655242E+03  0.00000000000E+00 0.  1.
         21   -1    0    0  502  503 -0.00000000000E+00 -0.00000000000E+00 -0.20140852391E+03  0.20140852391E+03  0.00000000000E+00 0. -1.
         -6    2    1    2    0  503  0.55515468905E+02 -0.13339046578E+03  0.13395139654E+03  0.25910314815E+03  0.16827501626E+03 0.  0.
        -24    2    3    3    0    0 -0.14475765768E+02 -0.12563206781E+02  0.44348313553E+02  0.93124830500E+02  0.79612054247E+02 0.  0.
          6    2    1    2  501    0 -0.55515468905E+02  0.13339046578E+03 -0.45293368033E+02  0.23237192819E+03  0.17626752444E+03 0.  0.
         24    2    5    5    0    0  0.11354360667E+02  0.37296216116E+01 -0.10284698327E+02  0.82267945657E+02  0.80742852807E+02 0.  0.
          5    1    5    5  501    0 -0.66869829572E+02  0.12966084417E+03 -0.35008669705E+02  0.15010398253E+03  0.47000000000E+01 0. -1.
        -13    1    6    6    0    0  0.38616524362E+02  0.25468265269E+02 -0.10337301167E+02  0.47399665453E+02  0.00000000000E+00 0.  1.
         14    1    6    6    0    0 -0.27262163695E+02 -0.21738643657E+02  0.52602839344E-01  0.34868280205E+02  0.00000000000E+00 0. -1.
         -5    1    3    3    0  503  0.69991234673E+02 -0.12082725900E+03  0.89603082988E+02  0.16597831765E+03  0.47000000000E+01 0.  1.
         11    1    4    4    0    0  0.26405063167E+01  0.22103310328E+02 -0.11612680416E+02  0.25107428134E+02  0.00000000000E+00 0. -1.
        -12    1    4    4    0    0 -0.17116272085E+02 -0.34666517108E+02  0.55960993970E+02  0.68017402366E+02  0.00000000000E+00 0.  1.
<mgrwt>
<rscale>  2 0.22636841E+03</rscale>
<asrwt>0</asrwt>
<pdfrwt beam="1">  1       21 0.44625623E-01 0.22791495E+03</pdfrwt>
<pdfrwt beam="2">  1       21 0.30985927E-01 0.22791495E+03</pdfrwt>
<totfact> 0.47430415E+04</totfact>
</mgrwt>
</event>
<event>
12    1  0.1013215E-001  0.1874190E+03  0.7546771E-02  0.1161079E+00
         21   -1    0    0  503  502  0.00000000000E+00  0.00000000000E+00  0.13243173363E+03  0.13243173363E+03  0.00000000000E+00 0.  1.
         21   -1    0    0  501  503 -0.00000000000E+00 -0.00000000000E+00 -0.33093518143E+03  0.33093518143E+03  0.00000000000E+00 0.  1.
          6    2    1    2  501    0 -0.39321697181E+02 -0.58151376198E+02 -0.20352199166E+03  0.27588077407E+03  0.17251441096E+03 0.  0.
         24    2    3    3    0    0  0.17702171342E+02  0.60489281103E+01 -0.41332274996E+02  0.92302466947E+02  0.80383033325E+02 0.  0.
         -6    2    1    2    0  502  0.39321697181E+02  0.58151376198E+02  0.50185438551E+01  0.18748614099E+03  0.17377597319E+03 0.  0.
        -24    2    5    5    0    0  0.36112208613E+02  0.37058240992E+01 -0.57072060813E+02  0.10470962169E+03  0.79931595791E+02 0.  0.
          5    1    3    3  501    0 -0.57023868523E+02 -0.64200304308E+02 -0.16218971666E+03  0.18357830712E+03  0.47000000000E+01 0. -1.
        -13    1    4    4    0    0  0.33496508867E+02 -0.85459395656E+01 -0.56324632464E+02  0.66087165255E+02  0.00000000000E+00 0.  1.
         14    1    4    4    0    0 -0.15794337525E+02  0.14594867676E+02  0.14992357468E+02  0.26215301691E+02  0.00000000000E+00 0. -1.
         -5    1    5    5    0  502  0.32094885677E+01  0.54445552098E+02  0.62090604668E+02  0.82776519305E+02  0.47000000000E+01 0.  1.
         11    1    6    6    0    0  0.25821390478E+01  0.27170684169E+02 -0.57645784835E+02  0.63780483140E+02  0.00000000000E+00 0. -1.
        -12    1    6    6    0    0  0.33530069565E+02 -0.23464860070E+02  0.57372402232E+00  0.40929138549E+02  0.00000000000E+00 0.  1.
<mgrwt>
<rscale>  2 0.18712599E+03</rscale>
<asrwt>0</asrwt>
<pdfrwt beam="1">  1       21 0.20374113E-01 0.18741896E+03</pdfrwt>
<pdfrwt beam="2">  1       21 0.50913105E-01 0.18741896E+03</pdfrwt>
<totfact> 0.81984041E+04</totfact>
</mgrwt>
</event>
<event>
12    1  0.1013215E-001  0.2975795E+03  0.7546771E-02  0.1086697E+00
         21   -1    0    0  503  502  0.00000000000E+00  0.00000000000E+00  0.14499591994E+03  0.14499591994E+03  0.00000000000E+00 0.  1.
         21   -1    0    0  501  503 -0.00000000000E+00 -0.00000000000E+00 -0.69714377700E+03  0.69714377700E+03  0.00000000000E+00 0.  1.
          6    2    1    2  501    0 -0.21200181311E+03  0.11766760528E+03 -0.12530167741E+03  0.32288394645E+03  0.17251984935E+03 0.  0.
         24    2    3    3    0    0 -0.42928700459E+02  0.81514636436E+02 -0.50351595597E+02  0.13438365642E+03  0.83881909002E+02 0.  0.
         -6    2    1    2    0  502  0.21200181311E+03 -0.11766760528E+03 -0.42684617966E+03  0.51925575049E+03  0.16922895507E+03 0.  0.
        -24    2    5    5    0    0  0.86637523972E+02 -0.38294626967E+02 -0.29664110910E+03  0.32179252587E+03  0.81129175293E+02 0.  0.
          5    1    3    3  501    0 -0.16907311265E+03  0.36152968843E+02 -0.74950081808E+02  0.18850029003E+03  0.47000000000E+01 0. -1.
        -11    1    4    4    0    0 -0.95986239885E+01  0.66029377908E+02  0.61228695773E+01  0.67003745129E+02  0.00000000000E+00 0.  1.
         12    1    4    4    0    0 -0.33330076470E+02  0.15485258527E+02 -0.56474465174E+02  0.67379911293E+02  0.00000000000E+00 0. -1.
         -5    1    5    5    0  502  0.12536428914E+03 -0.79372978311E+02 -0.13020507056E+03  0.19746322462E+03  0.47000000000E+01 0.  1.
         11    1    6    6    0    0  0.33937892841E+02  0.17291240028E+02 -0.46074585013E+02  0.59779887390E+02  0.00000000000E+00 0. -1.
        -12    1    6    6    0    0  0.52699631131E+02 -0.55585866995E+02 -0.25056652409E+03  0.26201263848E+03  0.00000000000E+00 0.  1.
<mgrwt>
<rscale>  2 0.29710439E+03</rscale>
<asrwt>0</asrwt>
<pdfrwt beam="1">  1       21 0.22307065E-01 0.29757946E+03</pdfrwt>
<pdfrwt beam="2">  1       21 0.10725289E+00 0.29757946E+03</pdfrwt>
<totfact> 0.12305821E+04</totfact>
</mgrwt>
</event>
<event>
12    1  0.1013215E-001  0.3003020E+03  0.7546771E-02  0.1085193E+00
         21   -1    0    0  501  502  0.00000000000E+00  0.00000000000E+00  0.11893911518E+04  0.11893911518E+04  0.00000000000E+00 0.  1.
         21   -1    0    0  502  503 -0.00000000000E+00 -0.00000000000E+00 -0.11923837920E+03  0.11923837920E+03  0.00000000000E+00 0.  1.
         -6    2    1    2    0  503  0.13485463389E+03 -0.20512864349E+03  0.13883945017E+03  0.33009705868E+03  0.17153466869E+03 0.  0.
        -24    2    3    3    0    0  0.16387496661E+03 -0.16239471605E+03  0.13307439089E+03  0.27790803517E+03  0.79353853232E+02 0.  0.
          6    2    1    2  501    0 -0.13485463389E+03  0.20512864349E+03  0.93131332239E+03  0.97853247228E+03  0.17296751773E+03 0.  0.
         24    2    5    5    0    0 -0.12602587075E+03  0.83995429916E+02  0.64822577095E+03  0.67045479657E+03  0.79845048564E+02 0.  0.
          5    1    5    5  501    0 -0.88287631364E+01  0.12113321357E+03  0.28308755144E+03  0.30807767571E+03  0.47000000000E+01 0. -1.
        -11    1    6    6    0    0 -0.90655150595E+02  0.97637236900E+02  0.51221663867E+03  0.52926106157E+03  0.00000000000E+00 0.  1.
         12    1    6    6    0    0 -0.35370720158E+02 -0.13641806984E+02  0.13600913227E+03  0.14119373500E+03  0.00000000000E+00 0. -1.
         -5    1    3    3    0  503 -0.29020332719E+02 -0.42733927442E+02  0.57650592862E+01  0.52189023504E+02  0.47000000000E+01 0.  1.
         11    1    4    4    0    0  0.90705834035E+02 -0.55795663148E+02  0.96068369343E+02  0.14342188097E+03  0.00000000000E+00 0. -1.
        -12    1    4    4    0    0  0.73169132574E+02 -0.10659905290E+03  0.37006021545E+02  0.13448615420E+03  0.00000000000E+00 0.  1.
<mgrwt>
<rscale>  2 0.30009604E+03</rscale>
<asrwt>0</asrwt>
<pdfrwt beam="1">  1       21 0.18298325E+00 0.30030201E+03</pdfrwt>
<pdfrwt beam="2">  1       21 0.18344367E-01 0.30030201E+03</pdfrwt>
<totfact> 0.43500857E+03</totfact>
</mgrwt>
</event>
<event>
12    1  0.1013215E-001  0.1859949E+03  0.7546771E-02  0.1163974E+00
         21   -1    0    0  503  502  0.00000000000E+00  0.00000000000E+00  0.10594294871E+04  0.10594294871E+04  0.00000000000E+00 0.  1.
         21   -1    0    0  501  503 -0.00000000000E+00 -0.00000000000E+00 -0.42449664590E+02  0.42449664590E+02  0.00000000000E+00 0.  1.
          6    2    1    2  501    0  0.61177223291E+02 -0.24197951180E+02  0.23419582031E+03  0.29906816506E+03  0.17397095047E+03 0.  0.
         24    2    3    3    0    0  0.10463544632E+03 -0.42268023222E+02  0.15681149055E+03  0.20837324157E+03  0.78066649860E+02 0.  0.
         -6    2    1    2    0  502 -0.61177223291E+02  0.24197951180E+02  0.78278400218E+03  0.80281098662E+03  0.16560945829E+03 0.  0.
        -24    2    5    5    0    0 -0.91557977405E+02  0.54876174397E+02  0.62716516829E+03  0.64124534961E+03  0.80406419762E+02 0.  0.
          5    1    3    3  501    0 -0.43458223033E+02  0.18070072042E+02  0.77384329766E+02  0.90694923485E+02  0.47000000000E+01 0. -1.
        -13    1    4    4    0    0  0.40988108812E+02  0.14390800953E+02  0.21511306463E+02  0.48475318687E+02  0.00000000000E+00 0.  1.
         14    1    4    4    0    0  0.63647337512E+02 -0.56658824175E+02  0.13530018408E+03  0.15989792288E+03  0.00000000000E+00 0. -1.
         -5    1    5    5    0  502  0.30380754114E+02 -0.30678223216E+02  0.15561883389E+03  0.16156563701E+03  0.47000000000E+01 0.  1.
         11    1    6    6    0    0 -0.10550941756E+02  0.28163616236E+02  0.54368587185E+02  0.62132559290E+02  0.00000000000E+00 0. -1.
        -12    1    6    6    0    0 -0.81007035649E+02  0.26712558160E+02  0.57279658110E+03  0.57911279032E+03  0.00000000000E+00 0.  1.
<mgrwt>
<rscale>  2 0.18401434E+03</rscale>
<asrwt>0</asrwt>
<pdfrwt beam="1">  1       21 0.16298913E+00 0.18599485E+03</pdfrwt>
<pdfrwt beam="2">  1       21 0.65307185E-02 0.18599485E+03</pdfrwt>
<totfact> 0.40979195E+04</totfact>
</mgrwt>
</event>
<event>
12    1  0.1013215E-001  0.1784875E+03  0.7546771E-02  0.1169435E+00
         21   -1    0    0  503  502  0.00000000000E+00  0.00000000000E+00  0.16130075273E+02  0.16130075273E+02  0.00000000000E+00 0.  1.
         21   -1    0    0  501  503 -0.00000000000E+00 -0.00000000000E+00 -0.27167670912E+04  0.27167670912E+04  0.00000000000E+00 0.  1.
          6    2    1    2  501    0 -0.44028748756E+02 -0.27555269271E+01 -0.20695394633E+04  0.20772220356E+04  0.17294991008E+03 0.  0.
         24    2    3    3    0    0 -0.67091406189E+02  0.50451611241E+02 -0.11582580735E+04  0.11640852730E+04  0.80536552306E+02 0.  0.
         -6    2    1    2    0  502  0.44028748756E+02  0.27555269271E+01 -0.63109755259E+03  0.65567513083E+03  0.17227777762E+03 0.  0.
        -24    2    5    5    0    0  0.64926660969E+02 -0.21340776577E+02 -0.60525875267E+03  0.61435820743E+03  0.80168256275E+02 0.  0.
          5    1    3    3  501    0  0.23062657433E+02 -0.53207138168E+02 -0.91128138986E+03  0.91313676261E+03  0.47000000000E+01 0. -1.
        -11    1    4    4    0    0 -0.47494524058E+02 -0.10232988440E+01 -0.81976150760E+03  0.82113683774E+03  0.00000000000E+00 0.  1.
         12    1    4    4    0    0 -0.19596882131E+02  0.51474910085E+02 -0.33849656586E+03  0.34294843528E+03  0.00000000000E+00 0. -1.
         -5    1    5    5    0  502 -0.20897912212E+02  0.24096303505E+02 -0.25838799920E+02  0.41316923394E+02  0.47000000000E+01 0.  1.
         11    1    6    6    0    0  0.15250096594E+02 -0.42919619500E+02 -0.37801600575E+03  0.38075025907E+03  0.00000000000E+00 0. -1.
        -12    1    6    6    0    0  0.49676564375E+02  0.21578842922E+02 -0.22724274692E+03  0.23360794836E+03  0.00000000000E+00 0.  1.
<mgrwt>
<rscale>  2 0.17832450E+03</rscale>
<asrwt>0</asrwt>
<pdfrwt beam="1">  1       21 0.24815487E-02 0.17848752E+03</pdfrwt>
<pdfrwt beam="2">  1       21 0.41796440E+00 0.17848752E+03</pdfrwt>
<totfact> 0.59294529E+03</totfact>
</mgrwt>
</event>
<event>
12    1  0.1013215E-001  0.1921863E+03  0.7546771E-02  0.1156814E+00
         21   -1    0    0  501  502  0.00000000000E+00  0.00000000000E+00  0.11915145311E+04  0.11915145311E+04  0.00000000000E+00 0.  1.
         21   -1    0    0  502  503 -0.00000000000E+00 -0.00000000000E+00 -0.64878089773E+02  0.64878089773E+02  0.00000000000E+00 0.  1.
         -6    2    1    2    0  503 -0.76374160082E+02  0.28357712619E+02  0.10883725827E+03  0.22086451096E+03  0.17406438815E+03 0.  0.
        -24    2    3    3    0    0 -0.37126323394E+02  0.59684475873E+02  0.13103680068E+03  0.16575853612E+03  0.73243761609E+02 0.  0.
          6    2    1    2  501    0  0.76374160082E+02 -0.28357712619E+02  0.10177991830E+04  0.10355281099E+04  0.17252859819E+03 0.  0.
         24    2    5    5    0    0  0.55499783134E+02  0.47560769926E+01  0.96457192781E+03  0.96928995340E+03  0.77596157470E+02 0.  0.
          5    1    5    5  501    0  0.20874376948E+02 -0.33113789611E+02  0.53227255199E+02  0.66238156461E+02  0.47000000000E+01 0. -1.
        -11    1    6    6    0    0  0.57276233003E+02 -0.27200588954E+02  0.66228741075E+03  0.66531575462E+03  0.00000000000E+00 0.  1.
         12    1    6    6    0    0 -0.17764498690E+01  0.31956665947E+02  0.30228451706E+03  0.30397419878E+03  0.00000000000E+00 0. -1.
         -5    1    3    3    0  503 -0.39247836688E+02 -0.31326763255E+02 -0.22199542405E+02  0.55105974846E+02  0.47000000000E+01 0.  1.
         11    1    4    4    0    0 -0.21073956222E+02  0.19895355075E+02  0.11712037662E+03  0.12065288809E+03  0.00000000000E+00 0. -1.
        -12    1    4    4    0    0 -0.16052367172E+02  0.39789120799E+02  0.13916424062E+02  0.45105648033E+02  0.00000000000E+00 0.  1.
<mgrwt>
<rscale>  2 0.19183791E+03</rscale>
<asrwt>0</asrwt>
<pdfrwt beam="1">  1       21 0.18330991E+00 0.19218632E+03</pdfrwt>
<pdfrwt beam="2">  1       21 0.99812455E-02 0.19218632E+03</pdfrwt>
<totfact> 0.14075004E+04</totfact>
</mgrwt>
</event>
<event>
12    1  0.1013215E-001  0.2145153E+03  0.7546771E-02  0.1140608E+00
         21   -1    0    0  503  502  0.00000000000E+00  0.00000000000E+00  0.21788847390E+03  0.21788847390E+03  0.00000000000E+00 0.  1.
         21   -1    0    0  501  503 -0.00000000000E+00 -0.00000000000E+00 -0.23285961113E+03  0.23285961113E+03  0.00000000000E+00 0.  1.
          6    2    1    2  501    0  0.50976719989E+02  0.11623025894E+03 -0.93992269989E+02  0.23420366920E+03  0.17294135646E+03 0.  0.
         24    2    3    3    0    0  0.72825571092E+02  0.14639296755E+02 -0.41195498559E+02  0.11755168694E+03  0.81261658768E+02 0.  0.
         -6    2    1    2    0  502 -0.50976719989E+02 -0.11623025894E+03  0.79021132762E+02  0.21654441583E+03  0.15664943514E+03 0.  0.
        -24    2    5    5    0    0 -0.29123528555E+02 -0.73328545753E+01  0.61072318238E+02  0.10393688235E+03  0.78556328748E+02 0.  0.
          5    1    3    3  501    0 -0.21848851102E+02  0.10159096219E+03 -0.52796771430E+02  0.11665198226E+03  0.47000000000E+01 0. -1.
        -13    1    4    4    0    0 -0.12964177419E+02  0.17114188072E+02 -0.19553343521E+02  0.29039603516E+02  0.00000000000E+00 0.  1.
         14    1    4    4    0    0  0.85789748511E+02 -0.24748913170E+01 -0.21642155038E+02  0.88512083420E+02  0.00000000000E+00 0. -1.
         -5    1    5    5    0  502 -0.21853191435E+02 -0.10889740437E+03  0.17948814524E+02  0.11260753348E+03  0.47000000000E+01 0.  1.
         13    1    6    6    0    0 -0.55538921466E+01  0.17898076978E+02 -0.12595288803E+02  0.22579375048E+02  0.00000000000E+00 0. -1.
        -14    1    6    6    0    0 -0.23569636408E+02 -0.25230931554E+02  0.73667607042E+02  0.81357507304E+02  0.00000000000E+00 0.  1.
<mgrwt>
<rscale>  2 0.21121388E+03</rscale>
<asrwt>0</asrwt>
<pdfrwt beam="1">  1       21 0.33521304E-01 0.21451530E+03</pdfrwt>
<pdfrwt beam="2">  1       21 0.35824556E-01 0.21451530E+03</pdfrwt>
<totfact> 0.63771641E+04</totfact>
</mgrwt>
</event>
<event>
12    1  0.1013215E-001  0.1779345E+03  0.7546771E-02  0.1169843E+00
         21   -1    0    0  503  502  0.00000000000E+00  0.00000000000E+00  0.43055929995E+03  0.43055929995E+03  0.00000000000E+00 0.  1.
         21   -1    0    0  501  503 -0.00000000000E+00 -0.00000000000E+00 -0.81384987641E+02  0.81384987641E+02  0.00000000000E+00 0.  1.
          6    2    1    2  501    0 -0.18512756594E+02 -0.37563817442E+02  0.94909332135E+02  0.20166422776E+03  0.17293616421E+03 0.  0.
         24    2    3    3    0    0  0.17458018892E+02 -0.85774064572E+02  0.73693693369E+02  0.13770863421E+03  0.76622026317E+02 0.  0.
         -6    2    1    2    0  502  0.18512756594E+02  0.37563817442E+02  0.25426498018E+03  0.31028005984E+03  0.17282729197E+03 0.  0.
        -24    2    5    5    0    0 -0.54531541195E+02  0.33598777706E+02  0.16577243012E+03  0.19537047628E+03  0.81157609394E+02 0.  0.
          5    1    3    3  501    0 -0.35970775486E+02  0.48210247130E+02  0.21215638766E+02  0.63955593545E+02  0.47000000000E+01 0. -1.
        -11    1    4    4    0    0 -0.13595365959E+02 -0.41586870725E+02 -0.30581337132E+01  0.43859479866E+02  0.00000000000E+00 0.  1.
         12    1    4    4    0    0  0.31053384851E+02 -0.44187193847E+02  0.76751827082E+02  0.93849154345E+02  0.00000000000E+00 0. -1.
         -5    1    5    5    0  502  0.73044297789E+02  0.39650397358E+01  0.88492550052E+02  0.11490958356E+03  0.47000000000E+01 0.  1.
         13    1    6    6    0    0 -0.14492840429E+02 -0.15832329804E+02  0.43968030445E+01  0.21909745953E+02  0.00000000000E+00 0. -1.
        -14    1    6    6    0    0 -0.40038700767E+02  0.49431107511E+02  0.16137562708E+03  0.17346073032E+03  0.00000000000E+00 0.  1.
<mgrwt>
<rscale>  2 0.17790802E+03</rscale>
<asrwt>0</asrwt>
<pdfrwt beam="1">  1       21 0.66239891E-01 0.17793448E+03</pdfrwt>
<pdfrwt beam="2">  1       21 0.12520768E-01 0.17793448E+03</pdfrwt>
<totfact> 0.11436058E+05</totfact>
</mgrwt>
</event>
<event>
12    1  0.1013215E-001  0.2077892E+03  0.7546771E-02  0.1143758E+00
         21   -1    0    0  501  502  0.00000000000E+00  0.00000000000E+00  0.19870752901E+04  0.19870752901E+04  0.00000000000E+00 0.  1.
         21   -1    0    0  502  503 -0.00000000000E+00 -0.00000000000E+00 -0.23897204379E+02  0.23897204379E+02  0.00000000000E+00 0.  1.
         -6    2    1    2    0  503  0.43910990291E+02  0.10117521017E+03  0.65904706580E+03  0.69039153510E+03  0.17358812914E+03 0.  0.
        -24    2    3    3    0    0 -0.22283395889E+02  0.11317145101E+03  0.51004896202E+03  0.52684297508E+03  0.64103429493E+02 0.  0.
          6    2    1    2  501    0 -0.43910990291E+02 -0.10117521017E+03  0.13041310199E+04  0.13205809594E+04  0.17610154722E+03 0.  0.
         24    2    5    5    0    0 -0.10571521285E+02 -0.13304368734E+03  0.85587410410E+03  0.86993312280E+03  0.80316724750E+02 0.  0.
          5    1    5    5  501    0 -0.33339469006E+02  0.31868477173E+02  0.44825691584E+03  0.45064783660E+03  0.47000000000E+01 0. -1.
        -13    1    6    6    0    0 -0.16419760661E+02 -0.61950877353E+02  0.62532740374E+03  0.62860311931E+03  0.00000000000E+00 0.  1.
         14    1    6    6    0    0  0.58482393761E+01 -0.71092809986E+02  0.23054670036E+03  0.24133000348E+03  0.00000000000E+00 0. -1.
         -5    1    3    3    0  503  0.66194386180E+02 -0.11996240841E+02  0.14899810378E+03  0.16354856002E+03  0.47000000000E+01 0.  1.
         11    1    4    4    0    0 -0.10734237764E+02 -0.57241312224E+01  0.59217919849E+02  0.60454541351E+02  0.00000000000E+00 0. -1.
        -12    1    4    4    0    0 -0.11549158125E+02  0.11889558223E+03  0.45083104217E+03  0.46638843373E+03  0.00000000000E+00 0.  1.
<mgrwt>
<rscale>  2 0.20725570E+03</rscale>
<asrwt>0</asrwt>
<pdfrwt beam="1">  1       21 0.30570376E+00 0.20778920E+03</pdfrwt>
<pdfrwt beam="2">  1       21 0.36764945E-02 0.20778920E+03</pdfrwt>
<totfact> 0.14062560E+04</totfact>
</mgrwt>
</event>
<event>
12    1  0.1013215E-001  0.2160736E+03  0.7546771E-02  0.1138025E+00
         21   -1    0    0  503  502  0.00000000000E+00  0.00000000000E+00  0.22884339578E+03  0.22884339578E+03  0.00000000000E+00 0. -1.
         21   -1    0    0  501  503 -0.00000000000E+00 -0.00000000000E+00 -0.19959216617E+03  0.19959216617E+03  0.00000000000E+00 0.  1.
          6    2    1    2  501    0 -0.82348372291E+02 -0.88160000079E+02 -0.27738397873E+01  0.21000162412E+03  0.17187073024E+03 0.  0.
         24    2    3    3    0    0 -0.76282417767E+02 -0.94258110608E+02  0.53644985110E+02  0.15273770390E+03  0.75811760884E+02 0.  0.
         -6    2    1    2    0  502  0.82348372291E+02  0.88160000079E+02  0.32025069397E+02  0.21843393783E+03  0.17926053691E+03 0.  0.
        -24    2    5    5    0    0  0.43959138574E+02  0.45569946272E+02  0.88047686092E+02  0.13813281997E+03  0.85552644957E+02 0.  0.
          5    1    3    3  501    0 -0.60659545242E+01  0.60981105290E+01 -0.56418824898E+02  0.57263920222E+02  0.47000000000E+01 0. -1.
        -11    1    4    4    0    0 -0.14710930656E+01  0.11611763067E+02 -0.16166435823E+01  0.11815696881E+02  0.00000000000E+00 0.  1.
         12    1    4    4    0    0 -0.74811324701E+02 -0.10586987367E+03  0.55261628693E+02  0.14092200702E+03  0.00000000000E+00 0. -1.
         -5    1    5    5    0  502  0.38389233718E+02  0.42590053807E+02 -0.56022616695E+02  0.80301117863E+02  0.47000000000E+01 0.  1.
         11    1    6    6    0    0  0.40768227569E+02 -0.10485577632E+02  0.64999746897E+02  0.77440059492E+02  0.00000000000E+00 0. -1.
        -12    1    6    6    0    0  0.31909110046E+01  0.56055523904E+02  0.23047939195E+02  0.60692760477E+02  0.00000000000E+00 0.  1.
<mgrwt>
<rscale>  2 0.21453463E+03</rscale>
<asrwt>0</asrwt>
<pdfrwt beam="1">  1       21 0.35206676E-01 0.21607355E+03</pdfrwt>
<pdfrwt beam="2">  1       21 0.30706487E-01 0.21607355E+03</pdfrwt>
<totfact> 0.78420821E+04</totfact>
</mgrwt>
</event>
<event>
12    1  0.1013215E-001  0.5332818E+03  0.7546771E-02  0.1005452E+00
         21   -1    0    0  503  502  0.00000000000E+00  0.00000000000E+00  0.18614193064E+03  0.18614193064E+03  0.00000000000E+00 0. -1.
         21   -1    0    0  501  503 -0.00000000000E+00 -0.00000000000E+00 -0.16363014571E+04  0.16363014571E+04  0.00000000000E+00 0.  1.
          6    2    1    2  501    0 -0.37934249174E+03  0.33253505144E+03 -0.96024325192E+03  0.10982835511E+04  0.17227701294E+03 0.  0.
         24    2    3    3    0    0 -0.29804473973E+03  0.32779102607E+03 -0.83770107575E+03  0.95107449835E+03  0.80758810323E+02 0.  0.
         -6    2    1    2    0  502  0.37934249174E+03 -0.33253505144E+03 -0.48991627452E+03  0.72415983667E+03  0.17294284179E+03 0.  0.
        -24    2    5    5    0    0  0.37687617748E+03 -0.34320384984E+03 -0.49097172836E+03  0.71219697965E+03  0.79666580675E+02 0.  0.
          5    1    3    3  501    0 -0.81297752009E+02  0.47440253720E+01 -0.12254217617E+03  0.14720905271E+03  0.47000000000E+01 0. -1.
        -11    1    4    4    0    0 -0.19143813259E+03  0.23442252334E+03 -0.63858428769E+03  0.70667699166E+03  0.00000000000E+00 0.  1.
         12    1    4    4    0    0 -0.10660660714E+03  0.93368502735E+02 -0.19911678806E+03  0.24439750669E+03  0.00000000000E+00 0. -1.
         -5    1    5    5    0  502  0.24663142641E+01  0.10668798394E+02  0.10554538454E+01  0.11962857018E+02  0.47000000000E+01 0.  1.
         13    1    6    6    0    0  0.16271275997E+03 -0.20204570395E+03 -0.24624866949E+03  0.35768186419E+03  0.00000000000E+00 0. -1.
        -14    1    6    6    0    0  0.21416341750E+03 -0.14115814589E+03 -0.24472305887E+03  0.35451511546E+03  0.00000000000E+00 0.  1.
<mgrwt>
<rscale>  2 0.53322794E+03</rscale>
<asrwt>0</asrwt>
<pdfrwt beam="1">  1       21 0.28637222E-01 0.53328183E+03</pdfrwt>
<pdfrwt beam="2">  1       21 0.25173867E+00 0.53328183E+03</pdfrwt>
<totfact> 0.59227639E+02</totfact>
</mgrwt>
</event>
<event>
12    1  0.1013215E-001  0.1947176E+03  0.7546771E-02  0.1154410E+00
         21   -1    0    0  503  502  0.00000000000E+00  0.00000000000E+00  0.84456808445E+03  0.84456808445E+03  0.00000000000E+00 0.  1.
         21   -1    0    0  501  503 -0.00000000000E+00 -0.00000000000E+00 -0.11863652699E+03  0.11863652699E+03  0.00000000000E+00 0.  1.
          6    2    1    2  501    0  0.54430185021E+02 -0.71110218855E+02 -0.16885128993E+02  0.19544834894E+03  0.17290356056E+03 0.  0.
         24    2    3    3    0    0  0.80951820785E+02  0.47956621772E+01 -0.10911731093E+02  0.11468405348E+03  0.80356521714E+02 0.  0.
         -6    2    1    2    0  502 -0.54430185021E+02  0.71110218855E+02  0.74281668645E+03  0.76775626250E+03  0.17220261518E+03 0.  0.
        -24    2    5    5    0    0 -0.24089692020E+02  0.97975058576E+02  0.68514741350E+03  0.69711562143E+03  0.79773341710E+02 0.  0.
          5    1    3    3  501    0 -0.26521635764E+02 -0.75905881032E+02 -0.59733978997E+01  0.80764295461E+02  0.47000000000E+01 0. -1.
        -11    1    4    4    0    0  0.16156315200E+02 -0.33736309483E+02 -0.12019526518E+02  0.39289109383E+02  0.00000000000E+00 0.  1.
         12    1    4    4    0    0  0.64795505585E+02  0.38531971660E+02  0.11077954244E+01  0.75394944093E+02  0.00000000000E+00 0. -1.
         -5    1    5    5    0  502 -0.30340493001E+02 -0.26864839722E+02  0.57669272950E+02  0.70640641074E+02  0.47000000000E+01 0.  1.
         13    1    6    6    0    0  0.12217443449E+02 -0.80110289493E+01  0.47323629488E+02  0.49527451147E+02  0.00000000000E+00 0. -1.
        -14    1    6    6    0    0 -0.36307135469E+02  0.10598608753E+03  0.63782378401E+03  0.64758817028E+03  0.00000000000E+00 0.  1.
<mgrwt>
<rscale>  2 0.19456189E+03</rscale>
<asrwt>0</asrwt>
<pdfrwt beam="1">  1       21 0.12993355E+00 0.19471761E+03</pdfrwt>
<pdfrwt beam="2">  1       21 0.18251774E-01 0.19471761E+03</pdfrwt>
<totfact> 0.11826134E+04</totfact>
</mgrwt>
</event>
<event>
12    1  0.1013215E-001  0.1745695E+03  0.7546771E-02  0.1173165E+00
         21   -1    0    0  503  502  0.00000000000E+00  0.00000000000E+00  0.10632081398E+03  0.10632081398E+03  0.00000000000E+00 0.  1.
         21   -1    0    0  501  503 -0.00000000000E+00 -0.00000000000E+00 -0.35419438562E+03  0.35419438562E+03  0.00000000000E+00 0.  1.
          6    2    1    2  501    0 -0.18640551223E+02 -0.12474329520E+02 -0.22450704973E+03  0.28438882800E+03  0.17311993262E+03 0.  0.
         24    2    3    3    0    0 -0.43281871876E+02 -0.46914146868E+02 -0.21819578890E+03  0.24131658966E+03  0.80932296043E+02 0.  0.
         -6    2    1    2    0  502  0.18640551223E+02  0.12474329520E+02 -0.23366521916E+02  0.17612637160E+03  0.17312257328E+03 0.  0.
        -24    2    5    5    0    0  0.74787745844E+02 -0.58511180096E+01  0.82972484920E+01  0.10894740281E+03  0.78570030772E+02 0.  0.
          5    1    3    3  501    0  0.24641320653E+02  0.34439817348E+02 -0.63112608271E+01  0.43072238341E+02  0.47000000000E+01 0. -1.
        -11    1    4    4    0    0  0.10073917732E+02  0.10817365291E+02 -0.87968577584E+02  0.89201848930E+02  0.00000000000E+00 0.  1.
         12    1    4    4    0    0 -0.53355789608E+02 -0.57731512159E+02 -0.13022721131E+03  0.15211474073E+03  0.00000000000E+00 0. -1.
         -5    1    5    5    0  502 -0.56147194621E+02  0.18325447530E+02 -0.31663770408E+02  0.67178968788E+02  0.47000000000E+01 0.  1.
         11    1    6    6    0    0  0.82087529091E+02  0.21051371886E+01 -0.14812269892E+02  0.83439782923E+02  0.00000000000E+00 0. -1.
        -12    1    6    6    0    0 -0.72997832468E+01 -0.79562551982E+01  0.23109518384E+02  0.25507619885E+02  0.00000000000E+00 0.  1.
<mgrwt>
<rscale>  2 0.17456883E+03</rscale>
<asrwt>0</asrwt>
<pdfrwt beam="1">  1       21 0.16357048E-01 0.17456948E+03</pdfrwt>
<pdfrwt beam="2">  1       21 0.54491444E-01 0.17456948E+03</pdfrwt>
<totfact> 0.10724699E+05</totfact>
</mgrwt>
</event>
<event>
12    1  0.1013215E-001  0.2068763E+03  0.7546771E-02  0.1144368E+00
         21   -1    0    0  501  502  0.00000000000E+00  0.00000000000E+00  0.53475439190E+02  0.53475439190E+02  0.00000000000E+00 0.  1.
         21   -1    0    0  502  503 -0.00000000000E+00 -0.00000000000E+00 -0.83172751110E+03  0.83172751110E+03  0.00000000000E+00 0.  1.
         -6    2    1    2    0  503 -0.52746363335E+02 -0.97858237253E+02 -0.48408985241E+03  0.52644162646E+03  0.17446887237E+03 0.  0.
        -24    2    3    3    0    0 -0.72765664782E+01 -0.98298387708E+02 -0.18901995785E+03  0.22785155825E+03  0.80450398924E+02 0.  0.
          6    2    1    2  501    0  0.52746363335E+02  0.97858237253E+02 -0.29416221951E+03  0.35876132383E+03  0.17268428605E+03 0.  0.
         24    2    5    5    0    0  0.50331109703E+02  0.15375406202E+02 -0.65688353715E+02  0.11579702971E+03  0.79525898651E+02 0.  0.
          5    1    5    5  501    0  0.24152536321E+01  0.82482831051E+02 -0.22847386579E+03  0.24296429412E+03  0.47000000000E+01 0. -1.
        -11    1    6    6    0    0  0.28446249028E+02 -0.32194677493E+02 -0.27976848914E+02  0.51267830243E+02  0.00000000000E+00 0.  1.
         12    1    6    6    0    0  0.21884860674E+02  0.47570083695E+02 -0.37711504802E+02  0.64529199468E+02  0.00000000000E+00 0. -1.
         -5    1    3    3    0  503 -0.45469796857E+02  0.44015045509E+00 -0.29506989456E+03  0.29859006821E+03  0.47000000000E+01 0.  1.
         13    1    4    4    0    0  0.11448450046E+02  0.15724545187E+01  0.17697678753E+01  0.11690667218E+02  0.00000000000E+00 0. -1.
        -14    1    4    4    0    0 -0.18725016524E+02 -0.99870842227E+02 -0.19078972573E+03  0.21616089104E+03  0.00000000000E+00 0.  1.
<mgrwt>
<rscale>  2 0.20649957E+03</rscale>
<asrwt>0</asrwt>
<pdfrwt beam="1">  1       21 0.82269906E-02 0.20687629E+03</pdfrwt>
<pdfrwt beam="2">  1       21 0.12795808E+00 0.20687629E+03</pdfrwt>
<totfact> 0.51023658E+04</totfact>
</mgrwt>
</event>
<event>
12    1  0.1013215E-001  0.1739078E+03  0.7546771E-02  0.1174205E+00
         21   -1    0    0  503  502  0.00000000000E+00  0.00000000000E+00  0.62494902637E+03  0.62494902637E+03  0.00000000000E+00 0.  1.
         21   -1    0    0  501  503 -0.00000000000E+00 -0.00000000000E+00 -0.48697496357E+02  0.48697496357E+02  0.00000000000E+00 0. -1.
          6    2    1    2  501    0 -0.15558623822E+02 -0.13942843743E+02  0.32998136860E+03  0.37300353182E+03  0.17264836361E+03 0.  0.
         24    2    3    3    0    0 -0.58842664781E+02 -0.33955274380E+02  0.12838240538E+03  0.16578809428E+03  0.79926405755E+02 0.  0.
         -6    2    1    2    0  502  0.15558623822E+02  0.13942843743E+02  0.24627016140E+03  0.30064299090E+03  0.17117459483E+03 0.  0.
        -24    2    5    5    0    0 -0.37804080659E+02  0.19908540914E+02  0.71536269460E+02  0.11778460098E+03  0.83248278440E+02 0.  0.
          5    1    3    3  501    0  0.43284040958E+02  0.20012430636E+02  0.20159896323E+03  0.20721543754E+03  0.47000000000E+01 0. -1.
        -13    1    4    4    0    0 -0.33585146966E+02 -0.50489900712E+02  0.12000981596E+03  0.13446021009E+03  0.00000000000E+00 0.  1.
         14    1    4    4    0    0 -0.25257517815E+02  0.16534626332E+02  0.83725894173E+01  0.31327884188E+02  0.00000000000E+00 0. -1.
         -5    1    5    5    0  502  0.53362704482E+02 -0.59656971701E+01  0.17473389194E+03  0.18285838993E+03  0.47000000000E+01 0.  1.
         11    1    6    6    0    0  0.92336844971E+01  0.40062764684E+02  0.22303190388E+02  0.46773051482E+02  0.00000000000E+00 0. -1.
        -12    1    6    6    0    0 -0.47037765157E+02 -0.20154223770E+02  0.49233079072E+02  0.71011549495E+02  0.00000000000E+00 0.  1.
<mgrwt>
<rscale>  2 0.17354091E+03</rscale>
<asrwt>0</asrwt>
<pdfrwt beam="1">  1       21 0.96145998E-01 0.17390782E+03</pdfrwt>
<pdfrwt beam="2">  1       21 0.74919230E-02 0.17390782E+03</pdfrwt>
<totfact> 0.12201537E+05</totfact>
</mgrwt>
</event>
<event>
12    1  0.1013215E-001  0.1831693E+03  0.7546771E-02  0.1165740E+00
         21   -1    0    0  501  502  0.00000000000E+00  0.00000000000E+00  0.97452425850E+02  0.97452425850E+02  0.00000000000E+00 0. -1.
         21   -1    0    0  502  503 -0.00000000000E+00 -0.00000000000E+00 -0.33678687501E+03  0.33678687501E+03  0.00000000000E+00 0. -1.
         -6    2    1    2    0  503 -0.37514612729E+02 -0.27001950436E+02 -0.12428821773E+03  0.22135619097E+03  0.17724150394E+03 0.  0.
        -24    2    3    3    0    0  0.36100845305E+02 -0.78656584250E+01 -0.17657228324E+02  0.90292499446E+02  0.80472468149E+02 0.  0.
          6    2    1    2  501    0  0.37514612729E+02  0.27001950436E+02 -0.11504623143E+03  0.21288310989E+03  0.17305239558E+03 0.  0.
         24    2    5    5    0    0  0.74465255513E+00 -0.32895195276E+02 -0.16128333311E+02  0.91447783055E+02  0.83784995737E+02 0.  0.
          5    1    5    5  501    0  0.36769960174E+02  0.59897145713E+02 -0.98917898122E+02  0.12143532684E+03  0.47000000000E+01 0. -1.
        -11    1    6    6    0    0  0.41903443834E+02 -0.15993381233E+02 -0.25340499624E+01  0.44923359821E+02  0.00000000000E+00 0.  1.
         12    1    6    6    0    0 -0.41158791279E+02 -0.16901814043E+02 -0.13594283349E+02  0.46524423234E+02  0.00000000000E+00 0. -1.
         -5    1    3    3    0  503 -0.73615458034E+02 -0.19136292011E+02 -0.10663098940E+03  0.13106369152E+03  0.47000000000E+01 0.  1.
         11    1    4    4    0    0  0.10838709371E+02 -0.41765744209E+02 -0.20794904833E+02  0.47898675109E+02  0.00000000000E+00 0. -1.
        -12    1    4    4    0    0  0.25262135934E+02  0.33900085784E+02  0.31376765094E+01  0.42393824338E+02  0.00000000000E+00 0.  1.
<mgrwt>
<rscale>  2 0.18214822E+03</rscale>
<asrwt>0</asrwt>
<pdfrwt beam="1">  1       21 0.14992681E-01 0.18316933E+03</pdfrwt>
<pdfrwt beam="2">  1       21 0.51813365E-01 0.18316933E+03</pdfrwt>
<totfact> 0.13931284E+05</totfact>
</mgrwt>
</event>
<event>
12    1  0.1013215E-001  0.1801904E+03  0.7546771E-02  0.1167652E+00
         21   -1    0    0  503  502  0.00000000000E+00  0.00000000000E+00  0.13207483384E+03  0.13207483384E+03  0.00000000000E+00 0.  1.
         21   -1    0    0  501  503 -0.00000000000E+00 -0.00000000000E+00 -0.33317290873E+03  0.33317290873E+03  0.00000000000E+00 0.  1.
          6    2    1    2  501    0  0.11299153170E+02 -0.49365517901E+02 -0.21980750203E+03  0.28422509898E+03  0.17292756784E+03 0.  0.
         24    2    3    3    0    0  0.67606644294E+02 -0.56101590122E+02 -0.17543722038E+03  0.21206749287E+03  0.80475812946E+02 0.  0.
         -6    2    1    2    0  502 -0.11299153170E+02  0.49365517901E+02  0.18709427143E+02  0.18102264359E+03  0.17278463360E+03 0.  0.
        -24    2    5    5    0    0 -0.54012302958E+02  0.38911559485E+02  0.59045281777E+02  0.12116640264E+03  0.82240583031E+02 0.  0.
          5    1    3    3  501    0 -0.56307491124E+02  0.67360722210E+01 -0.44370281653E+02  0.72157606111E+02  0.47000000000E+01 0. -1.
        -11    1    4    4    0    0 -0.11957873581E+02 -0.30237839011E+02 -0.72215783642E+02  0.79198718776E+02  0.00000000000E+00 0.  1.
         12    1    4    4    0    0  0.79564517876E+02 -0.25863751110E+02 -0.10322143674E+03  0.13286877409E+03  0.00000000000E+00 0. -1.
         -5    1    5    5    0  502  0.42713149788E+02  0.10453958415E+02 -0.40335854634E+02  0.59856240948E+02  0.47000000000E+01 0.  1.
         13    1    6    6    0    0 -0.25126411105E+02  0.31967541051E+02 -0.13444140804E+02  0.42825286197E+02  0.00000000000E+00 0. -1.
        -14    1    6    6    0    0 -0.28885891853E+02  0.69440184345E+01  0.72489422581E+02  0.78341116448E+02  0.00000000000E+00 0.  1.
<mgrwt>
<rscale>  2 0.18015607E+03</rscale>
<asrwt>0</asrwt>
<pdfrwt beam="1">  1       21 0.20319205E-01 0.18019037E+03</pdfrwt>
<pdfrwt beam="2">  1       21 0.51257370E-01 0.18019037E+03</pdfrwt>
<totfact> 0.81485215E+04</totfact>
</mgrwt>
</event>
<event>
12    1  0.1013215E-001  0.2323250E+03  0.7546771E-02  0.1125131E+00
         21   -1    0    0  501  502  0.00000000000E+00  0.00000000000E+00  0.22479216156E+03  0.22479216156E+03  0.00000000000E+00 0.  1.
         21   -1    0    0  502  503 -0.00000000000E+00 -0.00000000000E+00 -0.25080916665E+03  0.25080916665E+03  0.00000000000E+00 0. -1.
         -6    2    1    2    0  503  0.55730809688E+02  0.14466372223E+03 -0.63704892585E+02  0.24090086109E+03  0.17303582246E+03 0.  0.
        -24    2    3    3    0    0  0.12614407609E+02 -0.25663763785E+01 -0.12045880316E+02  0.78954976259E+02  0.76961519452E+02 0.  0.
          6    2    1    2  501    0 -0.55730809688E+02 -0.14466372223E+03  0.37687887491E+02  0.23470046712E+03  0.17213487946E+03 0.  0.
         24    2    5    5    0    0 -0.36801468972E+02 -0.76537326926E+02  0.89594354456E+02  0.14686028844E+03  0.79551778360E+02 0.  0.
          5    1    5    5  501    0 -0.18929340716E+02 -0.68126395305E+02 -0.51906466965E+02  0.87840178677E+02  0.47000000000E+01 0. -1.
        -13    1    6    6    0    0 -0.18739170211E+02 -0.29109479956E+02  0.89657688038E+02  0.96109413420E+02  0.00000000000E+00 0.  1.
         14    1    6    6    0    0 -0.18062298760E+02 -0.47427846970E+02 -0.63333582031E-01  0.50750875025E+02  0.00000000000E+00 0. -1.
         -5    1    3    3    0  503  0.43116402078E+02  0.14723009861E+03 -0.51659012269E+02  0.16194588483E+03  0.47000000000E+01 0.  1.
         11    1    4    4    0    0 -0.10447166475E+02 -0.32631225150E+02 -0.20778024200E+02  0.40070767797E+02  0.00000000000E+00 0. -1.
        -12    1    4    4    0    0  0.23061574084E+02  0.30064848772E+02  0.87321438841E+01  0.38884208462E+02  0.00000000000E+00 0.  1.
<mgrwt>
<rscale>  2 0.23215727E+03</rscale>
<asrwt>0</asrwt>
<pdfrwt beam="1">  1       21 0.34583409E-01 0.23232501E+03</pdfrwt>
<pdfrwt beam="2">  1       21 0.38586026E-01 0.23232501E+03</pdfrwt>
<totfact> 0.51251464E+04</totfact>
</mgrwt>
</event>
<event>
12    1  0.1013215E-001  0.2092717E+03  0.7546771E-02  0.1142167E+00
         21   -1    0    0  501  502  0.00000000000E+00  0.00000000000E+00  0.51310538066E+02  0.51310538066E+02  0.00000000000E+00 0. -1.
         21   -1    0    0  502  503 -0.00000000000E+00 -0.00000000000E+00 -0.89259120640E+03  0.89259120640E+03  0.00000000000E+00 0.  1.
         -6    2    1    2    0  503 -0.47516595832E+01  0.11728623473E+03 -0.52007743317E+03  0.56060250566E+03  0.17325124456E+03 0.  0.
        -24    2    3    3    0    0  0.49980883165E+02  0.16687594728E+02 -0.27778468366E+03  0.29256593340E+03  0.75192622055E+02 0.  0.
          6    2    1    2  501    0  0.47516595832E+01 -0.11728623473E+03 -0.32120323517E+03  0.38329923880E+03  0.17311311059E+03 0.  0.
         24    2    5    5    0    0  0.31307413368E+02  0.38334376866E+01 -0.15375439490E+03  0.17488525844E+03  0.77133587310E+02 0.  0.
          5    1    5    5  501    0 -0.26555753785E+02 -0.12111967242E+03 -0.16744884026E+03  0.20841398036E+03  0.47000000000E+01 0. -1.
        -13    1    6    6    0    0  0.45426036148E+01  0.32671938510E+02 -0.28487242699E+02  0.43584559309E+02  0.00000000000E+00 0.  1.
         14    1    6    6    0    0  0.26764809753E+02 -0.28838500823E+02 -0.12526715220E+03  0.13130069913E+03  0.00000000000E+00 0. -1.
         -5    1    3    3    0  503 -0.54732542748E+02  0.10059864000E+03 -0.24229274951E+03  0.26803657226E+03  0.47000000000E+01 0.  1.
         11    1    4    4    0    0  0.47961109357E+02  0.36731348063E+02 -0.12924612826E+03  0.14266752122E+03  0.00000000000E+00 0. -1.
        -12    1    4    4    0    0  0.20197738080E+01 -0.20043753335E+02 -0.14853855540E+03  0.14989841218E+03  0.00000000000E+00 0.  1.
<mgrwt>
<rscale>  2 0.20924308E+03</rscale>
<asrwt>0</asrwt>
<pdfrwt beam="1">  1       21 0.78939295E-02 0.20927167E+03</pdfrwt>
<pdfrwt beam="2">  1       21 0.13732171E+00 0.20927167E+03</pdfrwt>
<totfact> 0.45768201E+04</totfact>
</mgrwt>
</event>
<event>
12    1  0.1013215E-001  0.1900713E+03  0.7546771E-02  0.1158575E+00
         21   -1    0    0  501  502  0.00000000000E+00  0.00000000000E+00  0.11773782424E+03  0.11773782424E+03  0.00000000000E+00 0. -1.
         21   -1    0    0  502  503 -0.00000000000E+00 -0.00000000000E+00 -0.68828949103E+03  0.68828949103E+03  0.00000000000E+00 0. -1.
         -6    2    1    2    0  503  0.48320842789E+02 -0.60852234290E+02 -0.58605835863E+03  0.61610996437E+03  0.17346235962E+03 0.  0.
        -24    2    3    3    0    0 -0.40476713472E+02 -0.30381609871E+02 -0.31204187233E+03  0.32641945760E+03  0.81351863259E+02 0.  0.
          6    2    1    2  501    0 -0.48320842789E+02  0.60852234290E+02  0.15506691842E+02  0.18991735090E+03  0.17259850641E+03 0.  0.
         24    2    5    5    0    0 -0.83015333967E+02  0.11094187233E+02 -0.24284796522E+02  0.11721918372E+03  0.78332362568E+02 0.  0.
          5    1    5    5  501    0  0.34694491178E+02  0.49758047056E+02  0.39791488364E+02  0.72698167179E+02  0.47000000000E+01 0. -1.
        -11    1    6    6    0    0  0.10532819917E+02  0.16454790823E+02  0.26672501280E+01  0.19718383800E+02  0.00000000000E+00 0.  1.
         12    1    6    6    0    0 -0.93548153884E+02 -0.53606035901E+01 -0.26952046650E+02  0.97500799918E+02  0.00000000000E+00 0. -1.
         -5    1    3    3    0  503  0.88797556262E+02 -0.30470624419E+02 -0.27401648630E+03  0.28969050677E+03  0.47000000000E+01 0.  1.
         13    1    4    4    0    0 -0.46260815424E+02 -0.32387574190E+02 -0.31471345333E+03  0.31973985631E+03  0.00000000000E+00 0. -1.
        -14    1    4    4    0    0  0.57841019514E+01  0.20059643194E+01  0.26715810015E+01  0.66796012817E+01  0.00000000000E+00 0.  1.
<mgrwt>
<rscale>  2 0.18987396E+03</rscale>
<asrwt>0</asrwt>
<pdfrwt beam="1">  1       21 0.18113511E-01 0.19007127E+03</pdfrwt>
<pdfrwt beam="2">  1       21 0.10589069E+00 0.19007127E+03</pdfrwt>
<totfact> 0.19900181E+04</totfact>
</mgrwt>
</event>
<event>
12    1  0.1013215E-001  0.1889044E+03  0.7546771E-02  0.1159763E+00
         21   -1    0    0  503  502  0.00000000000E+00  0.00000000000E+00  0.24991781622E+03  0.24991781622E+03  0.00000000000E+00 0.  1.
         21   -1    0    0  501  503 -0.00000000000E+00 -0.00000000000E+00 -0.38955001384E+03  0.38955001384E+03  0.00000000000E+00 0.  1.
          6    2    1    2  501    0 -0.28522417876E+02 -0.67122047677E+02 -0.32491233546E+03  0.37583626454E+03  0.17425835532E+03 0.  0.
         24    2    3    3    0    0 -0.17435746982E+02 -0.16921205524E+02 -0.53338560564E+02  0.99399211961E+02  0.80279940372E+02 0.  0.
         -6    2    1    2    0  502  0.28522417876E+02  0.67122047677E+02  0.18528013784E+03  0.26363156552E+03  0.17278302942E+03 0.  0.
        -24    2    5    5    0    0 -0.12048571472E+02 -0.27579481434E+01  0.15934871836E+03  0.17863893343E+03  0.79793985631E+02 0.  0.
          5    1    3    3  501    0 -0.11086670893E+02 -0.50200842153E+02 -0.27157377490E+03  0.27643705258E+03  0.47000000000E+01 0. -1.
        -13    1    4    4    0    0  0.89513406243E+01 -0.35237416097E+02 -0.56432026676E+02  0.67129543622E+02  0.00000000000E+00 0.  1.
         14    1    4    4    0    0 -0.26387087607E+02  0.18316210572E+02  0.30934661126E+01  0.32269668339E+02  0.00000000000E+00 0. -1.
         -5    1    5    5    0  502  0.40570989348E+02  0.69879995820E+02  0.25931419481E+02  0.84992632086E+02  0.47000000000E+01 0.  1.
         13    1    6    6    0    0 -0.32643627041E+02  0.26366885993E+02  0.11012870331E+03  0.11785223951E+03  0.00000000000E+00 0. -1.
        -14    1    6    6    0    0  0.20595055569E+02 -0.29124834136E+02  0.49220015048E+02  0.60786693927E+02  0.00000000000E+00 0.  1.
<mgrwt>
<rscale>  2 0.18856346E+03</rscale>
<asrwt>0</asrwt>
<pdfrwt beam="1">  1       21 0.38448895E-01 0.18890440E+03</pdfrwt>
<pdfrwt beam="2">  1       21 0.59930771E-01 0.18890440E+03</pdfrwt>
<totfact> 0.16983709E+04</totfact>
</mgrwt>
</event>
<event>
12    1  0.1013215E-001  0.1993347E+03  0.7546771E-02  0.1150644E+00
         21   -1    0    0  501  502  0.00000000000E+00  0.00000000000E+00  0.72288640962E+03  0.72288640962E+03  0.00000000000E+00 0.  1.
         21   -1    0    0  502  503 -0.00000000000E+00 -0.00000000000E+00 -0.75459098067E+02  0.75459098067E+02  0.00000000000E+00 0.  1.
         -6    2    1    2    0  503 -0.96762425079E+02 -0.44807202129E+01  0.11250950543E+03  0.22749404966E+03  0.17237201065E+03 0.  0.
        -24    2    3    3    0    0 -0.72704948959E+01  0.48655032943E+02  0.54056278725E+02  0.10803240919E+03  0.79553427575E+02 0.  0.
          6    2    1    2  501    0  0.96762425079E+02  0.44807202129E+01  0.53491780613E+03  0.57085145803E+03  0.17421619920E+03 0.  0.
         24    2    5    5    0    0  0.13006296855E+03  0.29013046977E+00  0.49657259117E+03  0.51967594877E+03  0.81007983995E+02 0.  0.
          5    1    5    5  501    0 -0.33300543468E+02  0.41905897432E+01  0.38345214961E+02  0.51175509260E+02  0.47000000000E+01 0. -1.
        -11    1    6    6    0    0  0.46773813753E+01 -0.81381206880E+01  0.16214375205E+03  0.16241521861E+03  0.00000000000E+00 0.  1.
         12    1    6    6    0    0  0.12538558717E+03  0.84282511577E+01  0.33442883911E+03  0.35726073016E+03  0.00000000000E+00 0. -1.
         -5    1    3    3    0  503 -0.89491930183E+02 -0.53135753155E+02  0.58453226704E+02  0.11946164047E+03  0.47000000000E+01 0.  1.
         11    1    4    4    0    0 -0.89384008827E+01 -0.17984649419E+02 -0.29773858133E+01  0.20302892684E+02  0.00000000000E+00 0. -1.
        -12    1    4    4    0    0  0.16679059868E+01  0.66639682361E+02  0.57033664538E+02  0.87729516505E+02  0.00000000000E+00 0.  1.
<mgrwt>
<rscale>  2 0.19893105E+03</rscale>
<asrwt>0</asrwt>
<pdfrwt beam="1">  1       21 0.11121329E+00 0.19933471E+03</pdfrwt>
<pdfrwt beam="2">  1       21 0.11609092E-01 0.19933471E+03</pdfrwt>
<totfact> 0.39450155E+04</totfact>
</mgrwt>
</event>
<event>
12    1  0.1013215E-001  0.2166867E+03  0.7546771E-02  0.1136756E+00
         21   -1    0    0  503  502  0.00000000000E+00  0.00000000000E+00  0.21786368802E+03  0.21786368802E+03  0.00000000000E+00 0.  1.
         21   -1    0    0  501  503 -0.00000000000E+00 -0.00000000000E+00 -0.27547965558E+03  0.27547965558E+03  0.00000000000E+00 0. -1.
          6    2    1    2  501    0  0.10554488526E+03  0.74068197803E+02  0.88044506001E+02  0.23389095935E+03  0.17414742346E+03 0.  0.
         24    2    3    3    0    0  0.12768492697E+03  0.37609127599E+02  0.10481122558E+03  0.18781864519E+03  0.81071347709E+02 0.  0.
         -6    2    1    2    0  502 -0.10554488526E+03 -0.74068197803E+02 -0.14566047356E+03  0.25945238425E+03  0.17167628085E+03 0.  0.
        -24    2    5    5    0    0 -0.49702269609E+02  0.77463761399E+01 -0.12671168019E+03  0.15849115901E+03  0.80828680800E+02 0.  0.
          5    1    3    3  501    0 -0.22140041705E+02  0.36459070204E+02 -0.16766719580E+02  0.46072314163E+02  0.47000000000E+01 0. -1.
        -13    1    4    4    0    0  0.55266556168E+02 -0.84664033358E+01  0.81573195588E+02  0.98895189239E+02  0.00000000000E+00 0.  1.
         14    1    4    4    0    0  0.72418370800E+02  0.46075530935E+02  0.23238029993E+02  0.88923455951E+02  0.00000000000E+00 0. -1.
         -5    1    5    5    0  502 -0.55842615655E+02 -0.81814573943E+02 -0.18948793369E+02  0.10096122524E+03  0.47000000000E+01 0.  1.
         11    1    6    6    0    0 -0.22829952960E+02 -0.36586944844E+02 -0.63118810060E+02  0.76444721653E+02  0.00000000000E+00 0. -1.
        -12    1    6    6    0    0 -0.26872316649E+02  0.44333320984E+02 -0.63592870128E+02  0.82046437355E+02  0.00000000000E+00 0.  1.
<mgrwt>
<rscale>  2 0.21618979E+03</rscale>
<asrwt>0</asrwt>
<pdfrwt beam="1">  1       21 0.33517491E-01 0.21668675E+03</pdfrwt>
<pdfrwt beam="2">  1       21 0.42381485E-01 0.21668675E+03</pdfrwt>
<totfact> 0.45389822E+04</totfact>
</mgrwt>
</event>
<event>
12    1  0.1013215E-001  0.1772955E+03  0.7546771E-02  0.1170608E+00
         21   -1    0    0  503  502  0.00000000000E+00  0.00000000000E+00  0.23412092807E+03  0.23412092807E+03  0.00000000000E+00 0.  1.
         21   -1    0    0  501  503 -0.00000000000E+00 -0.00000000000E+00 -0.37668131802E+03  0.37668131802E+03  0.00000000000E+00 0.  1.
          6    2    1    2  501    0  0.20431524174E+02 -0.29853199122E+02 -0.31648387738E+03  0.36244146774E+03  0.17289624696E+03 0.  0.
         24    2    3    3    0    0  0.61015347548E+02  0.33639097954E+01 -0.28282828409E+03  0.29994977226E+03  0.79017966737E+02 0.  0.
         -6    2    1    2    0  502 -0.20431524174E+02  0.29853199122E+02  0.17392348743E+03  0.24836077835E+03  0.17356565348E+03 0.  0.
        -24    2    5    5    0    0 -0.73189129780E+02 -0.14784209931E+02  0.98357433130E+02  0.14585135538E+03  0.77609352738E+02 0.  0.
          5    1    3    3  501    0 -0.40583823374E+02 -0.33217108917E+02 -0.33655593289E+02  0.62491695481E+02  0.47000000000E+01 0. -1.
        -13    1    4    4    0    0  0.32299095178E+02 -0.80140717604E+01 -0.28681194797E+02  0.43932537265E+02  0.00000000000E+00 0.  1.
         14    1    4    4    0    0  0.28716252369E+02  0.11377981556E+02 -0.25414708930E+03  0.25601723499E+03  0.00000000000E+00 0. -1.
         -5    1    5    5    0  502  0.52757605607E+02  0.44637409053E+02  0.75566054297E+02  0.10250942297E+03  0.47000000000E+01 0.  1.
         13    1    6    6    0    0  0.43377167864E+01  0.15762543025E+02  0.42494835505E+02  0.45531138731E+02  0.00000000000E+00 0. -1.
        -14    1    6    6    0    0 -0.77526846567E+02 -0.30546752956E+02  0.55862597625E+02  0.10032021665E+03  0.00000000000E+00 0.  1.
<mgrwt>
<rscale>  2 0.17713146E+03</rscale>
<asrwt>0</asrwt>
<pdfrwt beam="1">  1       21 0.36018605E-01 0.17729551E+03</pdfrwt>
<pdfrwt beam="2">  1       21 0.57950971E-01 0.17729551E+03</pdfrwt>
<totfact> 0.20938458E+04</totfact>
</mgrwt>
</event>
<event>
12    1  0.1013215E-001  0.2406040E+03  0.7546771E-02  0.1120314E+00
         21   -1    0    0  501  502  0.00000000000E+00  0.00000000000E+00  0.10556635486E+04  0.10556635486E+04  0.00000000000E+00 0. -1.
         21   -1    0    0  502  503 -0.00000000000E+00 -0.00000000000E+00 -0.10534520099E+03  0.10534520099E+03  0.00000000000E+00 0.  1.
         -6    2    1    2    0  503 -0.16270426703E+03  0.42214103341E+01  0.65510434011E+02  0.24407072717E+03  0.16967145925E+03 0.  0.
        -24    2    3    3    0    0 -0.77623863101E+02 -0.12998455481E+02 -0.27911211696E+02  0.11645845191E+03  0.81173341161E+02 0.  0.
          6    2    1    2  501    0  0.16270426703E+03 -0.42214103341E+01  0.88480791358E+03  0.91693802239E+03  0.17719987067E+03 0.  0.
         24    2    5    5    0    0  0.19222645094E+03 -0.17129752188E+02  0.74188743897E+03  0.77035515608E+03  0.76194865687E+02 0.  0.
          5    1    5    5  501    0 -0.29522183910E+02  0.12908341854E+02  0.14292047461E+03  0.14658286631E+03  0.47000000000E+01 0. -1.
        -11    1    6    6    0    0 -0.58813736514E+01 -0.57713765402E+01  0.45850825011E+02  0.46585378579E+02  0.00000000000E+00 0.  1.
         12    1    6    6    0    0  0.19810782459E+03 -0.11358375648E+02  0.69603661396E+03  0.72376977750E+03  0.00000000000E+00 0. -1.
         -5    1    3    3    0  503 -0.85080403929E+02  0.17219865815E+02  0.93421645707E+02  0.12761227526E+03  0.47000000000E+01 0.  1.
         13    1    4    4    0    0 -0.68403926139E-01  0.17429789033E+02  0.14773947764E+02  0.22848889631E+02  0.00000000000E+00 0. -1.
        -14    1    4    4    0    0 -0.77555459174E+02 -0.30428244514E+02 -0.42685159460E+02  0.93609562279E+02  0.00000000000E+00 0.  1.
<mgrwt>
<rscale>  2 0.23921978E+03</rscale>
<asrwt>0</asrwt>
<pdfrwt beam="1">  1       21 0.16240977E+00 0.24060402E+03</pdfrwt>
<pdfrwt beam="2">  1       21 0.16206955E-01 0.24060402E+03</pdfrwt>
<totfact> 0.79455740E+03</totfact>
</mgrwt>
</event>
<event>
12    1  0.1013215E-001  0.2063544E+03  0.7546771E-02  0.1144665E+00
         21   -1    0    0  501  502  0.00000000000E+00  0.00000000000E+00  0.17215024423E+03  0.17215024423E+03  0.00000000000E+00 0. -1.
         21   -1    0    0  502  503 -0.00000000000E+00 -0.00000000000E+00 -0.10734448486E+04  0.10734448486E+04  0.00000000000E+00 0. -1.
         -6    2    1    2    0  503  0.84319212030E+02  0.72550747883E+02 -0.99712474002E+03  0.10180746238E+04  0.17275662606E+03 0.  0.
        -24    2    3    3    0    0  0.67529678548E+02 -0.23720910542E+02 -0.53944917334E+03  0.55005845418E+03  0.80224393535E+02 0.  0.
          6    2    1    2  501    0 -0.84319212030E+02 -0.72550747883E+02  0.95830135685E+02  0.22752046904E+03  0.17380681342E+03 0.  0.
         24    2    5    5    0    0 -0.28994938690E+02 -0.31296490222E+02  0.12297631677E+03  0.15321236623E+03  0.80812609853E+02 0.  0.
          5    1    5    5  501    0 -0.55324273340E+02 -0.41254257661E+02 -0.27146181083E+02  0.74308102810E+02  0.47000000000E+01 0. -1.
        -11    1    6    6    0    0  0.98175126796E+01 -0.30755662325E+02  0.10067861754E+02  0.33817985756E+02  0.00000000000E+00 0.  1.
         12    1    6    6    0    0 -0.38812451369E+02 -0.54082789686E+00  0.11290845501E+03  0.11939438048E+03  0.00000000000E+00 0. -1.
         -5    1    3    3    0  503  0.16789533483E+02  0.96271658425E+02 -0.45767556669E+03  0.46801616958E+03  0.47000000000E+01 0.  1.
         13    1    4    4    0    0 -0.16835471477E+02  0.18414361235E+01 -0.13858609044E+03  0.13961707793E+03  0.00000000000E+00 0. -1.
        -14    1    4    4    0    0  0.84365150024E+02 -0.25562346666E+02 -0.40086308289E+03  0.41044137624E+03  0.00000000000E+00 0.  1.
<mgrwt>
<rscale>  2 0.20613313E+03</rscale>
<asrwt>0</asrwt>
<pdfrwt beam="1">  1       21 0.26484654E-01 0.20635443E+03</pdfrwt>
<pdfrwt beam="2">  1       21 0.16514536E+00 0.20635443E+03</pdfrwt>
<totfact> 0.30940516E+03</totfact>
</mgrwt>
</event>
<event>
12    1  0.1013215E-001  0.1757545E+03  0.7546771E-02  0.1172302E+00
         21   -1    0    0  501  502  0.00000000000E+00  0.00000000000E+00  0.20294595951E+04  0.20294595951E+04  0.00000000000E+00 0.  1.
         21   -1    0    0  502  503 -0.00000000000E+00 -0.00000000000E+00 -0.16266646689E+02  0.16266646689E+02  0.00000000000E+00 0.  1.
         -6    2    1    2    0  503 -0.12335277614E+02  0.24683296495E+02  0.73017337124E+03  0.75072474298E+03  0.17225871084E+03 0.  0.
        -24    2    3    3    0    0 -0.42821240662E+02 -0.42293085035E+02  0.39327096769E+03  0.40584715725E+03  0.80171674080E+02 0.  0.
          6    2    1    2  501    0  0.12335277614E+02 -0.24683296495E+02  0.12830195771E+04  0.12950014988E+04  0.17357483200E+03 0.  0.
         24    2    5    5    0    0 -0.43320954805E+01  0.40620670893E+02  0.10011183151E+04  0.10051173477E+04  0.79713210561E+02 0.  0.
          5    1    5    5  501    0  0.16667373095E+02 -0.65303967388E+02  0.28190126203E+03  0.28988415102E+03  0.47000000000E+01 0. -1.
        -11    1    6    6    0    0  0.19937142905E+01 -0.68825894448E+01  0.71335096834E+03  0.71338695599E+03  0.00000000000E+00 0.  1.
         12    1    6    6    0    0 -0.63258097710E+01  0.47503260338E+02  0.28776734677E+03  0.29173039176E+03  0.00000000000E+00 0. -1.
         -5    1    3    3    0  503  0.30485963048E+02  0.66976381530E+02  0.33690240354E+03  0.34487758573E+03  0.47000000000E+01 0.  1.
         11    1    4    4    0    0  0.13391637661E+02 -0.39740905235E+02  0.12876553798E+03  0.13542244748E+03  0.00000000000E+00 0. -1.
        -12    1    4    4    0    0 -0.56212878323E+02 -0.25521797995E+01  0.26450542971E+03  0.27042470977E+03  0.00000000000E+00 0.  1.
<mgrwt>
<rscale>  2 0.17542868E+03</rscale>
<asrwt>0</asrwt>
<pdfrwt beam="1">  1       21 0.31222435E+00 0.17575451E+03</pdfrwt>
<pdfrwt beam="2">  1       21 0.25025626E-02 0.17575451E+03</pdfrwt>
<totfact> 0.25203183E+04</totfact>
</mgrwt>
</event>
<event>
12    1  0.1013215E-001  0.2054933E+03  0.7546771E-02  0.1146166E+00
         21   -1    0    0  501  502  0.00000000000E+00  0.00000000000E+00  0.19672478176E+03  0.19672478176E+03  0.00000000000E+00 0.  1.
         21   -1    0    0  502  503 -0.00000000000E+00 -0.00000000000E+00 -0.21025051089E+03  0.21025051089E+03  0.00000000000E+00 0. -1.
         -6    2    1    2    0  503  0.71608135087E+02  0.84074441774E+02 -0.17126965779E+02  0.20620579625E+03  0.17329529907E+03 0.  0.
        -24    2    3    3    0    0 -0.12394701444E+02  0.87879717137E+02 -0.23345131277E+02  0.12175633060E+03  0.80019594968E+02 0.  0.
          6    2    1    2  501    0 -0.71608135087E+02 -0.84074441774E+02  0.36012366472E+01  0.20076949641E+03  0.16762811522E+03 0.  0.
         24    2    5    5    0    0  0.95190405745E+01 -0.80799403071E+02  0.79026388208E+01  0.11932665406E+03  0.86932404769E+02 0.  0.
          5    1    5    5  501    0 -0.81127175662E+02 -0.32750387026E+01 -0.43014021736E+01  0.81442842350E+02  0.47000000000E+01 0. -1.
        -13    1    6    6    0    0 -0.30316128463E+01 -0.82732912102E+02  0.34627320829E+02  0.89738379577E+02  0.00000000000E+00 0.  1.
         14    1    6    6    0    0  0.12550653421E+02  0.19335090306E+01 -0.26724682009E+02  0.29588274484E+02  0.00000000000E+00 0. -1.
         -5    1    3    3    0  503  0.84002836531E+02 -0.38052753627E+01  0.62181654978E+01  0.84449465647E+02  0.47000000000E+01 0.  1.
         11    1    4    4    0    0 -0.20503626033E+02  0.64068946775E+02 -0.50967398903E+02  0.84397300741E+02  0.00000000000E+00 0. -1.
        -12    1    4    4    0    0  0.81089245886E+01  0.23810770362E+02  0.27622267626E+02  0.37359029859E+02  0.00000000000E+00 0.  1.
<mgrwt>
<rscale>  2 0.20429381E+03</rscale>
<asrwt>0</asrwt>
<pdfrwt beam="1">  1       21 0.30265351E-01 0.20549330E+03</pdfrwt>
<pdfrwt beam="2">  1       21 0.32346232E-01 0.20549330E+03</pdfrwt>
<totfact> 0.95821636E+04</totfact>
</mgrwt>
</event>
<event>
12    1  0.1013215E-001  0.1829478E+03  0.7546771E-02  0.1166833E+00
         21   -1    0    0  501  502  0.00000000000E+00  0.00000000000E+00  0.62390800548E+03  0.62390800548E+03  0.00000000000E+00 0. -1.
         21   -1    0    0  502  503 -0.00000000000E+00 -0.00000000000E+00 -0.63500482694E+02  0.63500482694E+02  0.00000000000E+00 0. -1.
         -6    2    1    2    0  503  0.42537482515E+02  0.41842509496E+02  0.13520550480E+03  0.22748723653E+03  0.17294415641E+03 0.  0.
        -24    2    3    3    0    0  0.87952912853E+02  0.26193674635E+02  0.13090446496E+03  0.17903069632E+03  0.80586523742E+02 0.  0.
          6    2    1    2  501    0 -0.42537482515E+02 -0.41842509496E+02  0.42520201799E+03  0.45992125164E+03  0.16483497382E+03 0.  0.
         24    2    5    5    0    0 -0.73856067920E+02  0.32227043077E+01  0.35500228469E+03  0.37069222138E+03  0.76948010134E+02 0.  0.
          5    1    5    5  501    0  0.31318585405E+02 -0.45065213804E+02  0.70199733298E+02  0.89229030265E+02  0.47000000000E+01 0. -1.
        -13    1    6    6    0    0 -0.21199720236E+01  0.21261231196E+02  0.17175467623E+03  0.17307860364E+03  0.00000000000E+00 0.  1.
         14    1    6    6    0    0 -0.71736095896E+02 -0.18038526889E+02  0.18324760846E+03  0.19761361773E+03  0.00000000000E+00 0. -1.
         -5    1    3    3    0  503 -0.45415430338E+02  0.15648834861E+02  0.43010398381E+01  0.48456540209E+02  0.47000000000E+01 0.  1.
         13    1    4    4    0    0 -0.24522321529E+01  0.20563867020E+02  0.61572058280E+02  0.64961561174E+02  0.00000000000E+00 0. -1.
        -14    1    4    4    0    0  0.90405145006E+02  0.56298076157E+01  0.69332406679E+02  0.11406913515E+03  0.00000000000E+00 0.  1.
<mgrwt>
<rscale>  2 0.18100568E+03</rscale>
<asrwt>0</asrwt>
<pdfrwt beam="1">  1       21 0.95985843E-01 0.18294785E+03</pdfrwt>
<pdfrwt beam="2">  1       21 0.97693055E-02 0.18294785E+03</pdfrwt>
<totfact> 0.76784011E+04</totfact>
</mgrwt>
</event>
<event>
12    1  0.1013215E-001  0.1755681E+03  0.7546771E-02  0.1172512E+00
         21   -1    0    0  501  502  0.00000000000E+00  0.00000000000E+00  0.70192585877E+02  0.70192585877E+02  0.00000000000E+00 0. -1.
         21   -1    0    0  502  503 -0.00000000000E+00 -0.00000000000E+00 -0.54801534654E+03  0.54801534654E+03  0.00000000000E+00 0. -1.
         -6    2    1    2    0  503  0.22989900939E+02  0.81453107265E+01 -0.37811414020E+03  0.41630211511E+03  0.17245946303E+03 0.  0.
        -24    2    3    3    0    0 -0.24548477128E+02  0.22190220950E+02 -0.77539270637E+02  0.11163098240E+03  0.73171743897E+02 0.  0.
          6    2    1    2  501    0 -0.22989900939E+02 -0.81453107265E+01 -0.99708620462E+02  0.20190581731E+03  0.17386566204E+03 0.  0.
         24    2    5    5    0    0  0.33719966321E+02 -0.37810846591E+02 -0.99307859137E+02  0.13773180643E+03  0.80878324463E+02 0.  0.
          5    1    5    5  501    0 -0.56709867260E+02  0.29665535865E+02 -0.40076132446E+00  0.64174010880E+02  0.47000000000E+01 0. -1.
        -13    1    6    6    0    0  0.29767328280E+02  0.21017872433E+02 -0.36131350464E+02  0.51315877474E+02  0.00000000000E+00 0.  1.
         14    1    6    6    0    0  0.39526380407E+01 -0.58828719024E+02 -0.63176508673E+02  0.86415928958E+02  0.00000000000E+00 0. -1.
         -5    1    3    3    0  503  0.47538378067E+02 -0.14044910224E+02 -0.30057486957E+03  0.30467113271E+03  0.47000000000E+01 0.  1.
         13    1    4    4    0    0  0.16688498750E+02  0.22865863676E+02 -0.60901228008E+02  0.67158866019E+02  0.00000000000E+00 0. -1.
        -14    1    4    4    0    0 -0.41236975877E+02 -0.67564272528E+00 -0.16638042630E+02  0.44472116378E+02  0.00000000000E+00 0.  1.
<mgrwt>
<rscale>  2 0.17521892E+03</rscale>
<asrwt>0</asrwt>
<pdfrwt beam="1">  1       21 0.10798860E-01 0.17556808E+03</pdfrwt>
<pdfrwt beam="2">  1       21 0.84310049E-01 0.17556808E+03</pdfrwt>
<totfact> 0.87074243E+04</totfact>
</mgrwt>
</event>
<event>
12    1  0.1013215E-001  0.2378003E+03  0.7546771E-02  0.1123950E+00
         21   -1    0    0  503  502  0.00000000000E+00  0.00000000000E+00  0.27597065711E+03  0.27597065711E+03  0.00000000000E+00 0. -1.
         21   -1    0    0  501  503 -0.00000000000E+00 -0.00000000000E+00 -0.20840893250E+03  0.20840893250E+03  0.00000000000E+00 0. -1.
          6    2    1    2  501    0  0.10888584821E+03 -0.83388416395E+02 -0.33335554684E+02  0.24012545105E+03  0.19426584133E+03 0.  0.
         24    2    3    3    0    0 -0.26849319094E+02 -0.15284835035E+02  0.25630620403E+02  0.77149277201E+02  0.65883003518E+02 0.  0.
         -6    2    1    2    0  502 -0.10888584821E+03  0.83388416395E+02  0.10089727930E+03  0.24425413856E+03  0.17512871639E+03 0.  0.
        -24    2    5    5    0    0 -0.97540659853E+02  0.62905502840E+02  0.13969558266E+03  0.19869471154E+03  0.80581945650E+02 0.  0.
          5    1    3    3  501    0  0.13573516731E+03 -0.68103581360E+02 -0.58966175087E+02  0.16297617385E+03  0.47000000000E+01 0. -1.
        -13    1    4    4    0    0 -0.25658435472E+02  0.20952730230E+02  0.23904812501E+02  0.40851098830E+02  0.00000000000E+00 0.  1.
         14    1    4    4    0    0 -0.11908836222E+01 -0.36237565264E+02  0.17258079022E+01  0.36298178370E+02  0.00000000000E+00 0. -1.
         -5    1    5    5    0  502 -0.11345188360E+02  0.20482913555E+02 -0.38798303365E+02  0.45559427022E+02  0.47000000000E+01 0.  1.
         13    1    6    6    0    0 -0.73676404468E+02  0.82361546224E+02  0.10917044187E+03  0.15533776827E+03  0.00000000000E+00 0. -1.
        -14    1    6    6    0    0 -0.23864255385E+02 -0.19456043385E+02  0.30525140793E+02  0.43356943270E+02  0.00000000000E+00 0.  1.
<mgrwt>
<rscale>  2 0.23386368E+03</rscale>
<asrwt>0</asrwt>
<pdfrwt beam="1">  1       21 0.42457024E-01 0.23780028E+03</pdfrwt>
<pdfrwt beam="2">  1       21 0.32062912E-01 0.23780028E+03</pdfrwt>
<totfact> 0.48914613E+04</totfact>
</mgrwt>
</event>
<event>
12    1  0.1013215E-001  0.1977629E+03  0.7546771E-02  0.1151972E+00
         21   -1    0    0  501  502  0.00000000000E+00  0.00000000000E+00  0.59227761097E+02  0.59227761097E+02  0.00000000000E+00 0.  1.
         21   -1    0    0  502  503 -0.00000000000E+00 -0.00000000000E+00 -0.11949140479E+04  0.11949140479E+04  0.00000000000E+00 0.  1.
         -6    2    1    2    0  503 -0.22739339955E+02 -0.92193804438E+02 -0.99049889428E+03  0.10100486182E+04  0.17347442556E+03 0.  0.
        -24    2    3    3    0    0 -0.29101466231E+02  0.19586931923E+02 -0.42399386313E+03  0.43256662711E+03  0.78182783772E+02 0.  0.
          6    2    1    2  501    0  0.22739339955E+02  0.92193804438E+02 -0.14518739253E+03  0.24409319085E+03  0.17171293402E+03 0.  0.
         24    2    5    5    0    0 -0.30167572241E+02 -0.18337688487E+01 -0.61944847848E+02  0.10774167035E+03  0.82810978929E+02 0.  0.
          5    1    5    5  501    0  0.52906912197E+02  0.94027573286E+02 -0.83242544686E+02  0.13635152050E+03  0.47000000000E+01 0. -1.
        -11    1    6    6    0    0  0.98899405620E+01  0.33104228573E+02 -0.19152107864E+02  0.39503216443E+02  0.00000000000E+00 0.  1.
         12    1    6    6    0    0 -0.40057512803E+02 -0.34937997422E+02 -0.42792739984E+02  0.68238453904E+02  0.00000000000E+00 0. -1.
         -5    1    3    3    0  503  0.63621262758E+01 -0.11178073636E+03 -0.56650503115E+03  0.57748199105E+03  0.47000000000E+01 0.  1.
         11    1    4    4    0    0 -0.34512614761E+02  0.33277115053E+02 -0.40808642526E+03  0.41089295133E+03  0.00000000000E+00 0. -1.
        -12    1    4    4    0    0  0.54111485299E+01 -0.13690183131E+02 -0.15907437866E+02  0.21673675785E+02  0.00000000000E+00 0.  1.
<mgrwt>
<rscale>  2 0.19737590E+03</rscale>
<asrwt>0</asrwt>
<pdfrwt beam="1">  1       21 0.91119647E-02 0.19776287E+03</pdfrwt>
<pdfrwt beam="2">  1       21 0.18383290E+00 0.19776287E+03</pdfrwt>
<totfact> 0.16322256E+04</totfact>
</mgrwt>
</event>
<event>
11    1  0.1013215E-001  0.2006748E+03  0.7546771E-02  0.1149314E+00
         21   -1    0    0  503  502  0.00000000000E+00  0.00000000000E+00  0.97032527340E+03  0.97032527340E+03  0.00000000000E+00 0. -1.
         21   -1    0    0  501  503 -0.00000000000E+00 -0.00000000000E+00 -0.48608080494E+02  0.48608080494E+02  0.00000000000E+00 0. -1.
          6    2    1    2  501    0  0.10034799788E+03  0.12499403752E+02  0.26480836097E+03  0.33225567375E+03  0.17333323088E+03 0.  0.
         24    2    3    3    0    0  0.11484800388E+03 -0.14219099197E+02  0.26670535165E+03  0.30143657013E+03  0.79624207632E+02 0.  0.
         -6    2    1    2    0  502 -0.10034799788E+03 -0.12499403752E+02  0.65690883194E+03  0.68667768014E+03  0.17254294295E+03 0.  0.
          5    1    3    3  501    0 -0.14500005998E+02  0.26718502949E+02 -0.18969906812E+01  0.30819103611E+02  0.47000000000E+01 0. -1.
        -11    1    4    4    0    0  0.47536746482E+02  0.33020553830E+02  0.99704733102E+02  0.11528717641E+03  0.00000000000E+00 0.  1.
         12    1    4    4    0    0  0.67311257395E+02 -0.47239653027E+02  0.16700061855E+03  0.18614939373E+03  0.00000000000E+00 0. -1.
         -5    1    5    5    0  502 -0.22481929475E+02 -0.51607858587E+02  0.15757354921E+03  0.16739271679E+03  0.47000000000E+01 0.  1.
         11    1    5    5    0    0 -0.17343789007E+02 -0.21242267435E+02  0.31395247905E+03  0.31514790186E+03  0.00000000000E+00 0. -1.
        -12    1    5    5    0    0 -0.60522279397E+02  0.60350722270E+02  0.18538280367E+03  0.20413706150E+03  0.00000000000E+00 0.  1.
<mgrwt>
<rscale>  2 0.20050400E+03</rscale>
<asrwt>0</asrwt>
<pdfrwt beam="1">  1       21 0.14928080E+00 0.20067477E+03</pdfrwt>
<pdfrwt beam="2">  1       21 0.74781669E-02 0.20067477E+03</pdfrwt>
<totfact> 0.40647778E+04</totfact>
</mgrwt>
</event>
<event>
12    1  0.1013215E-001  0.1992239E+03  0.7546771E-02  0.1150555E+00
         21   -1    0    0  503  502  0.00000000000E+00  0.00000000000E+00  0.95750627570E+02  0.95750627570E+02  0.00000000000E+00 0.  1.
         21   -1    0    0  501  503 -0.00000000000E+00 -0.00000000000E+00 -0.53612739578E+03  0.53612739578E+03  0.00000000000E+00 0.  1.
          6    2    1    2  501    0 -0.10093699356E+03 -0.99470319855E+01 -0.37194415264E+03  0.42193912254E+03  0.17147288511E+03 0.  0.
         24    2    3    3    0    0 -0.11566994574E+03 -0.54131412484E+02 -0.30334178001E+03  0.33888676019E+03  0.80735708153E+02 0.  0.
         -6    2    1    2    0  502  0.10093699356E+03  0.99470319855E+01 -0.68432615570E+02  0.20993890081E+03  0.17059923531E+03 0.  0.
        -24    2    5    5    0    0  0.43085478505E+02  0.29205849139E+01 -0.10701650830E+03  0.13988909331E+03  0.79066662409E+02 0.  0.
          5    1    3    3  501    0  0.14732952178E+02  0.44184380499E+02 -0.68602372632E+02  0.83052362343E+02  0.47000000000E+01 0. -1.
        -13    1    4    4    0    0 -0.19730977590E+02 -0.10287393013E+02 -0.15656464381E+03  0.15813800816E+03  0.00000000000E+00 0.  1.
         14    1    4    4    0    0 -0.95938968148E+02 -0.43844019471E+02 -0.14677713619E+03  0.18074875203E+03  0.00000000000E+00 0. -1.
         -5    1    5    5    0  502  0.57851515056E+02  0.70264470716E+01  0.38583892731E+02  0.70049807502E+02  0.47000000000E+01 0.  1.
         13    1    6    6    0    0  0.58717907836E+02 -0.19971224474E+02 -0.79495100826E+02  0.10082714695E+03  0.00000000000E+00 0. -1.
        -14    1    6    6    0    0 -0.15632429331E+02  0.22891809388E+02 -0.27521407476E+02  0.39061946358E+02  0.00000000000E+00 0.  1.
<mgrwt>
<rscale>  2 0.19903579E+03</rscale>
<asrwt>0</asrwt>
<pdfrwt beam="1">  1       21 0.14730866E-01 0.19922392E+03</pdfrwt>
<pdfrwt beam="2">  1       21 0.82481138E-01 0.19922392E+03</pdfrwt>
<totfact> 0.51860197E+04</totfact>
</mgrwt>
</event>
<event>
12    1  0.1013215E-001  0.2098084E+03  0.7546771E-02  0.1142191E+00
         21   -1    0    0  501  502  0.00000000000E+00  0.00000000000E+00  0.55387882236E+03  0.55387882236E+03  0.00000000000E+00 0.  1.
         21   -1    0    0  502  503 -0.00000000000E+00 -0.00000000000E+00 -0.48462010785E+03  0.48462010785E+03  0.00000000000E+00 0.  1.
         -6    2    1    2    0  503 -0.10668718086E+03 -0.46913218914E+02 -0.44069355941E+03  0.48707270972E+03  0.17159838746E+03 0.  0.
        -24    2    3    3    0    0 -0.19933103661E+02 -0.76080285701E+02 -0.20275382059E+03  0.23209350075E+03  0.81072454220E+02 0.  0.
          6    2    1    2  501    0  0.10668718086E+03  0.46913218914E+02  0.50995227391E+03  0.55142622049E+03  0.17446074144E+03 0.  0.
         24    2    5    5    0    0  0.46979880910E+02  0.43435566749E+02  0.45833277419E+03  0.47228256324E+03  0.94276879306E+02 0.  0.
          5    1    5    5  501    0  0.59707299948E+02  0.34776521649E+01  0.51619499726E+02  0.79143657255E+02  0.47000000000E+01 0. -1.
        -11    1    6    6    0    0  0.55728669582E+02  0.59689162189E+02  0.24708048821E+03  0.26022537991E+03  0.00000000000E+00 0.  1.
         12    1    6    6    0    0 -0.87487886723E+01 -0.16253595440E+02  0.21125228598E+03  0.21205718332E+03  0.00000000000E+00 0. -1.
         -5    1    3    3    0  503 -0.86754077197E+02  0.29167066787E+02 -0.23793973882E+03  0.25497920896E+03  0.47000000000E+01 0.  1.
         11    1    4    4    0    0 -0.66903335225E+01 -0.64969690213E+02 -0.20454036868E+03  0.21471512203E+03  0.00000000000E+00 0. -1.
        -12    1    4    4    0    0 -0.13242770138E+02 -0.11110595488E+02  0.17865480855E+01  0.17378378724E+02  0.00000000000E+00 0.  1.
<mgrwt>
<rscale>  2 0.20921234E+03</rscale>
<asrwt>0</asrwt>
<pdfrwt beam="1">  1       21 0.85212126E-01 0.20980838E+03</pdfrwt>
<pdfrwt beam="2">  1       21 0.74556940E-01 0.20980838E+03</pdfrwt>
<totfact> 0.18902291E+03</totfact>
</mgrwt>
</event>
<event>
12    1  0.1013215E-001  0.2023138E+03  0.7546771E-02  0.1149507E+00
         21   -1    0    0  503  502  0.00000000000E+00  0.00000000000E+00  0.15093029250E+03  0.15093029250E+03  0.00000000000E+00 0. -1.
         21   -1    0    0  501  503 -0.00000000000E+00 -0.00000000000E+00 -0.26662870196E+03  0.26662870196E+03  0.00000000000E+00 0. -1.
          6    2    1    2  501    0 -0.85204580498E+02 -0.27467946692E+02 -0.25133651282E+02  0.19589968104E+03  0.17242585645E+03 0.  0.
         24    2    3    3    0    0 -0.83649567628E+02  0.39514046439E+02  0.51458756256E+01  0.12222509100E+03  0.79711246403E+02 0.  0.
         -6    2    1    2    0  502  0.85204580498E+02  0.27467946692E+02 -0.90564758175E+02  0.22165931342E+03  0.18142923461E+03 0.  0.
        -24    2    5    5    0    0  0.31957427693E+02  0.81963258428E+01  0.20463727685E+02  0.96935340890E+02  0.88821389432E+02 0.  0.
          5    1    3    3  501    0 -0.15550128697E+01 -0.66981993130E+02 -0.30279526908E+02  0.73674590046E+02  0.47000000000E+01 0. -1.
        -13    1    4    4    0    0 -0.34862622467E+02  0.58740949139E+02  0.11955877272E+02  0.69345832985E+02  0.00000000000E+00 0.  1.
         14    1    4    4    0    0 -0.48786945161E+02 -0.19226902700E+02 -0.68100016460E+01  0.52879258013E+02  0.00000000000E+00 0. -1.
         -5    1    5    5    0  502  0.53247152805E+02  0.19271620849E+02 -0.11102848586E+03  0.12472397253E+03  0.47000000000E+01 0.  1.
         11    1    6    6    0    0  0.62433888972E+02  0.10563576165E+02  0.76186626804E+01  0.63777924508E+02  0.00000000000E+00 0. -1.
        -12    1    6    6    0    0 -0.30476461279E+02 -0.23672503221E+01  0.12845065004E+02  0.33157416382E+02  0.00000000000E+00 0.  1.
<mgrwt>
<rscale>  2 0.20027491E+03</rscale>
<asrwt>0</asrwt>
<pdfrwt beam="1">  1       21 0.23220045E-01 0.20231381E+03</pdfrwt>
<pdfrwt beam="2">  1       21 0.41019800E-01 0.20231381E+03</pdfrwt>
<totfact> 0.99392257E+04</totfact>
</mgrwt>
</event>
<event>
12    1  0.1013215E-001  0.1811256E+03  0.7546771E-02  0.1167132E+00
         21   -1    0    0  501  502  0.00000000000E+00  0.00000000000E+00  0.91541055856E+02  0.91541055856E+02  0.00000000000E+00 0. -1.
         21   -1    0    0  502  503 -0.00000000000E+00 -0.00000000000E+00 -0.18501993823E+04  0.18501993823E+04  0.00000000000E+00 0. -1.
         -6    2    1    2    0  503 -0.34186866172E+01 -0.53115104381E+02 -0.17512996065E+04  0.17604654347E+04  0.17133398170E+03 0.  0.
        -24    2    3    3    0    0  0.33909706897E+02 -0.55500047285E+02 -0.16346552482E+04  0.16378803897E+04  0.79525261746E+02 0.  0.
          6    2    1    2  501    0  0.34186866172E+01  0.53115104381E+02 -0.73587199394E+01  0.18127500346E+03  0.17312877978E+03 0.  0.
         24    2    5    5    0    0  0.60366141824E+02  0.27186084035E+02  0.29795395848E+02  0.10835144711E+03  0.80430816441E+02 0.  0.
          5    1    5    5  501    0 -0.56947455207E+02  0.25929020346E+02 -0.37154115787E+02  0.72923556349E+02  0.47000000000E+01 0. -1.
        -11    1    6    6    0    0  0.47202978583E+02  0.46424076517E+02  0.45420227230E+02  0.80288935161E+02  0.00000000000E+00 0.  1.
         12    1    6    6    0    0  0.13163163241E+02 -0.19237992482E+02 -0.15624831382E+02  0.28062511950E+02  0.00000000000E+00 0. -1.
         -5    1    3    3    0  503 -0.37328393514E+02  0.23849429040E+01 -0.11664435830E+03  0.12258504492E+03  0.47000000000E+01 0.  1.
         11    1    4    4    0    0 -0.22998283855E+02 -0.20518147157E+02 -0.78433080552E+03  0.78493612983E+03  0.00000000000E+00 0. -1.
        -12    1    4    4    0    0  0.56907990752E+02 -0.34981900128E+02 -0.85032444265E+03  0.85294425991E+03  0.00000000000E+00 0.  1.
<mgrwt>
<rscale>  2 0.18069536E+03</rscale>
<asrwt>0</asrwt>
<pdfrwt beam="1">  1       21 0.14083240E-01 0.18112558E+03</pdfrwt>
<pdfrwt beam="2">  1       21 0.28464605E+00 0.18112558E+03</pdfrwt>
<totfact> 0.18679303E+03</totfact>
</mgrwt>
</event>
<event>
12    1  0.1013215E-001  0.2095629E+03  0.7546771E-02  0.1141953E+00
         21   -1    0    0  503  502  0.00000000000E+00  0.00000000000E+00  0.16991393455E+03  0.16991393455E+03  0.00000000000E+00 0.  1.
         21   -1    0    0  501  503 -0.00000000000E+00 -0.00000000000E+00 -0.40631335293E+03  0.40631335293E+03  0.00000000000E+00 0.  1.
          6    2    1    2  501    0  0.11850406139E+03 -0.66377816681E+01 -0.29218001883E+03  0.35956330891E+03  0.17271171646E+03 0.  0.
         24    2    3    3    0    0  0.12413160324E+00 -0.29618983442E+02 -0.14963555023E+03  0.17279350691E+03  0.81175726353E+02 0.  0.
         -6    2    1    2    0  502 -0.11850406139E+03  0.66377816681E+01  0.55780600448E+02  0.21666397857E+03  0.17246603002E+03 0.  0.
        -24    2    5    5    0    0 -0.47550265936E+02  0.25015180255E+02 -0.68893019560E+01  0.12011463090E+03  0.10720669307E+03 0.  0.
          5    1    3    3  501    0  0.11837992979E+03  0.22981201773E+02 -0.14254446860E+03  0.18676980200E+03  0.47000000000E+01 0. -1.
        -11    1    4    4    0    0  0.39460119683E+01 -0.35432399622E+02 -0.15796648739E+03  0.16193960940E+03  0.00000000000E+00 0.  1.
         12    1    4    4    0    0 -0.38218803650E+01  0.58134161800E+01  0.83309371612E+01  0.10853897512E+02  0.00000000000E+00 0. -1.
         -5    1    5    5    0  502 -0.70953795458E+02 -0.18377398587E+02  0.62669902404E+02  0.96549347673E+02  0.47000000000E+01 0.  1.
         13    1    6    6    0    0  0.32459825492E+02  0.54936729634E+01  0.12991100501E+02  0.35391939843E+02  0.00000000000E+00 0. -1.
        -14    1    6    6    0    0 -0.80010091428E+02  0.19521507292E+02 -0.19880402457E+02  0.84722691052E+02  0.00000000000E+00 0.  1.
<mgrwt>
<rscale>  2 0.20951227E+03</rscale>
<asrwt>0</asrwt>
<pdfrwt beam="1">  1       21 0.26140605E-01 0.20956290E+03</pdfrwt>
<pdfrwt beam="2">  1       21 0.62509747E-01 0.20956290E+03</pdfrwt>
<totfact> 0.32692577E+04</totfact>
</mgrwt>
</event>
<event>
12    1  0.1013215E-001  0.2731157E+03  0.7546771E-02  0.1099614E+00
         21   -1    0    0  501  502  0.00000000000E+00  0.00000000000E+00  0.45697929928E+03  0.45697929928E+03  0.00000000000E+00 0.  1.
         21   -1    0    0  502  503 -0.00000000000E+00 -0.00000000000E+00 -0.18655918957E+03  0.18655918957E+03  0.00000000000E+00 0. -1.
         -6    2    1    2    0  503  0.25190898008E+02 -0.21032435763E+03  0.20187539872E+02  0.27312183477E+03  0.17122232070E+03 0.  0.
        -24    2    3    3    0    0 -0.38213494632E+02 -0.13998569156E+03 -0.25140223672E+02  0.16802977466E+03  0.80905557981E+02 0.  0.
          6    2    1    2  501    0 -0.25190898008E+02  0.21032435763E+03  0.25023256984E+03  0.37041665408E+03  0.17239849726E+03 0.  0.
         24    2    5    5    0    0  0.12447589851E+02  0.13962087366E+03  0.76811748681E+02  0.17933418596E+03  0.81312819787E+02 0.  0.
          5    1    5    5  501    0 -0.37638487859E+02  0.70703483963E+02  0.17342082116E+03  0.19108246813E+03  0.47000000000E+01 0. -1.
        -11    1    6    6    0    0  0.20834798287E+02  0.36029124520E+02  0.61532738851E+02  0.74286368762E+02  0.00000000000E+00 0.  1.
         12    1    6    6    0    0 -0.83872084359E+01  0.10359174914E+03  0.15279009829E+02  0.10504781719E+03  0.00000000000E+00 0. -1.
         -5    1    3    3    0  503  0.63404392639E+02 -0.70338666069E+02  0.45327763543E+02  0.10509206011E+03  0.47000000000E+01 0.  1.
         11    1    4    4    0    0 -0.48834552065E+02 -0.14363186449E+03 -0.14229380370E+02  0.15237257377E+03  0.00000000000E+00 0. -1.
        -12    1    4    4    0    0  0.10621057433E+02  0.36461729307E+01 -0.10910843302E+02  0.15657200887E+02  0.00000000000E+00 0.  1.
<mgrwt>
<rscale>  2 0.27293023E+03</rscale>
<asrwt>0</asrwt>
<pdfrwt beam="1">  1       21 0.70304507E-01 0.27311565E+03</pdfrwt>
<pdfrwt beam="2">  1       21 0.28701414E-01 0.27311565E+03</pdfrwt>
<totfact> 0.20438546E+04</totfact>
</mgrwt>
</event>
<event>
11    1  0.1013215E-001  0.2178812E+03  0.7546771E-02  0.1135874E+00
         21   -1    0    0  503  502  0.00000000000E+00  0.00000000000E+00  0.77988875919E+03  0.77988875919E+03  0.00000000000E+00 0. -1.
         21   -1    0    0  501  503 -0.00000000000E+00 -0.00000000000E+00 -0.89432677773E+02  0.89432677773E+02  0.00000000000E+00 0.  1.
          6    2    1    2  501    0 -0.76108206800E+02  0.10795068548E+03  0.95933355932E+02  0.23613152058E+03  0.17061382299E+03 0.  0.
         -6    2    1    2    0  502  0.76108206800E+02 -0.10795068548E+03  0.59452272548E+03  0.63318991638E+03  0.17328124379E+03 0.  0.
        -24    2    4    4    0    0  0.55330820985E+02 -0.14541327073E+03  0.44470161616E+03  0.47729379759E+03  0.76441629667E+02 0.  0.
          5    1    3    3  501    0 -0.50375808209E+02  0.70435198015E+02  0.13829183574E+03  0.16323468077E+03  0.47000000000E+01 0. -1.
        -13    1    3    3    0    0 -0.16410386393E+02  0.31228323077E+02 -0.72275245463E+01  0.36010360382E+02  0.00000000000E+00 0.  1.
         14    1    3    3    0    0 -0.93220121986E+01  0.62871643907E+01 -0.35130955262E+02  0.36886479435E+02  0.00000000000E+00 0. -1.
         -5    1    4    4    0  502  0.20777385816E+02  0.37462585248E+02  0.14982110932E+03  0.15589611879E+03  0.47000000000E+01 0.  1.
         11    1    5    5    0    0  0.18510339870E+01 -0.77577928735E+02  0.28898527454E+03  0.29922274354E+03  0.00000000000E+00 0. -1.
        -12    1    5    5    0    0  0.53479786998E+02 -0.67835341996E+02  0.15571634163E+03  0.17807105405E+03  0.00000000000E+00 0.  1.
<mgrwt>
<rscale>  2 0.21735039E+03</rscale>
<asrwt>0</asrwt>
<pdfrwt beam="1">  1       21 0.11998288E+00 0.21788116E+03</pdfrwt>
<pdfrwt beam="2">  1       21 0.13758874E-01 0.21788116E+03</pdfrwt>
<totfact> 0.23875243E+04</totfact>
</mgrwt>
</event>
<event>
12    1  0.1013215E-001  0.1734614E+03  0.7546771E-02  0.1174350E+00
         21   -1    0    0  501  502  0.00000000000E+00  0.00000000000E+00  0.96518596323E+02  0.96518596323E+02  0.00000000000E+00 0. -1.
         21   -1    0    0  502  503 -0.00000000000E+00 -0.00000000000E+00 -0.32045071038E+03  0.32045071038E+03  0.00000000000E+00 0. -1.
         -6    2    1    2    0  503  0.53071580134E+01 -0.50355117243E+01 -0.14714415570E+03  0.22727151114E+03  0.17305321412E+03 0.  0.
        -24    2    3    3    0    0  0.52868265341E+02 -0.54184030845E+01 -0.14966907949E+03  0.17941055862E+03  0.83444008884E+02 0.  0.
          6    2    1    2  501    0 -0.53071580134E+01  0.50355117243E+01 -0.76787958360E+02  0.18969779556E+03  0.17330707079E+03 0.  0.
         24    2    5    5    0    0 -0.70443167976E+02  0.75702358183E+00 -0.40653730594E+02  0.11493966777E+03  0.81213228088E+02 0.  0.
          5    1    5    5  501    0  0.65136009963E+02  0.42784881424E+01 -0.36134227766E+02  0.74758127792E+02  0.47000000000E+01 0. -1.
        -13    1    6    6    0    0  0.15964725571E+02 -0.76032353736E+01  0.27284935691E+01  0.17892074443E+02  0.00000000000E+00 0.  1.
         14    1    6    6    0    0 -0.86407893548E+02  0.83602589554E+01 -0.43382224163E+02  0.97047593327E+02  0.00000000000E+00 0. -1.
         -5    1    3    3    0  503 -0.47561107328E+02  0.38289136028E+00  0.25249237890E+01  0.47860952520E+02  0.47000000000E+01 0.  1.
         11    1    4    4    0    0  0.60314447150E+02  0.73652934912E+00 -0.15640511513E+03  0.16763333514E+03  0.00000000000E+00 0. -1.
        -12    1    4    4    0    0 -0.74461818089E+01 -0.61549324337E+01  0.67360356441E+01  0.11777223484E+02  0.00000000000E+00 0.  1.
<mgrwt>
<rscale>  2 0.17339797E+03</rscale>
<asrwt>0</asrwt>
<pdfrwt beam="1">  1       21 0.14849015E-01 0.17346142E+03</pdfrwt>
<pdfrwt beam="2">  1       21 0.49300109E-01 0.17346142E+03</pdfrwt>
<totfact> 0.15776567E+05</totfact>
</mgrwt>
</event>
<event>
12    1  0.1013215E-001  0.2011603E+03  0.7546771E-02  0.1148887E+00
         21   -1    0    0  503  502  0.00000000000E+00  0.00000000000E+00  0.13541533253E+03  0.13541533253E+03  0.00000000000E+00 0. -1.
         21   -1    0    0  501  503 -0.00000000000E+00 -0.00000000000E+00 -0.30481458267E+03  0.30481458267E+03  0.00000000000E+00 0.  1.
          6    2    1    2  501    0  0.53831738100E+02  0.85525518586E+02 -0.51795581892E+02  0.20772157874E+03  0.17393390014E+03 0.  0.
         24    2    3    3    0    0 -0.35864895859E+01  0.72580145793E+02 -0.86542643228E+02  0.13920965410E+03  0.81295499422E+02 0.  0.
         -6    2    1    2    0  502 -0.53831738100E+02 -0.85525518586E+02 -0.11760366825E+03  0.23250833646E+03  0.17325424491E+03 0.  0.
        -24    2    5    5    0    0  0.27349214387E+02 -0.65295984769E+02 -0.10082704670E+03  0.14705000675E+03  0.80287396178E+02 0.  0.
          5    1    3    3  501    0  0.57418227686E+02  0.12945372793E+02  0.34747061336E+02  0.68511924647E+02  0.47000000000E+01 0. -1.
        -13    1    4    4    0    0  0.94941318661E+01  0.58365937408E+02 -0.96346508724E+01  0.59912834075E+02  0.00000000000E+00 0.  1.
         14    1    4    4    0    0 -0.13080621452E+02  0.14214208385E+02 -0.76907992355E+02  0.79296820022E+02  0.00000000000E+00 0. -1.
         -5    1    5    5    0  502 -0.81180952487E+02 -0.20229533818E+02 -0.16776621559E+02  0.85458329706E+02  0.47000000000E+01 0.  1.
         13    1    6    6    0    0 -0.10573879250E+02  0.75420209390E+01  0.42726700934E+01  0.13672772651E+02  0.00000000000E+00 0. -1.
        -14    1    6    6    0    0  0.37923093637E+02 -0.72838005708E+02 -0.10509971679E+03  0.13337723410E+03  0.00000000000E+00 0.  1.
<mgrwt>
<rscale>  2 0.20101331E+03</rscale>
<asrwt>0</asrwt>
<pdfrwt beam="1">  1       21 0.20833128E-01 0.20116031E+03</pdfrwt>
<pdfrwt beam="2">  1       21 0.46894551E-01 0.20116031E+03</pdfrwt>
<totfact> 0.92760001E+04</totfact>
</mgrwt>
</event>
<event>
12    1  0.1013215E-001  0.1752988E+03  0.7546771E-02  0.1172673E+00
         21   -1    0    0  503  502  0.00000000000E+00  0.00000000000E+00  0.58400946135E+03  0.58400946135E+03  0.00000000000E+00 0. -1.
         21   -1    0    0  501  503 -0.00000000000E+00 -0.00000000000E+00 -0.70523802601E+02  0.70523802601E+02  0.00000000000E+00 0. -1.
          6    2    1    2  501    0  0.13234214345E+02  0.21479134044E+02  0.91044905406E+02  0.19753185662E+03  0.17347380768E+03 0.  0.
         24    2    3    3    0    0  0.69428604035E+02  0.15857182189E+02  0.90721556462E+02  0.14086078525E+03  0.80867661831E+02 0.  0.
         -6    2    1    2    0  502 -0.13234214345E+02 -0.21479134044E+02  0.42244075335E+03  0.45700140733E+03  0.17250390891E+03 0.  0.
        -24    2    5    5    0    0 -0.57987359743E+02 -0.14316948379E+02  0.13646410490E+03  0.16741743957E+03  0.76410982497E+02 0.  0.
          5    1    3    3  501    0 -0.56194389691E+02  0.56219518554E+01  0.32334894374E+00  0.56671071367E+02  0.47000000000E+01 0. -1.
        -13    1    4    4    0    0  0.23183788523E+02  0.37027434434E+02  0.76423837371E+02  0.88029096721E+02  0.00000000000E+00 0.  1.
         14    1    4    4    0    0  0.46244815513E+02 -0.21170252245E+02  0.14297719091E+02  0.52831688532E+02  0.00000000000E+00 0. -1.
         -5    1    5    5    0  502  0.44753145398E+02 -0.71621856649E+01  0.28597664845E+03  0.28958396776E+03  0.47000000000E+01 0.  1.
         11    1    6    6    0    0 -0.56250651330E+02  0.10976052524E+02  0.12873005311E+03  0.14091144765E+03  0.00000000000E+00 0. -1.
        -12    1    6    6    0    0 -0.17367084131E+01 -0.25293000904E+02  0.77340517858E+01  0.26505991924E+02  0.00000000000E+00 0.  1.
<mgrwt>
<rscale>  2 0.17505834E+03</rscale>
<asrwt>0</asrwt>
<pdfrwt beam="1">  1       21 0.89847606E-01 0.17529877E+03</pdfrwt>
<pdfrwt beam="2">  1       21 0.10849816E-01 0.17529877E+03</pdfrwt>
<totfact> 0.74642777E+04</totfact>
</mgrwt>
</event>
<event>
12    1  0.1013215E-001  0.2035146E+03  0.7546771E-02  0.1147079E+00
         21   -1    0    0  503  502  0.00000000000E+00  0.00000000000E+00  0.11593414223E+03  0.11593414223E+03  0.00000000000E+00 0.  1.
         21   -1    0    0  501  503 -0.00000000000E+00 -0.00000000000E+00 -0.37377921344E+03  0.37377921344E+03  0.00000000000E+00 0. -1.
          6    2    1    2  501    0  0.98973216689E+02 -0.28960019834E+02 -0.74368318972E+02  0.21667678838E+03  0.17545313730E+03 0.  0.
         24    2    3    3    0    0  0.54978867190E+02  0.52352265047E+02 -0.49498554358E+02  0.12082385075E+03  0.79905322314E+02 0.  0.
         -6    2    1    2    0  502 -0.98973216689E+02  0.28960019834E+02 -0.18347675224E+03  0.27303656729E+03  0.17392776690E+03 0.  0.
        -24    2    5    5    0    0 -0.10522524688E+03 -0.34969209267E+02 -0.11982418314E+03  0.18248396508E+03  0.81531371069E+02 0.  0.
          5    1    3    3  501    0  0.43994349499E+02 -0.81312284881E+02 -0.24869764614E+02  0.95852937631E+02  0.47000000000E+01 0. -1.
        -13    1    4    4    0    0  0.23493149004E+02  0.46325388960E+02 -0.66623809654E+02  0.84479001682E+02  0.00000000000E+00 0.  1.
         14    1    4    4    0    0  0.31485718186E+02  0.60268760874E+01  0.17125255296E+02  0.36344849071E+02  0.00000000000E+00 0. -1.
         -5    1    5    5    0  502  0.62520301934E+01  0.63929229101E+02 -0.63652569096E+02  0.90552602212E+02  0.47000000000E+01 0.  1.
         11    1    6    6    0    0 -0.27726030699E+02 -0.50292627436E+02 -0.62495259162E+02  0.84874840621E+02  0.00000000000E+00 0. -1.
        -12    1    6    6    0    0 -0.77499216184E+02  0.15323418169E+02 -0.57328923980E+02  0.97609124462E+02  0.00000000000E+00 0.  1.
<mgrwt>
<rscale>  2 0.20318539E+03</rscale>
<asrwt>0</asrwt>
<pdfrwt beam="1">  1       21 0.17836022E-01 0.20351458E+03</pdfrwt>
<pdfrwt beam="2">  1       21 0.57504495E-01 0.20351458E+03</pdfrwt>
<totfact> 0.80651242E+04</totfact>
</mgrwt>
</event>
<event>
12    1  0.1013215E-001  0.2026705E+03  0.7546771E-02  0.1147606E+00
         21   -1    0    0  501  502  0.00000000000E+00  0.00000000000E+00  0.97958239362E+02  0.97958239362E+02  0.00000000000E+00 0.  1.
         21   -1    0    0  502  503 -0.00000000000E+00 -0.00000000000E+00 -0.42278416391E+03  0.42278416391E+03  0.00000000000E+00 0. -1.
         -6    2    1    2    0  503  0.43202079234E+02  0.95603710546E+02 -0.13544574824E+03  0.24336149366E+03  0.17283742869E+03 0.  0.
        -24    2    3    3    0    0 -0.35964241643E+02  0.80273349864E+02 -0.63296022015E+02  0.13505637229E+03  0.80601488305E+02 0.  0.
          6    2    1    2  501    0 -0.43202079234E+02 -0.95603710546E+02 -0.18938017630E+03  0.27738090962E+03  0.17340365833E+03 0.  0.
         24    2    5    5    0    0 -0.85585198449E+02 -0.25635649095E+02 -0.10166413483E+03  0.15734736285E+03  0.80253246581E+02 0.  0.
          5    1    5    5  501    0  0.42383119215E+02 -0.69968061451E+02 -0.87716041476E+02  0.12003354677E+03  0.47000000000E+01 0. -1.
        -11    1    6    6    0    0 -0.88482782507E+01 -0.40732939390E+02 -0.31039666494E+02  0.51970426931E+02  0.00000000000E+00 0.  1.
         12    1    6    6    0    0 -0.76736920198E+02  0.15097290295E+02 -0.70624468334E+02  0.10537693592E+03  0.00000000000E+00 0. -1.
         -5    1    3    3    0  503  0.79166320877E+02  0.15330360683E+02 -0.72149726229E+02  0.10830512137E+03  0.47000000000E+01 0.  1.
         13    1    4    4    0    0 -0.68174533833E+01  0.77975663470E+02 -0.70058795731E+02  0.10504721140E+03  0.00000000000E+00 0. -1.
        -14    1    4    4    0    0 -0.29146788259E+02  0.22976863938E+01  0.67627737163E+01  0.30009160884E+02  0.00000000000E+00 0.  1.
<mgrwt>
<rscale>  2 0.20254929E+03</rscale>
<asrwt>0</asrwt>
<pdfrwt beam="1">  1       21 0.15070498E-01 0.20267047E+03</pdfrwt>
<pdfrwt beam="2">  1       21 0.65043717E-01 0.20267047E+03</pdfrwt>
<totfact> 0.84282007E+04</totfact>
</mgrwt>
</event>
<event>
12    1  0.1013215E-001  0.2064221E+03  0.7546771E-02  0.1145663E+00
         21   -1    0    0  503  502  0.00000000000E+00  0.00000000000E+00  0.36050124977E+03  0.36050124977E+03  0.00000000000E+00 0.  1.
         21   -1    0    0  501  503 -0.00000000000E+00 -0.00000000000E+00 -0.52087341340E+03  0.52087341340E+03  0.00000000000E+00 0.  1.
          6    2    1    2  501    0  0.50951666292E+02 -0.80270423757E+02 -0.46902502091E+03  0.51005718635E+03  0.17644956750E+03 0.  0.
         24    2    3    3    0    0  0.12641410415E+02 -0.13808360058E+02 -0.39420708489E+03  0.40279724430E+03  0.80597259107E+02 0.  0.
         -6    2    1    2    0  502 -0.50951666292E+02  0.80270423757E+02  0.30865285728E+03  0.37131747683E+03  0.18322300364E+03 0.  0.
        -24    2    5    5    0    0 -0.80628166619E+02  0.25972286503E+01  0.12187070834E+03  0.16680957705E+03  0.80407204871E+02 0.  0.
          5    1    3    3  501    0  0.38310255877E+02 -0.66462063699E+02 -0.74817936028E+02  0.10725994205E+03  0.47000000000E+01 0. -1.
        -11    1    4    4    0    0  0.73574568709E+01 -0.34425739784E+02 -0.36480800053E+03  0.36650257978E+03  0.00000000000E+00 0.  1.
         12    1    4    4    0    0  0.52839535436E+01  0.20617379726E+02 -0.29399084351E+02  0.36294664519E+02  0.00000000000E+00 0. -1.
         -5    1    5    5    0  502  0.29676500327E+02  0.77673195107E+02  0.18678214894E+03  0.20450789978E+03  0.47000000000E+01 0.  1.
         11    1    6    6    0    0 -0.54376130766E+02  0.37976738425E+02  0.52307655984E+02  0.84469444967E+02  0.00000000000E+00 0. -1.
        -12    1    6    6    0    0 -0.26252035852E+02 -0.35379509775E+02  0.69563052354E+02  0.82340132081E+02  0.00000000000E+00 0.  1.
<mgrwt>
<rscale>  2 0.20490855E+03</rscale>
<asrwt>0</asrwt>
<pdfrwt beam="1">  1       21 0.55461731E-01 0.20642210E+03</pdfrwt>
<pdfrwt beam="2">  1       21 0.80134371E-01 0.20642210E+03</pdfrwt>
<totfact> 0.41528239E+03</totfact>
</mgrwt>
</event>
<event>
12    1  0.1013215E-001  0.1976838E+03  0.7546771E-02  0.1151781E+00
         21   -1    0    0  501  502  0.00000000000E+00  0.00000000000E+00  0.81158945020E+02  0.81158945020E+02  0.00000000000E+00 0. -1.
         21   -1    0    0  502  503 -0.00000000000E+00 -0.00000000000E+00 -0.57412745352E+03  0.57412745352E+03  0.00000000000E+00 0. -1.
         -6    2    1    2    0  503 -0.57290819644E+02  0.78190542957E+02 -0.37884167085E+03  0.42731709855E+03  0.17228723724E+03 0.  0.
        -24    2    3    3    0    0  0.34317955829E+02  0.35848398138E+02 -0.19342844137E+03  0.21616506650E+03  0.82764390304E+02 0.  0.
          6    2    1    2  501    0  0.57290819644E+02 -0.78190542957E+02 -0.11412683765E+03  0.22796929999E+03  0.17189842246E+03 0.  0.
         24    2    5    5    0    0  0.24018365620E+02 -0.11603764273E+03 -0.65369543672E+02  0.15769254086E+03  0.80945313543E+02 0.  0.
          5    1    5    5  501    0  0.33272454024E+02  0.37847099778E+02 -0.48757293976E+02  0.70276759133E+02  0.47000000000E+01 0. -1.
        -13    1    6    6    0    0  0.32166463559E+02 -0.72182976377E+01 -0.61492215371E+01  0.33535028316E+02  0.00000000000E+00 0.  1.
         14    1    6    6    0    0 -0.81480979384E+01 -0.10881934510E+03 -0.59220322135E+02  0.12415751254E+03  0.00000000000E+00 0. -1.
         -5    1    3    3    0  503 -0.91608775473E+02  0.42342144819E+02 -0.18541322949E+03  0.21115203205E+03  0.47000000000E+01 0. -1.
         11    1    4    4    0    0  0.34272964092E+02  0.13233198909E+02 -0.21116193377E+02  0.42375078097E+02  0.00000000000E+00 0. -1.
        -12    1    4    4    0    0  0.44991737697E-01  0.22615199229E+02 -0.17231224799E+03  0.17378998840E+03  0.00000000000E+00 0.  1.
<mgrwt>
<rscale>  2 0.19759907E+03</rscale>
<asrwt>0</asrwt>
<pdfrwt beam="1">  1       21 0.12485991E-01 0.19768382E+03</pdfrwt>
<pdfrwt beam="2">  1       21 0.88327301E-01 0.19768382E+03</pdfrwt>
<totfact> 0.59815386E+04</totfact>
</mgrwt>
</event>
<event>
12    1  0.1013215E-001  0.2113590E+03  0.7546771E-02  0.1140714E+00
         21   -1    0    0  501  502  0.00000000000E+00  0.00000000000E+00  0.20812928578E+03  0.20812928578E+03  0.00000000000E+00 0. -1.
         21   -1    0    0  502  503 -0.00000000000E+00 -0.00000000000E+00 -0.22731170037E+03  0.22731170037E+03  0.00000000000E+00 0. -1.
         -6    2    1    2    0  503 -0.90595816270E+02  0.83106904645E+02  0.44090166001E+02  0.21481448531E+03  0.17054899834E+03 0.  0.
        -24    2    3    3    0    0 -0.12839619893E+03  0.75653716415E+02  0.40580330328E+02  0.17584234282E+03  0.84051755562E+02 0.  0.
          6    2    1    2  501    0  0.90595816270E+02 -0.83106904645E+02 -0.63272580590E+02  0.22062650084E+03  0.17192519853E+03 0.  0.
         24    2    5    5    0    0  0.27658805732E+02  0.89682426506E+01  0.13194289440E+02  0.85318806091E+02  0.79118711366E+02 0.  0.
          5    1    5    5  501    0  0.62937010538E+02 -0.92075147295E+02 -0.76466870030E+02  0.13530769474E+03  0.47000000000E+01 0. -1.
        -13    1    6    6    0    0  0.36257592713E+01  0.34043557922E+02  0.31090727656E+02  0.46246549195E+02  0.00000000000E+00 0.  1.
         14    1    6    6    0    0  0.24033046460E+02 -0.25075315271E+02 -0.17896438216E+02  0.39072256896E+02  0.00000000000E+00 0. -1.
         -5    1    3    3    0  503  0.37800382656E+02  0.74531882295E+01  0.35098356732E+01  0.38972142489E+02  0.47000000000E+01 0.  1.
         13    1    4    4    0    0 -0.67504014878E+02  0.48753063454E+02 -0.20217260424E+02  0.85687751983E+02  0.00000000000E+00 0. -1.
        -14    1    4    4    0    0 -0.60892184048E+02  0.26900652961E+02  0.60797590752E+02  0.90154590838E+02  0.00000000000E+00 0.  1.
<mgrwt>
<rscale>  2 0.21107898E+03</rscale>
<asrwt>0</asrwt>
<pdfrwt beam="1">  1       21 0.32019890E-01 0.21135902E+03</pdfrwt>
<pdfrwt beam="2">  1       21 0.34971031E-01 0.21135902E+03</pdfrwt>
<totfact> 0.73343193E+04</totfact>
</mgrwt>
</event>
<event>
12    1  0.1013215E-001  0.1816299E+03  0.7546771E-02  0.1166464E+00
         21   -1    0    0  501  502  0.00000000000E+00  0.00000000000E+00  0.13887445308E+03  0.13887445308E+03  0.00000000000E+00 0. -1.
         21   -1    0    0  502  503 -0.00000000000E+00 -0.00000000000E+00 -0.24444130110E+03  0.24444130110E+03  0.00000000000E+00 0. -1.
         -6    2    1    2    0  503 -0.41691209642E+02 -0.33806173699E+02 -0.87899540490E+02  0.20178145901E+03  0.17351776174E+03 0.  0.
        -24    2    3    3    0    0  0.16100213322E+02 -0.71457003806E+02 -0.74047272351E+02  0.13127324028E+03  0.79902095142E+02 0.  0.
          6    2    1    2  501    0  0.41691209642E+02  0.33806173699E+02 -0.17667307538E+02  0.18153429517E+03  0.17251536809E+03 0.  0.
         24    2    5    5    0    0  0.72158844905E+02  0.80631215561E+01 -0.59627967759E+02  0.12345014468E+03  0.80078279548E+02 0.  0.
          5    1    5    5  501    0 -0.30467635264E+02  0.25743052142E+02  0.41960660221E+02  0.58084150492E+02  0.47000000000E+01 0. -1.
        -11    1    6    6    0    0  0.36625186160E+02 -0.33203940685E+02 -0.45505795578E+02  0.67191393567E+02  0.00000000000E+00 0.  1.
         12    1    6    6    0    0  0.35533658745E+02  0.41267062241E+02 -0.14122172181E+02  0.56258751114E+02  0.00000000000E+00 0. -1.
         -5    1    3    3    0  503 -0.57791422964E+02  0.37650830108E+02 -0.13852268139E+02  0.70508218731E+02  0.47000000000E+01 0.  1.
         11    1    4    4    0    0  0.34403298915E+01 -0.87331702124E+02 -0.53979353217E+02  0.10272503414E+03  0.00000000000E+00 0. -1.
        -12    1    4    4    0    0  0.12659883431E+02  0.15874698318E+02 -0.20067919134E+02  0.28548206135E+02  0.00000000000E+00 0.  1.
<mgrwt>
<rscale>  2 0.18139010E+03</rscale>
<asrwt>0</asrwt>
<pdfrwt beam="1">  1       21 0.21365301E-01 0.18162992E+03</pdfrwt>
<pdfrwt beam="2">  1       21 0.37606354E-01 0.18162992E+03</pdfrwt>
<totfact> 0.13960100E+05</totfact>
</mgrwt>
</event>
<event>
12    1  0.1013215E-001  0.1902593E+03  0.7546771E-02  0.1158433E+00
         21   -1    0    0  501  502  0.00000000000E+00  0.00000000000E+00  0.77531730275E+03  0.77531730275E+03  0.00000000000E+00 0. -1.
         21   -1    0    0  502  503 -0.00000000000E+00 -0.00000000000E+00 -0.47697523719E+03  0.47697523719E+03  0.00000000000E+00 0. -1.
         -6    2    1    2    0  503 -0.35968157332E+02 -0.68606323969E+02 -0.44566037670E+03  0.48457380924E+03  0.17377591666E+03 0.  0.
        -24    2    3    3    0    0 -0.16535015067E+02 -0.64250494246E+02 -0.15433106536E+03  0.19252676181E+03  0.94058192313E+02 0.  0.
          6    2    1    2  501    0  0.35968157332E+02  0.68606323969E+02  0.74400244225E+03  0.76771873071E+03  0.17277696423E+03 0.  0.
         24    2    5    5    0    0 -0.23721075705E+02  0.42776267371E+02  0.62508612215E+03  0.63209728125E+03  0.80136223910E+02 0.  0.
          5    1    5    5  501    0  0.59689233037E+02  0.25830056599E+02  0.11891632010E+03  0.13562144945E+03  0.47000000000E+01 0. -1.
        -13    1    6    6    0    0  0.39078224705E+01 -0.44752861149E+01  0.15190197894E+01  0.61324288330E+01  0.00000000000E+00 0.  1.
         14    1    6    6    0    0 -0.27628898176E+02  0.47251553485E+02  0.62356710236E+03  0.62596485242E+03  0.00000000000E+00 0. -1.
         -5    1    3    3    0  503 -0.19433142265E+02 -0.43558297231E+01 -0.29132931133E+03  0.29204704743E+03  0.47000000000E+01 0.  1.
         11    1    4    4    0    0 -0.19834023344E+01 -0.76918191984E+02 -0.15518704010E+03  0.17321477869E+03  0.00000000000E+00 0. -1.
        -12    1    4    4    0    0 -0.14551612732E+02  0.12667697738E+02  0.85597473354E+00  0.19311983115E+02  0.00000000000E+00 0.  1.
<mgrwt>
<rscale>  2 0.19003091E+03</rscale>
<asrwt>0</asrwt>
<pdfrwt beam="1">  1       21 0.11927959E+00 0.19025931E+03</pdfrwt>
<pdfrwt beam="2">  1       21 0.73380806E-01 0.19025931E+03</pdfrwt>
<totfact> 0.89700016E+02</totfact>
</mgrwt>
</event>
<event>
12    1  0.1013215E-001  0.1939555E+03  0.7546771E-02  0.1154960E+00
         21   -1    0    0  501  502  0.00000000000E+00  0.00000000000E+00  0.32927481735E+03  0.32927481735E+03  0.00000000000E+00 0.  1.
         21   -1    0    0  502  503 -0.00000000000E+00 -0.00000000000E+00 -0.20586384308E+03  0.20586384308E+03  0.00000000000E+00 0.  1.
         -6    2    1    2    0  503 -0.55419635720E+02  0.67552477958E+02 -0.11684797332E+03  0.22636188777E+03  0.17306525377E+03 0.  0.
        -24    2    3    3    0    0 -0.39819954361E+02 -0.25625546971E+02 -0.26547903193E+02  0.95588469009E+02  0.78676977705E+02 0.  0.
          6    2    1    2  501    0  0.55419635720E+02 -0.67552477958E+02  0.24025894760E+03  0.30877677265E+03  0.17315906020E+03 0.  0.
         24    2    5    5    0    0  0.11374380734E+01 -0.63163462987E+02  0.23156128909E+03  0.25342733998E+03  0.81325698408E+02 0.  0.
          5    1    5    5  501    0  0.54282197647E+02 -0.43890149710E+01  0.86976585031E+01  0.55349432673E+02  0.47000000000E+01 0. -1.
        -13    1    6    6    0    0 -0.39689237052E+02 -0.24141842739E+02  0.10063454814E+03  0.11083941712E+03  0.00000000000E+00 0.  1.
         14    1    6    6    0    0  0.40826675126E+02 -0.39021620248E+02  0.13092674095E+03  0.14258792286E+03  0.00000000000E+00 0. -1.
         -5    1    3    3    0  503 -0.15599681359E+02  0.93178024929E+02 -0.90300070132E+02  0.13077341876E+03  0.47000000000E+01 0.  1.
         13    1    4    4    0    0 -0.51181011900E+02 -0.20781290232E+01  0.84371978460E+01  0.51913398144E+02  0.00000000000E+00 0. -1.
        -14    1    4    4    0    0  0.11361057539E+02 -0.23547417948E+02 -0.34985101039E+02  0.43675070865E+02  0.00000000000E+00 0.  1.
<mgrwt>
<rscale>  2 0.19393455E+03</rscale>
<asrwt>0</asrwt>
<pdfrwt beam="1">  1       21 0.50657664E-01 0.19395549E+03</pdfrwt>
<pdfrwt beam="2">  1       21 0.31671361E-01 0.19395549E+03</pdfrwt>
<totfact> 0.35516002E+04</totfact>
</mgrwt>
</event>
<event>
12    1  0.1013215E-001  0.2099137E+03  0.7546771E-02  0.1143778E+00
         21   -1    0    0  503  502  0.00000000000E+00  0.00000000000E+00  0.53887718234E+03  0.53887718234E+03  0.00000000000E+00 0.  1.
         21   -1    0    0  501  503 -0.00000000000E+00 -0.00000000000E+00 -0.77746983865E+02  0.77746983865E+02  0.00000000000E+00 0.  1.
          6    2    1    2  501    0 -0.58264767434E+02 -0.10588933203E+03  0.24233043208E+03  0.32060537230E+03  0.17162876411E+03 0.  0.
         24    2    3    3    0    0  0.11386369712E+02 -0.63370843410E+02  0.55607830820E+02  0.11677573117E+03  0.79992670485E+02 0.  0.
         -6    2    1    2    0  502  0.58264767434E+02  0.10588933203E+03  0.21879976639E+03  0.29601879390E+03  0.15857633748E+03 0.  0.
        -24    2    5    5    0    0  0.32597029700E+02  0.12413041682E+03  0.21644639924E+03  0.26409390907E+03  0.80159979668E+02 0.  0.
          5    1    3    3  501    0 -0.69651137146E+02 -0.42518488624E+02  0.18672260126E+03  0.20382964113E+03  0.47000000000E+01 0. -1.
        -13    1    4    4    0    0 -0.26621063713E+02 -0.52599950535E+02  0.16570133716E+02  0.61237285707E+02  0.00000000000E+00 0.  1.
         14    1    4    4    0    0  0.38007433424E+02 -0.10770892876E+02  0.39037697104E+02  0.55538445459E+02  0.00000000000E+00 0. -1.
         -5    1    5    5    0  502  0.25667737734E+02 -0.18241084785E+02  0.23533671482E+01  0.31924884831E+02  0.47000000000E+01 0.  1.
         11    1    6    6    0    0 -0.19999015449E+02  0.60362783671E+01  0.42624645251E+02  0.47468491215E+02  0.00000000000E+00 0. -1.
        -12    1    6    6    0    0  0.52596045149E+02  0.11809413845E+03  0.17382175399E+03  0.21662541786E+03  0.00000000000E+00 0.  1.
<mgrwt>
<rscale>  2 0.20723014E+03</rscale>
<asrwt>0</asrwt>
<pdfrwt beam="1">  1       21 0.82904180E-01 0.20991371E+03</pdfrwt>
<pdfrwt beam="2">  1       21 0.11961075E-01 0.20991371E+03</pdfrwt>
<totfact> 0.74291852E+04</totfact>
</mgrwt>
</event>
<event>
12    1  0.1013215E-001  0.1754860E+03  0.7546771E-02  0.1172663E+00
         21   -1    0    0  503  502  0.00000000000E+00  0.00000000000E+00  0.32775620825E+03  0.32775620825E+03  0.00000000000E+00 0.  1.
         21   -1    0    0  501  503 -0.00000000000E+00 -0.00000000000E+00 -0.28172309508E+03  0.28172309508E+03  0.00000000000E+00 0.  1.
          6    2    1    2  501    0 -0.13299748933E+02 -0.21528250541E+02 -0.22639250518E+03  0.28542519721E+03  0.17196984592E+03 0.  0.
         24    2    3    3    0    0 -0.19909023026E+02  0.51609897331E+02 -0.98160386521E+02  0.13757920492E+03  0.78946978697E+02 0.  0.
         -6    2    1    2    0  502  0.13299748933E+02  0.21528250541E+02  0.27242561835E+03  0.32405410613E+03  0.17365194290E+03 0.  0.
        -24    2    5    5    0    0 -0.30261435341E+02 -0.41019134546E+02  0.18417766373E+03  0.20735130560E+03  0.80466317481E+02 0.  0.
          5    1    3    3  501    0  0.66092740927E+01 -0.73138147872E+02 -0.12823211866E+03  0.14784599228E+03  0.47000000000E+01 0. -1.
        -11    1    4    4    0    0 -0.13734243759E+02 -0.19961264021E+02 -0.29878860926E+02  0.38468530556E+02  0.00000000000E+00 0.  1.
         12    1    4    4    0    0 -0.61747792671E+01  0.71571161352E+02 -0.68281525595E+02  0.99110674369E+02  0.00000000000E+00 0. -1.
         -5    1    5    5    0  502  0.43561184274E+02  0.62547385087E+02  0.88247954619E+02  0.11670280053E+03  0.47000000000E+01 0.  1.
         11    1    6    6    0    0  0.26843599964E+02 -0.48054336631E+01  0.61421049559E+02  0.67202800393E+02  0.00000000000E+00 0. -1.
        -12    1    6    6    0    0 -0.57105035305E+02 -0.36213700883E+02  0.12275661417E+03  0.14014850521E+03  0.00000000000E+00 0.  1.
<mgrwt>
<rscale>  2 0.17506845E+03</rscale>
<asrwt>0</asrwt>
<pdfrwt beam="1">  1       21 0.50424032E-01 0.17548603E+03</pdfrwt>
<pdfrwt beam="2">  1       21 0.43342015E-01 0.17548603E+03</pdfrwt>
<totfact> 0.19359470E+04</totfact>
</mgrwt>
</event>
<event>
12    1  0.1013215E-001  0.1880422E+03  0.7546771E-02  0.1160739E+00
         21   -1    0    0  503  502  0.00000000000E+00  0.00000000000E+00  0.81987934371E+02  0.81987934371E+02  0.00000000000E+00 0.  1.
         21   -1    0    0  501  503 -0.00000000000E+00 -0.00000000000E+00 -0.44620578006E+03  0.44620578006E+03  0.00000000000E+00 0. -1.
          6    2    1    2  501    0 -0.61347901121E+02  0.37661705031E+02 -0.12533563451E+03  0.22417960522E+03  0.17136366337E+03 0.  0.
         24    2    3    3    0    0 -0.62460702099E+02  0.33206564806E+02 -0.54339585056E+01  0.10409801418E+03  0.76176462230E+02 0.  0.
         -6    2    1    2    0  502  0.61347901121E+02 -0.37661705031E+02 -0.23888221118E+03  0.30401410920E+03  0.17371787121E+03 0.  0.
        -24    2    5    5    0    0  0.79824250215E+02  0.25219339501E+02 -0.19009029520E+03  0.22217192997E+03  0.78855057728E+02 0.  0.
          5    1    3    3  501    0  0.11128009782E+01  0.44551402244E+01 -0.11990167600E+03  0.12008159105E+03  0.47000000000E+01 0. -1.
        -11    1    4    4    0    0 -0.58441901107E+02  0.53998222889E+02 -0.14814966969E+02  0.80936685912E+02  0.00000000000E+00 0.  1.
         12    1    4    4    0    0 -0.40188009929E+01 -0.20791658083E+02  0.93810084635E+01  0.23161328266E+02  0.00000000000E+00 0. -1.
         -5    1    5    5    0  502 -0.18476349093E+02 -0.62881044532E+02 -0.48791915984E+02  0.81842179239E+02  0.47000000000E+01 0.  1.
         11    1    6    6    0    0  0.14835723830E+02 -0.24968374205E+02 -0.77940183734E+02  0.83175661419E+02  0.00000000000E+00 0. -1.
        -12    1    6    6    0    0  0.64988526385E+02  0.50187713706E+02 -0.11215011146E+03  0.13899626855E+03  0.00000000000E+00 0.  1.
<mgrwt>
<rscale>  2 0.18749666E+03</rscale>
<asrwt>0</asrwt>
<pdfrwt beam="1">  1       21 0.12613528E-01 0.18804220E+03</pdfrwt>
<pdfrwt beam="2">  1       21 0.68647044E-01 0.18804220E+03</pdfrwt>
<totfact> 0.10398456E+05</totfact>
</mgrwt>
</event>
<event>
12    1  0.1013215E-001  0.1765081E+03  0.7546771E-02  0.1171887E+00
         21   -1    0    0  503  502  0.00000000000E+00  0.00000000000E+00  0.48195519819E+03  0.48195519819E+03  0.00000000000E+00 0.  1.
         21   -1    0    0  501  503 -0.00000000000E+00 -0.00000000000E+00 -0.79583346988E+02  0.79583346988E+02  0.00000000000E+00 0.  1.
          6    2    1    2  501    0 -0.32679265646E+02  0.64515941799E-01  0.76889663311E+02  0.19252826153E+03  0.17345654383E+03 0.  0.
         24    2    3    3    0    0  0.37010771864E+02 -0.25486623720E+02  0.81954168693E+01  0.91283253947E+02  0.79032286889E+02 0.  0.
         -6    2    1    2    0  502  0.32679265646E+02 -0.64515941799E-01  0.32548218789E+03  0.36901028365E+03  0.17076883861E+03 0.  0.
        -24    2    5    5    0    0  0.32849253982E+02 -0.52969276482E+02  0.11951977903E+03  0.15630968082E+03  0.79138618878E+02 0.  0.
          5    1    3    3  501    0 -0.69690037510E+02  0.25551139662E+02  0.68694246442E+02  0.10124500758E+03  0.47000000000E+01 0. -1.
        -13    1    4    4    0    0  0.15832409622E+02  0.28560474117E+02  0.59399390951E+01  0.33191094478E+02  0.00000000000E+00 0.  1.
         14    1    4    4    0    0  0.21178362242E+02 -0.54047097837E+02  0.22554777742E+01  0.58092159469E+02  0.00000000000E+00 0. -1.
         -5    1    5    5    0  502 -0.16998833506E+00  0.52904760540E+02  0.20596240886E+03  0.21270060283E+03  0.47000000000E+01 0.  1.
         11    1    6    6    0    0  0.26016326357E+02 -0.64345222300E+02  0.12416766659E+03  0.14224895886E+03  0.00000000000E+00 0. -1.
        -12    1    6    6    0    0  0.68329276246E+01  0.11375945817E+02 -0.46478875573E+01  0.14060721955E+02  0.00000000000E+00 0.  1.
<mgrwt>
<rscale>  2 0.17584424E+03</rscale>
<asrwt>0</asrwt>
<pdfrwt beam="1">  1       21 0.74146952E-01 0.17650811E+03</pdfrwt>
<pdfrwt beam="2">  1       21 0.12243592E-01 0.17650811E+03</pdfrwt>
<totfact> 0.92930415E+04</totfact>
</mgrwt>
</event>
<event>
12    1  0.1013215E-001  0.2545302E+03  0.7546771E-02  0.1110544E+00
         21   -1    0    0  501  502  0.00000000000E+00  0.00000000000E+00  0.26754763530E+03  0.26754763530E+03  0.00000000000E+00 0.  1.
         21   -1    0    0  502  503 -0.00000000000E+00 -0.00000000000E+00 -0.28967625313E+03  0.28967625313E+03  0.00000000000E+00 0.  1.
         -6    2    1    2    0  503  0.17400831091E+03 -0.72315190719E+02 -0.12443507291E+03  0.28331910562E+03  0.17110595888E+03 0.  0.
        -24    2    3    3    0    0  0.40572785323E+02  0.71192442028E+01 -0.10958055797E+02  0.90928897050E+02  0.80319056176E+02 0.  0.
          6    2    1    2  501    0 -0.17400831091E+03  0.72315190719E+02  0.10230645508E+03  0.27390478281E+03  0.17043720315E+03 0.  0.
         24    2    5    5    0    0 -0.96440820442E+02  0.51046462908E+02  0.13899839508E+03  0.18537533674E+03  0.56007931698E+02 0.  0.
          5    1    5    5  501    0 -0.77567490471E+02  0.21268727811E+02 -0.36691939997E+02  0.88529446070E+02  0.47000000000E+01 0. -1.
        -13    1    6    6    0    0 -0.83644369421E+02  0.30804844422E+02  0.73155562540E+02  0.11531285837E+03  0.00000000000E+00 0.  1.
         14    1    6    6    0    0 -0.12796451020E+02  0.20241618486E+02  0.65842832541E+02  0.70062478365E+02  0.00000000000E+00 0. -1.
         -5    1    3    3    0  503  0.13343552559E+03 -0.79434434921E+02 -0.11347701712E+03  0.19239020857E+03  0.47000000000E+01 0.  1.
         13    1    4    4    0    0  0.17243166150E+02  0.43288510481E+02 -0.11048303816E+02  0.47888275557E+02  0.00000000000E+00 0. -1.
        -14    1    4    4    0    0  0.23329619173E+02 -0.36169266278E+02  0.90248019222E-01  0.43040621494E+02  0.00000000000E+00 0.  1.
<mgrwt>
<rscale>  2 0.25441787E+03</rscale>
<asrwt>0</asrwt>
<pdfrwt beam="1">  1       21 0.41161175E-01 0.25453021E+03</pdfrwt>
<pdfrwt beam="2">  1       21 0.44565577E-01 0.25453021E+03</pdfrwt>
<totfact> 0.26628083E+04</totfact>
</mgrwt>
</event>
<event>
12    1  0.1013215E-001  0.1880934E+03  0.7546771E-02  0.1160214E+00
         21   -1    0    0  501  502  0.00000000000E+00  0.00000000000E+00  0.43705651654E+03  0.43705651654E+03  0.00000000000E+00 0. -1.
         21   -1    0    0  502  503 -0.00000000000E+00 -0.00000000000E+00 -0.13654758861E+03  0.13654758861E+03  0.00000000000E+00 0.  1.
         -6    2    1    2    0  503  0.59910081544E+02 -0.39292310820E+02 -0.32800127642E+02  0.19093184116E+03  0.17391381783E+03 0.  0.
        -24    2    3    3    0    0  0.11111230913E+02  0.47716516677E+02 -0.52245890530E+01  0.87325064283E+02  0.72097469478E+02 0.  0.
          6    2    1    2  501    0 -0.59910081544E+02  0.39292310820E+02  0.33330905557E+03  0.38267226400E+03  0.17381033212E+03 0.  0.
         24    2    5    5    0    0 -0.74674097562E+02  0.72468648203E+02  0.16858196392E+03  0.21392467068E+03  0.80721498652E+02 0.  0.
          5    1    5    5  501    0  0.14764016019E+02 -0.33176337383E+02  0.16472709165E+03  0.16874759333E+03  0.47000000000E+01 0. -1.
        -13    1    6    6    0    0  0.38366326291E+01  0.45488676530E+02  0.39054115068E+02  0.60076312687E+02  0.00000000000E+00 0.  1.
         14    1    6    6    0    0 -0.78510730192E+02  0.26979971673E+02  0.12952784886E+03  0.15384835799E+03  0.00000000000E+00 0. -1.
         -5    1    3    3    0  503  0.48798850631E+02 -0.87008827497E+02 -0.27575538589E+02  0.10360677687E+03  0.47000000000E+01 0.  1.
         11    1    4    4    0    0  0.14259304676E+02 -0.36180410015E+01  0.24015523635E+02  0.28163156179E+02  0.00000000000E+00 0. -1.
        -12    1    4    4    0    0 -0.31480737625E+01  0.51334557679E+02 -0.29240112688E+02  0.59161908104E+02  0.00000000000E+00 0.  1.
<mgrwt>
<rscale>  2 0.18806946E+03</rscale>
<asrwt>0</asrwt>
<pdfrwt beam="1">  1       21 0.67239463E-01 0.18809338E+03</pdfrwt>
<pdfrwt beam="2">  1       21 0.21007322E-01 0.18809338E+03</pdfrwt>
<totfact> 0.42713707E+04</totfact>
</mgrwt>
</event>
<event>
12    1  0.1013215E-001  0.1794835E+03  0.7546771E-02  0.1168657E+00
         21   -1    0    0  503  502  0.00000000000E+00  0.00000000000E+00  0.19724859344E+04  0.19724859344E+04  0.00000000000E+00 0. -1.
         21   -1    0    0  501  503 -0.00000000000E+00 -0.00000000000E+00 -0.20772223054E+02  0.20772223054E+02  0.00000000000E+00 0. -1.
          6    2    1    2  501    0  0.22155229395E+02  0.27063493745E+02  0.51137794799E+03  0.54196100515E+03  0.17604271790E+03 0.  0.
         24    2    3    3    0    0 -0.80299199001E+01 -0.47897474688E+02  0.33571019889E+03  0.34854038034E+03  0.80127469665E+02 0.  0.
         -6    2    1    2    0  502 -0.22155229395E+02 -0.27063493745E+02  0.14403357633E+04  0.14512971523E+04  0.17456524913E+03 0.  0.
        -24    2    5    5    0    0  0.41165863056E+02  0.27710585667E+02  0.83263489945E+03  0.83783795194E+03  0.78924350395E+02 0.  0.
          5    1    3    3  501    0  0.30185149295E+02  0.74960968433E+02  0.17566774910E+03  0.19342062481E+03  0.47000000000E+01 0. -1.
        -11    1    4    4    0    0 -0.41232555234E+02 -0.84014137832E+01  0.14732876856E+03  0.15322034268E+03  0.00000000000E+00 0.  1.
         12    1    4    4    0    0  0.33202635334E+02 -0.39496060905E+02  0.18838143033E+03  0.19532003766E+03  0.00000000000E+00 0. -1.
         -5    1    5    5    0  502 -0.63321092451E+02 -0.54774079412E+02  0.60770086388E+03  0.61345920035E+03  0.47000000000E+01 0.  1.
         13    1    6    6    0    0  0.13031324574E+01  0.18330502625E+02  0.66569457628E+03  0.66594817694E+03  0.00000000000E+00 0. -1.
        -14    1    6    6    0    0  0.39862730599E+02  0.93800830422E+01  0.16694032317E+03  0.17188977500E+03  0.00000000000E+00 0.  1.
<mgrwt>
<rscale>  2 0.17912017E+03</rscale>
<asrwt>0</asrwt>
<pdfrwt beam="1">  1       21 0.30345923E+00 0.17948350E+03</pdfrwt>
<pdfrwt beam="2">  1       21 0.31957282E-02 0.17948350E+03</pdfrwt>
<totfact> 0.18837307E+04</totfact>
</mgrwt>
</event>
<event>
12    1  0.1013215E-001  0.2174703E+03  0.7546771E-02  0.1135923E+00
         21   -1    0    0  501  502  0.00000000000E+00  0.00000000000E+00  0.78238658890E+03  0.78238658890E+03  0.00000000000E+00 0. -1.
         21   -1    0    0  502  503 -0.00000000000E+00 -0.00000000000E+00 -0.80984086262E+02  0.80984086262E+02  0.00000000000E+00 0. -1.
         -6    2    1    2    0  503  0.12932224602E+03  0.23156198296E+02  0.13267779915E+03  0.25474837564E+03  0.17329998173E+03 0.  0.
        -24    2    3    3    0    0  0.52397085722E+02 -0.52708942183E+01 -0.11254679119E+01  0.97742056810E+02  0.82334719733E+02 0.  0.
          6    2    1    2  501    0 -0.12932224602E+03 -0.23156198296E+02  0.56872470348E+03  0.60862229952E+03  0.17237419262E+03 0.  0.
         24    2    5    5    0    0 -0.15230824256E+03 -0.46508623290E+01  0.37955355166E+03  0.41710567314E+03  0.81834055984E+02 0.  0.
          5    1    5    5  501    0  0.22985996532E+02 -0.18505335967E+02  0.18917115182E+03  0.19151662637E+03  0.47000000000E+01 0. -1.
        -13    1    6    6    0    0 -0.54614831110E+02 -0.25989230608E+02  0.73816014628E+02  0.95430728282E+02  0.00000000000E+00 0.  1.
         14    1    6    6    0    0 -0.97693411446E+02  0.21338368279E+02  0.30573753703E+03  0.32167494486E+03  0.00000000000E+00 0. -1.
         -5    1    3    3    0  503  0.76925160303E+02  0.28427092514E+02  0.13380326707E+03  0.15700631883E+03  0.47000000000E+01 0.  1.
         11    1    4    4    0    0  0.59068872580E+02  0.18788624000E+02  0.19899809105E+02  0.65101048394E+02  0.00000000000E+00 0. -1.
        -12    1    4    4    0    0 -0.66717868575E+01 -0.24059518218E+02 -0.21025277017E+02  0.32641008416E+02  0.00000000000E+00 0.  1.
<mgrwt>
<rscale>  2 0.21728582E+03</rscale>
<asrwt>0</asrwt>
<pdfrwt beam="1">  1       21 0.12036716E+00 0.21747031E+03</pdfrwt>
<pdfrwt beam="2">  1       21 0.12459091E-01 0.21747031E+03</pdfrwt>
<totfact> 0.28342552E+04</totfact>
</mgrwt>
</event>
<event>
12    1  0.1013215E-001  0.1955209E+03  0.7546771E-02  0.1154112E+00
         21   -1    0    0  501  502  0.00000000000E+00  0.00000000000E+00  0.19445904184E+03  0.19445904184E+03  0.00000000000E+00 0. -1.
         21   -1    0    0  502  503 -0.00000000000E+00 -0.00000000000E+00 -0.27137500349E+03  0.27137500349E+03  0.00000000000E+00 0. -1.
         -6    2    1    2    0  503  0.82836807722E+02  0.37630400807E+02 -0.16290318812E+03  0.25449141303E+03  0.17306197394E+03 0.  0.
        -24    2    3    3    0    0  0.42613274856E+02  0.56480489176E+02 -0.79392242446E+01  0.93217799163E+02  0.60171338257E+02 0.  0.
          6    2    1    2  501    0 -0.82836807722E+02 -0.37630400807E+02  0.85987226470E+02  0.21134263231E+03  0.17027601515E+03 0.  0.
         24    2    5    5    0    0  0.17620366099E+01 -0.47165296857E+02 -0.10573140552E+02  0.82525423889E+02  0.66865419212E+02 0.  0.
          5    1    5    5  501    0 -0.84598844332E+02  0.95348960499E+01  0.96560367021E+02  0.12881720842E+03  0.47000000000E+01 0. -1.
        -11    1    6    6    0    0  0.18138797081E+02  0.95116363585E+01 -0.11566129730E+02  0.23521533596E+02  0.00000000000E+00 0.  1.
         12    1    6    6    0    0 -0.16376760471E+02 -0.56676933216E+02  0.99298917853E+00  0.59003890293E+02  0.00000000000E+00 0. -1.
         -5    1    3    3    0  503  0.40223532867E+02 -0.18850088369E+02 -0.15496396388E+03  0.16127361386E+03  0.47000000000E+01 0.  1.
         11    1    4    4    0    0  0.19929616066E+02  0.53474402632E+02 -0.27284008417E+02  0.63254394699E+02  0.00000000000E+00 0. -1.
        -12    1    4    4    0    0  0.22683658790E+02  0.30060865445E+01  0.19344784173E+02  0.29963404464E+02  0.00000000000E+00 0.  1.
<mgrwt>
<rscale>  2 0.19490260E+03</rscale>
<asrwt>0</asrwt>
<pdfrwt beam="1">  1       21 0.29916776E-01 0.19552092E+03</pdfrwt>
<pdfrwt beam="2">  1       21 0.41750000E-01 0.19552092E+03</pdfrwt>
<totfact> 0.59095354E+04</totfact>
</mgrwt>
</event>
<event>
12    1  0.1013215E-001  0.1908955E+03  0.7546771E-02  0.1158717E+00
         21   -1    0    0  503  502  0.00000000000E+00  0.00000000000E+00  0.35748566851E+04  0.35748566851E+04  0.00000000000E+00 0. -1.
         21   -1    0    0  501  503 -0.00000000000E+00 -0.00000000000E+00 -0.11679401452E+02  0.11679401452E+02  0.00000000000E+00 0. -1.
          6    2    1    2  501    0 -0.13311123600E+02  0.77760391626E+02  0.24536479184E+04  0.24607046119E+04  0.16868673573E+03 0.  0.
         24    2    3    3    0    0 -0.40043341327E+02  0.53645705668E+02  0.86991589939E+03  0.87655647244E+03  0.84357847638E+02 0.  0.
         -6    2    1    2    0  502  0.13311123600E+02 -0.77760391626E+02  0.11095293652E+04  0.11258314747E+04  0.17383104600E+03 0.  0.
        -24    2    5    5    0    0 -0.50507750821E+02 -0.21659412846E+02  0.42883275200E+03  0.43983574742E+03  0.80856616706E+02 0.  0.
          5    1    3    3  501    0  0.26732217727E+02  0.24114685958E+02  0.15837320190E+04  0.15841481394E+04  0.47000000000E+01 0. -1.
        -11    1    4    4    0    0 -0.55620537786E+02  0.40586695077E+02  0.81659030214E+03  0.81948803871E+03  0.00000000000E+00 0.  1.
         12    1    4    4    0    0  0.15577196460E+02  0.13059010591E+02  0.53325597248E+02  0.57068433736E+02  0.00000000000E+00 0. -1.
         -5    1    5    5    0  502  0.63818874421E+02 -0.56100978779E+02  0.68069661322E+03  0.68599572725E+03  0.47000000000E+01 0.  1.
         13    1    6    6    0    0 -0.33545305953E+02 -0.50753614999E+02  0.32601643567E+03  0.33164428732E+03  0.00000000000E+00 0. -1.
        -14    1    6    6    0    0 -0.16962444868E+02  0.29094202153E+02  0.10281631633E+03  0.10819146010E+03  0.00000000000E+00 0.  1.
<mgrwt>
<rscale>  2 0.18971656E+03</rscale>
<asrwt>0</asrwt>
<pdfrwt beam="1">  1       21 0.54997708E+00 0.19089551E+03</pdfrwt>
<pdfrwt beam="2">  1       21 0.17968338E-02 0.19089551E+03</pdfrwt>
<totfact> 0.12067818E+03</totfact>
</mgrwt>
</event>
<event>
12    1  0.1013215E-001  0.1858438E+03  0.7546771E-02  0.1162559E+00
         21   -1    0    0  503  502  0.00000000000E+00  0.00000000000E+00  0.24833969501E+03  0.24833969501E+03  0.00000000000E+00 0.  1.
         21   -1    0    0  501  503 -0.00000000000E+00 -0.00000000000E+00 -0.13885477014E+03  0.13885477014E+03  0.00000000000E+00 0.  1.
          6    2    1    2  501    0 -0.35991799118E+02 -0.56827558556E+02  0.40565777187E+02  0.18898307731E+03  0.17188438038E+03 0.  0.
         24    2    3    3    0    0 -0.86916475859E+01 -0.40516321994E+02  0.91592073466E+02  0.12867447408E+03  0.80317465551E+02 0.  0.
         -6    2    1    2    0  502  0.35991799118E+02  0.56827558556E+02  0.68919147684E+02  0.19821138783E+03  0.17324296330E+03 0.  0.
        -24    2    5    5    0    0  0.72254945223E+02  0.77831222886E+02  0.79340257505E+02  0.15477339512E+03  0.79883984698E+02 0.  0.
          5    1    3    3  501    0 -0.27300151533E+02 -0.16311236563E+02 -0.51026296280E+02  0.60308603233E+02  0.47000000000E+01 0. -1.
        -11    1    4    4    0    0 -0.76975738216E+01  0.24296671010E+02  0.28152366676E+02  0.37975473853E+02  0.00000000000E+00 0.  1.
         12    1    4    4    0    0 -0.99407376425E+00 -0.64812993003E+02  0.63439706791E+02  0.90699000228E+02  0.00000000000E+00 0. -1.
         -5    1    5    5    0  502 -0.36263146104E+02 -0.21003664330E+02 -0.10421109821E+02  0.43437992709E+02  0.47000000000E+01 0.  1.
         11    1    6    6    0    0  0.23492846430E+02  0.63535082657E+02  0.78856420302E+02  0.10395650814E+03  0.00000000000E+00 0. -1.
        -12    1    6    6    0    0  0.48762098792E+02  0.14296140229E+02  0.48383720313E+00  0.50816886982E+02  0.00000000000E+00 0.  1.
<mgrwt>
<rscale>  2 0.18552650E+03</rscale>
<asrwt>0</asrwt>
<pdfrwt beam="1">  1       21 0.38206107E-01 0.18584377E+03</pdfrwt>
<pdfrwt beam="2">  1       21 0.21362272E-01 0.18584377E+03</pdfrwt>
<totfact> 0.13509388E+05</totfact>
</mgrwt>
</event>
<event>
12    1  0.1013215E-001  0.2568870E+03  0.7546771E-02  0.1109567E+00
         21   -1    0    0  501  502  0.00000000000E+00  0.00000000000E+00  0.64652156395E+02  0.64652156395E+02  0.00000000000E+00 0.  1.
         21   -1    0    0  502  503 -0.00000000000E+00 -0.00000000000E+00 -0.10162609962E+04  0.10162609962E+04  0.00000000000E+00 0.  1.
         -6    2    1    2    0  503 -0.14309378254E+03  0.12321206163E+03 -0.53108924014E+03  0.58995484632E+03  0.17416629117E+03 0.  0.
        -24    2    3    3    0    0 -0.13846480393E+03  0.80557528507E+02 -0.26676609322E+03  0.32213092537E+03  0.83319669115E+02 0.  0.
          6    2    1    2  501    0  0.14309378254E+03 -0.12321206163E+03 -0.42051959963E+03  0.49095830624E+03  0.16895645018E+03 0.  0.
         24    2    5    5    0    0  0.12780532548E+03 -0.15234395932E+03 -0.39265030268E+03  0.44758559483E+03  0.81337084656E+02 0.  0.
          5    1    5    5  501    0  0.15288457053E+02  0.29131897693E+02 -0.27869296952E+02  0.43372711408E+02  0.47000000000E+01 0. -1.
        -11    1    6    6    0    0  0.75633512991E+02 -0.61338440795E+02 -0.11448730639E+03  0.15030028586E+03  0.00000000000E+00 0.  1.
         12    1    6    6    0    0  0.52171812492E+02 -0.91005518525E+02 -0.27816299629E+03  0.29728530896E+03  0.00000000000E+00 0. -1.
         -5    1    3    3    0  503 -0.46289786103E+01  0.42654533120E+02 -0.26432314692E+03  0.26782392096E+03  0.47000000000E+01 0.  1.
         13    1    4    4    0    0  0.95320724388E+01  0.30624466587E+01 -0.40548197618E+01  0.10801877051E+02  0.00000000000E+00 0. -1.
        -14    1    4    4    0    0 -0.14799687636E+03  0.77495081848E+02 -0.26271127345E+03  0.31132904831E+03  0.00000000000E+00 0.  1.
<mgrwt>
<rscale>  2 0.25600669E+03</rscale>
<asrwt>0</asrwt>
<pdfrwt beam="1">  1       21 0.99464859E-02 0.25688702E+03</pdfrwt>
<pdfrwt beam="2">  1       21 0.15634784E+00 0.25688702E+03</pdfrwt>
<totfact> 0.21102238E+04</totfact>
</mgrwt>
</event>
<event>
12    1  0.1013215E-001  0.1880312E+03  0.7546771E-02  0.1162232E+00
         21   -1    0    0  501  502  0.00000000000E+00  0.00000000000E+00  0.75186191127E+03  0.75186191127E+03  0.00000000000E+00 0. -1.
         21   -1    0    0  502  503 -0.00000000000E+00 -0.00000000000E+00 -0.15447679505E+03  0.15447679505E+03  0.00000000000E+00 0. -1.
         -6    2    1    2    0  503  0.55398555154E+02 -0.45519798412E+02 -0.80892934713E+02  0.20469343792E+03  0.17382371725E+03 0.  0.
        -24    2    3    3    0    0  0.50530505579E+02 -0.21252469088E+02  0.21655368824E+02  0.99095872902E+02  0.79662021008E+02 0.  0.
          6    2    1    2  501    0 -0.55398555154E+02  0.45519798412E+02  0.67827805094E+03  0.70164526840E+03  0.16463267087E+03 0.  0.
         24    2    5    5    0    0 -0.48635936727E+02  0.67455377198E+02  0.28399150093E+03  0.30666314710E+03  0.80470062360E+02 0.  0.
          5    1    5    5  501    0 -0.67626184263E+01 -0.21935578786E+02  0.39428655001E+03  0.39498212129E+03  0.47000000000E+01 0. -1.
        -13    1    6    6    0    0 -0.19213840067E+02 -0.16613430581E+02  0.45939548232E+02  0.52493997919E+02  0.00000000000E+00 0.  1.
         14    1    6    6    0    0 -0.29422096660E+02  0.84068807779E+02  0.23805195270E+03  0.25416914918E+03  0.00000000000E+00 0. -1.
         -5    1    3    3    0  503  0.48680495752E+01 -0.24267329324E+02 -0.10254830354E+03  0.10559756502E+03  0.47000000000E+01 0.  1.
         11    1    4    4    0    0  0.48706585151E+02  0.19692647278E+02 -0.42946784958E+00  0.52538711790E+02  0.00000000000E+00 0. -1.
        -12    1    4    4    0    0  0.18239204276E+01 -0.40945116366E+02  0.22084836673E+02  0.46557161113E+02  0.00000000000E+00 0.  1.
<mgrwt>
<rscale>  2 0.18587895E+03</rscale>
<asrwt>0</asrwt>
<pdfrwt beam="1">  1       21 0.11567106E+00 0.18803121E+03</pdfrwt>
<pdfrwt beam="2">  1       21 0.23765661E-01 0.18803121E+03</pdfrwt>
<totfact> 0.96732078E+03</totfact>
</mgrwt>
</event>
<event>
12    1  0.1013215E-001  0.1918386E+03  0.7546771E-02  0.1160138E+00
         21   -1    0    0  503  502  0.00000000000E+00  0.00000000000E+00  0.48510905815E+02  0.48510905815E+02  0.00000000000E+00 0. -1.
         21   -1    0    0  501  503 -0.00000000000E+00 -0.00000000000E+00 -0.70887704609E+03  0.70887704609E+03  0.00000000000E+00 0.  1.
          6    2    1    2  501    0 -0.41267648682E+02  0.16701976636E+02 -0.37718248100E+03  0.42316506921E+03  0.18660138524E+03 0.  0.
         24    2    3    3    0    0 -0.76551417602E+02  0.38124427889E+02 -0.14167317854E+03  0.18401953337E+03  0.80487934526E+02 0.  0.
         -6    2    1    2    0  502  0.41267648682E+02 -0.16701976636E+02 -0.28318365927E+03  0.33422288270E+03  0.17184288053E+03 0.  0.
        -24    2    5    5    0    0  0.43583697125E+02 -0.75244482863E+02 -0.17279104093E+03  0.20915806230E+03  0.79555517368E+02 0.  0.
          5    1    3    3  501    0  0.35283768920E+02 -0.21422451253E+02 -0.23550930246E+03  0.23914553584E+03  0.47000000000E+01 0. -1.
        -13    1    4    4    0    0 -0.32047984320E+02 -0.23682553615E+02 -0.62803149873E+02  0.74378574056E+02  0.00000000000E+00 0.  1.
         14    1    4    4    0    0 -0.44503433281E+02  0.61806981505E+02 -0.78870028668E+02  0.10964095931E+03  0.00000000000E+00 0. -1.
         -5    1    5    5    0  502 -0.23160484431E+01  0.58542506227E+02 -0.11039261834E+03  0.12506482040E+03  0.47000000000E+01 0.  1.
         13    1    6    6    0    0  0.45311191423E+02 -0.89540106561E+02 -0.16406062749E+03  0.19231854888E+03  0.00000000000E+00 0. -1.
        -14    1    6    6    0    0 -0.17274942978E+01  0.14295623698E+02 -0.87304134436E+01  0.16839513424E+02  0.00000000000E+00 0.  1.
<mgrwt>
<rscale>  2 0.18815312E+03</rscale>
<asrwt>0</asrwt>
<pdfrwt beam="1">  1       21 0.74632164E-02 0.19183861E+03</pdfrwt>
<pdfrwt beam="2">  1       21 0.10905801E+00 0.19183861E+03</pdfrwt>
<totfact> 0.90318125E+04</totfact>
</mgrwt>
</event>
<event>
12    1  0.1013215E-001  0.1980289E+03  0.7546771E-02  0.1151462E+00
         21   -1    0    0  501  502  0.00000000000E+00  0.00000000000E+00  0.44744911342E+03  0.44744911342E+03  0.00000000000E+00 0. -1.
         21   -1    0    0  502  503 -0.00000000000E+00 -0.00000000000E+00 -0.15978705528E+03  0.15978705528E+03  0.00000000000E+00 0.  1.
         -6    2    1    2    0  503 -0.40308386562E+02 -0.86036131398E+02 -0.60371083073E+02  0.20680827831E+03  0.17348779316E+03 0.  0.
        -24    2    3    3    0    0 -0.25350850659E+02 -0.11595237622E+03 -0.69070097764E+01  0.14356899687E+03  0.80478139255E+02 0.  0.
          6    2    1    2  501    0  0.40308386562E+02  0.86036131398E+02  0.34803314121E+03  0.40042789038E+03  0.17374822612E+03 0.  0.
         24    2    5    5    0    0  0.59384273490E+02  0.94235188798E+02  0.14997897733E+03  0.20123287077E+03  0.74794464322E+02 0.  0.
          5    1    5    5  501    0 -0.19075886928E+02 -0.81990574001E+01  0.19805416389E+03  0.19919501961E+03  0.47000000000E+01 0. -1.
        -13    1    6    6    0    0  0.58885680156E+01  0.36990601247E+02  0.68719371687E+01  0.38081535346E+02  0.00000000000E+00 0.  1.
         14    1    6    6    0    0  0.53495705475E+02  0.57244587551E+02  0.14310704016E+03  0.16315133543E+03  0.00000000000E+00 0. -1.
         -5    1    3    3    0  503 -0.14957535903E+02  0.29916244820E+02 -0.53464073296E+02  0.63239281446E+02  0.47000000000E+01 0.  1.
         11    1    4    4    0    0  0.11091530965E+02 -0.10439283442E+03 -0.17846424954E+01  0.10499557556E+03  0.00000000000E+00 0. -1.
        -12    1    4    4    0    0 -0.36442381624E+02 -0.11559541794E+02 -0.51223672810E+01  0.38573421309E+02  0.00000000000E+00 0.  1.
<mgrwt>
<rscale>  2 0.19797172E+03</rscale>
<asrwt>0</asrwt>
<pdfrwt beam="1">  1       21 0.68838324E-01 0.19802886E+03</pdfrwt>
<pdfrwt beam="2">  1       21 0.24582624E-01 0.19802886E+03</pdfrwt>
<totfact> 0.29979564E+04</totfact>
</mgrwt>
</event>
<event>
12    1  0.1013215E-001  0.1959740E+03  0.7546771E-02  0.1157979E+00
         21   -1    0    0  501  502  0.00000000000E+00  0.00000000000E+00  0.17075154323E+02  0.17075154323E+02  0.00000000000E+00 0. -1.
         21   -1    0    0  502  503 -0.00000000000E+00 -0.00000000000E+00 -0.21968542259E+04  0.21968542259E+04  0.00000000000E+00 0. -1.
         -6    2    1    2    0  503 -0.12512053257E+02  0.25332717827E+02 -0.14631461889E+04  0.14762122422E+04  0.19392657321E+03 0.  0.
        -24    2    3    3    0    0  0.58654850420E+02  0.31270468210E+02 -0.52182808909E+03  0.53217736989E+03  0.80560317805E+02 0.  0.
          6    2    1    2  501    0  0.12512053257E+02 -0.25332717827E+02 -0.71663288262E+03  0.73771713799E+03  0.17281663450E+03 0.  0.
         24    2    5    5    0    0 -0.72919276823E+01 -0.24558295391E+02 -0.16002415197E+03  0.18073583990E+03  0.80008952790E+02 0.  0.
          5    1    5    5  501    0  0.19803980939E+02 -0.77442243604E+00 -0.55660873065E+03  0.55698129809E+03  0.47000000000E+01 0. -1.
        -11    1    6    6    0    0  0.12541685327E+02 -0.43320340625E+02 -0.49823614335E+02  0.67203707696E+02  0.00000000000E+00 0.  1.
         12    1    6    6    0    0 -0.19833613009E+02  0.18762045233E+02 -0.11020053764E+03  0.11353213220E+03  0.00000000000E+00 0. -1.
         -5    1    3    3    0  503 -0.71166903677E+02 -0.59377503830E+01 -0.94131809983E+03  0.94403487231E+03  0.47000000000E+01 0.  1.
         13    1    4    4    0    0  0.26765687839E+02  0.13161517725E+01 -0.42591007452E+03  0.42675230038E+03  0.00000000000E+00 0. -1.
        -14    1    4    4    0    0  0.31889162581E+02  0.29954316438E+02 -0.95918014570E+02  0.10542506952E+03  0.00000000000E+00 0.  1.
<mgrwt>
<rscale>  2 0.19053610E+03</rscale>
<asrwt>0</asrwt>
<pdfrwt beam="1">  1       21 0.26269457E-02 0.19597401E+03</pdfrwt>
<pdfrwt beam="2">  1       21 0.33797772E+00 0.19597401E+03</pdfrwt>
<totfact> 0.16147859E+04</totfact>
</mgrwt>
</event>
<event>
12    1  0.1013215E-001  0.2366242E+03  0.7546771E-02  0.1122319E+00
         21   -1    0    0  503  502  0.00000000000E+00  0.00000000000E+00  0.30935853345E+03  0.30935853345E+03  0.00000000000E+00 0.  1.
         21   -1    0    0  501  503 -0.00000000000E+00 -0.00000000000E+00 -0.21755853962E+03  0.21755853962E+03  0.00000000000E+00 0.  1.
          6    2    1    2  501    0  0.10782904863E+03 -0.11826618621E+03 -0.63918039587E+02  0.24365197556E+03  0.17224045657E+03 0.  0.
         24    2    3    3    0    0  0.18912948050E+02 -0.59814872507E+02 -0.89343061271E+02  0.13414786265E+03  0.77961194700E+02 0.  0.
         -6    2    1    2    0  502 -0.10782904863E+03  0.11826618621E+03  0.15571803342E+03  0.28326509751E+03  0.17429003129E+03 0.  0.
        -24    2    5    5    0    0 -0.10393680757E+03  0.62146231960E+02  0.17105716811E+03  0.22476742355E+03  0.81208532874E+02 0.  0.
          5    1    3    3  501    0  0.88916100585E+02 -0.58451313708E+02  0.25425021684E+02  0.10950411291E+03  0.47000000000E+01 0. -1.
        -11    1    4    4    0    0  0.43259462486E+02 -0.58989610582E+02 -0.52747225500E+02  0.90185503542E+02  0.00000000000E+00 0.  1.
         12    1    4    4    0    0 -0.24346514436E+02 -0.82526192508E+00 -0.36595835771E+02  0.43962359106E+02  0.00000000000E+00 0. -1.
         -5    1    5    5    0  502 -0.38922410653E+01  0.56119954254E+02 -0.15339134697E+02  0.58497673965E+02  0.47000000000E+01 0.  1.
         13    1    6    6    0    0 -0.43370573672E+01 -0.17421825764E+02  0.16137609218E+02  0.24140267415E+02  0.00000000000E+00 0. -1.
        -14    1    6    6    0    0 -0.99599750202E+02  0.79568057725E+02  0.15491955890E+03  0.20062715613E+03  0.00000000000E+00 0.  1.
<mgrwt>
<rscale>  2 0.23624690E+03</rscale>
<asrwt>0</asrwt>
<pdfrwt beam="1">  1       21 0.47593621E-01 0.23662419E+03</pdfrwt>
<pdfrwt beam="2">  1       21 0.33470544E-01 0.23662419E+03</pdfrwt>
<totfact> 0.35510540E+04</totfact>
</mgrwt>
</event>
<event>
12    1  0.1013215E-001  0.3008587E+03  0.7546771E-02  0.1084848E+00
         21   -1    0    0  501  502  0.00000000000E+00  0.00000000000E+00  0.91806614610E+02  0.91806614610E+02  0.00000000000E+00 0.  1.
         21   -1    0    0  502  503 -0.00000000000E+00 -0.00000000000E+00 -0.12199728955E+04  0.12199728955E+04  0.00000000000E+00 0. -1.
         -6    2    1    2    0  503 -0.24532059217E+03  0.20250710854E+02 -0.85171632792E+03  0.90319593312E+03  0.17248161100E+03 0.  0.
        -24    2    3    3    0    0 -0.17952295806E+03  0.66660832983E+02 -0.71399009937E+03  0.74359069473E+03  0.80455578863E+02 0.  0.
          6    2    1    2  501    0  0.24532059217E+03 -0.20250710854E+02 -0.27644995299E+03  0.40858357700E+03  0.17298461970E+03 0.  0.
         24    2    5    5    0    0  0.20181296571E+03 -0.75229010311E+02 -0.19683961582E+03  0.30239778343E+03  0.79439964433E+02 0.  0.
          5    1    5    5  501    0  0.43507626468E+02  0.54978299457E+02 -0.79610337168E+02  0.10618579357E+03  0.47000000000E+01 0. -1.
        -13    1    6    6    0    0  0.58035974494E+02 -0.56947795432E+02 -0.96145602278E+02  0.12591744350E+03  0.00000000000E+00 0.  1.
         14    1    6    6    0    0  0.14377699121E+03 -0.18281214879E+02 -0.10069401354E+03  0.17648033993E+03  0.00000000000E+00 0. -1.
         -5    1    3    3    0  503 -0.65797634115E+02 -0.46410122129E+02 -0.13772622854E+03  0.15960523839E+03  0.47000000000E+01 0.  1.
         13    1    4    4    0    0 -0.26787060604E+01  0.22533725166E+02 -0.12501509531E+03  0.12705793282E+03  0.00000000000E+00 0. -1.
        -14    1    4    4    0    0 -0.17684425200E+03  0.44127107817E+02 -0.58897500406E+03  0.61653276192E+03  0.00000000000E+00 0.  1.
<mgrwt>
<rscale>  2 0.30078645E+03</rscale>
<asrwt>0</asrwt>
<pdfrwt beam="1">  1       21 0.14124095E-01 0.30085871E+03</pdfrwt>
<pdfrwt beam="2">  1       21 0.18768814E+00 0.30085871E+03</pdfrwt>
<totfact> 0.65519089E+03</totfact>
</mgrwt>
</event>
<event>
12    1  0.1013215E-001  0.1947342E+03  0.7546771E-02  0.1155889E+00
         21   -1    0    0  501  502  0.00000000000E+00  0.00000000000E+00  0.51253205710E+03  0.51253205710E+03  0.00000000000E+00 0. -1.
         21   -1    0    0  502  503 -0.00000000000E+00 -0.00000000000E+00 -0.15623329722E+03  0.15623329722E+03  0.00000000000E+00 0. -1.
         -6    2    1    2    0  503  0.13150154090E+02  0.58698487610E+02 -0.66913566661E+02  0.20590981007E+03  0.18521065163E+03 0.  0.
        -24    2    3    3    0    0 -0.13972360066E+02  0.29892777630E+02 -0.11473481042E+03  0.14366544441E+03  0.79917946625E+02 0.  0.
          6    2    1    2  501    0 -0.13150154090E+02 -0.58698487610E+02  0.42321232655E+03  0.46285554425E+03  0.17750533092E+03 0.  0.
         24    2    5    5    0    0  0.39920742913E+02 -0.31776235151E+02  0.37394137709E+03  0.38545370805E+03  0.78351852054E+02 0.  0.
          5    1    5    5  501    0 -0.53070897003E+02 -0.26922252459E+02  0.49270949460E+02  0.77401836198E+02  0.47000000000E+01 0. -1.
        -11    1    6    6    0    0  0.62739789317E+01 -0.30612161762E+02  0.44952288686E+02  0.54746465799E+02  0.00000000000E+00 0.  1.
         12    1    6    6    0    0  0.33646763982E+02 -0.11640733888E+01  0.32898908840E+03  0.33070724226E+03  0.00000000000E+00 0. -1.
         -5    1    3    3    0  503  0.27122514156E+02  0.28805709980E+02  0.47821243764E+02  0.62244365663E+02  0.47000000000E+01 0.  1.
         11    1    4    4    0    0 -0.71448065582E+01  0.32158413441E+02 -0.12603540639E+03  0.13026947256E+03  0.00000000000E+00 0. -1.
        -12    1    4    4    0    0 -0.68275535082E+01 -0.22656358109E+01  0.11300595968E+02  0.13395971848E+02  0.00000000000E+00 0.  1.
<mgrwt>
<rscale>  2 0.19287957E+03</rscale>
<asrwt>0</asrwt>
<pdfrwt beam="1">  1       21 0.78851085E-01 0.19473424E+03</pdfrwt>
<pdfrwt beam="2">  1       21 0.24035892E-01 0.19473424E+03</pdfrwt>
<totfact> 0.23170709E+04</totfact>
</mgrwt>
</event>
<event>
12    1  0.1013215E-001  0.2116743E+03  0.7546771E-02  0.1141059E+00
         21   -1    0    0  501  502  0.00000000000E+00  0.00000000000E+00  0.72355607276E+02  0.72355607276E+02  0.00000000000E+00 0.  1.
         21   -1    0    0  502  503 -0.00000000000E+00 -0.00000000000E+00 -0.62139248393E+03  0.62139248393E+03  0.00000000000E+00 0.  1.
         -6    2    1    2    0  503  0.74022948222E+02  0.90250311573E+02 -0.32935215485E+03  0.39150841086E+03  0.17658278021E+03 0.  0.
        -24    2    3    3    0    0 -0.22297312947E+01 -0.15038730588E+02 -0.17424565250E+03  0.18907232069E+03  0.71802924139E+02 0.  0.
          6    2    1    2  501    0 -0.74022948222E+02 -0.90250311573E+02 -0.21968472181E+03  0.30223968035E+03  0.17164769670E+03 0.  0.
         24    2    5    5    0    0 -0.28742186043E+02 -0.70241207824E+02 -0.22631287743E+03  0.25207261841E+03  0.81013245386E+02 0.  0.
          5    1    5    5  501    0 -0.45280762179E+02 -0.20009103750E+02  0.66281556247E+01  0.50167061937E+02  0.47000000000E+01 0. -1.
        -11    1    6    6    0    0  0.15928252417E+02 -0.47498043453E+01 -0.55757053101E+01  0.17531638716E+02  0.00000000000E+00 0.  1.
         12    1    6    6    0    0 -0.44670438459E+02 -0.65491403478E+02 -0.22073717212E+03  0.23454097970E+03  0.00000000000E+00 0. -1.
         -5    1    3    3    0  503  0.76252679517E+02  0.10528904216E+03 -0.15510650235E+03  0.20243609017E+03  0.47000000000E+01 0.  1.
         11    1    4    4    0    0  0.26769364900E+02 -0.19581022430E+02 -0.41524755585E+02  0.53144338013E+02  0.00000000000E+00 0. -1.
        -12    1    4    4    0    0 -0.28999096195E+02  0.45422918413E+01 -0.13272089692E+03  0.13592798267E+03  0.00000000000E+00 0.  1.
<mgrwt>
<rscale>  2 0.21064196E+03</rscale>
<asrwt>0</asrwt>
<pdfrwt beam="1">  1       21 0.11131632E-01 0.21167426E+03</pdfrwt>
<pdfrwt beam="2">  1       21 0.95598839E-01 0.21167426E+03</pdfrwt>
<totfact> 0.60689999E+04</totfact>
</mgrwt>
</event>
<event>
12    1  0.1013215E-001  0.2440803E+03  0.7546771E-02  0.1117194E+00
         21   -1    0    0  503  502  0.00000000000E+00  0.00000000000E+00  0.11326027306E+03  0.11326027306E+03  0.00000000000E+00 0. -1.
         21   -1    0    0  501  503 -0.00000000000E+00 -0.00000000000E+00 -0.70157073050E+03  0.70157073050E+03  0.00000000000E+00 0.  1.
          6    2    1    2  501    0  0.87953880576E-01  0.17053871630E+03 -0.49889968355E+03  0.55540622757E+03  0.17461879019E+03 0.  0.
         24    2    3    3    0    0 -0.14757110352E+02  0.27117110334E+02 -0.27882212518E+03  0.29225920652E+03  0.81978999314E+02 0.  0.
         -6    2    1    2    0  502 -0.87953880576E-01 -0.17053871630E+03 -0.89410773900E+02  0.25942477599E+03  0.17384897588E+03 0.  0.
        -24    2    5    5    0    0 -0.97245810190E+01 -0.10948597928E+03 -0.12756940581E+03  0.18663416898E+03  0.80477404267E+02 0.  0.
          5    1    3    3  501    0  0.14845064233E+02  0.14342160597E+03 -0.22007755837E+03  0.26314702105E+03  0.47000000000E+01 0. -1.
        -13    1    4    4    0    0 -0.44606867389E+01 -0.26528014121E+02 -0.47628632404E+02  0.54700273162E+02  0.00000000000E+00 0.  1.
         14    1    4    4    0    0 -0.10296423613E+02  0.53645124455E+02 -0.23119349278E+03  0.23755893336E+03  0.00000000000E+00 0. -1.
         -5    1    5    5    0  502  0.96366271384E+01 -0.61052737018E+02  0.38158631906E+02  0.72790607011E+02  0.47000000000E+01 0.  1.
         13    1    6    6    0    0  0.11242639570E+02 -0.28592226509E+02  0.37799013018E+01  0.30954806009E+02  0.00000000000E+00 0. -1.
        -14    1    6    6    0    0 -0.20967220589E+02 -0.80893752776E+02 -0.13134930711E+03  0.15567936297E+03  0.00000000000E+00 0.  1.
<mgrwt>
<rscale>  2 0.24394263E+03</rscale>
<asrwt>0</asrwt>
<pdfrwt beam="1">  1       21 0.17424657E-01 0.24408028E+03</pdfrwt>
<pdfrwt beam="2">  1       21 0.10793396E+00 0.24408028E+03</pdfrwt>
<totfact> 0.19785307E+04</totfact>
</mgrwt>
</event>
<event>
12    1  0.1013215E-001  0.1786962E+03  0.7546771E-02  0.1170106E+00
         21   -1    0    0  503  502  0.00000000000E+00  0.00000000000E+00  0.64369675958E+03  0.64369675958E+03  0.00000000000E+00 0.  1.
         21   -1    0    0  501  503 -0.00000000000E+00 -0.00000000000E+00 -0.53960407041E+02  0.53960407041E+02  0.00000000000E+00 0.  1.
          6    2    1    2  501    0  0.39876136664E+02 -0.18846306593E+02  0.18029183227E+03  0.25091657422E+03  0.16884517430E+03 0.  0.
         24    2    3    3    0    0  0.84635348408E+02 -0.21763706250E+02  0.16716857639E+03  0.20394628465E+03  0.77536784697E+02 0.  0.
         -6    2    1    2    0  502 -0.39876136664E+02  0.18846306593E+02  0.40944452026E+03  0.44674059240E+03  0.17316769958E+03 0.  0.
        -24    2    5    5    0    0 -0.30652680708E+02  0.75237053609E+02  0.20642860670E+03  0.23578434185E+03  0.79882946400E+02 0.  0.
          5    1    3    3  501    0 -0.44759211744E+02  0.29173996566E+01  0.13123255883E+02  0.46970289563E+02  0.47000000000E+01 0. -1.
        -13    1    4    4    0    0  0.45441179110E+02 -0.50694495172E+02  0.99826397005E+02  0.12083104791E+03  0.00000000000E+00 0.  1.
         14    1    4    4    0    0  0.39194169299E+02  0.28930788922E+02  0.67342179386E+02  0.83115236744E+02  0.00000000000E+00 0. -1.
         -5    1    5    5    0  502 -0.92234559564E+01 -0.56390747016E+02  0.20301591356E+03  0.21095625055E+03  0.47000000000E+01 0.  1.
         13    1    6    6    0    0  0.24350607920E+02  0.11245519975E+02  0.74470991161E+02  0.79153915570E+02  0.00000000000E+00 0. -1.
        -14    1    6    6    0    0 -0.55003288628E+02  0.63991533635E+02  0.13195761554E+03  0.15663042628E+03  0.00000000000E+00 0.  1.
<mgrwt>
<rscale>  2 0.17764053E+03</rscale>
<asrwt>0</asrwt>
<pdfrwt beam="1">  1       21 0.99030265E-01 0.17869623E+03</pdfrwt>
<pdfrwt beam="2">  1       21 0.83016015E-02 0.17869623E+03</pdfrwt>
<totfact> 0.95071261E+04</totfact>
</mgrwt>
</event>
<event>
12    1  0.1013215E-001  0.2007885E+03  0.7546771E-02  0.1149102E+00
         21   -1    0    0  501  502  0.00000000000E+00  0.00000000000E+00  0.43901922809E+02  0.43901922809E+02  0.00000000000E+00 0. -1.
         21   -1    0    0  502  503 -0.00000000000E+00 -0.00000000000E+00 -0.93396352815E+03  0.93396352815E+03  0.00000000000E+00 0. -1.
         -6    2    1    2    0  503 -0.85839140051E+02  0.54233224038E+02 -0.38046924763E+03  0.43014254772E+03  0.17307848628E+03 0.  0.
        -24    2    3    3    0    0 -0.77757200164E+02  0.91081246830E+02 -0.35623810227E+03  0.38506114422E+03  0.83812430942E+02 0.  0.
          6    2    1    2  501    0  0.85839140051E+02 -0.54233224038E+02 -0.50959235771E+03  0.54772290324E+03  0.17322357559E+03 0.  0.
         24    2    5    5    0    0  0.51205538933E+02  0.89049671163E+01 -0.42488675487E+03  0.43644376475E+03  0.85165131792E+02 0.  0.
          5    1    5    5  501    0  0.34633601118E+02 -0.63138191155E+02 -0.84705602844E+02  0.11127913848E+03  0.47000000000E+01 0. -1.
        -13    1    6    6    0    0 -0.42828458825E+01  0.16531310934E+02 -0.28848736004E+03  0.28899235961E+03  0.00000000000E+00 0.  1.
         14    1    6    6    0    0  0.55488384816E+02 -0.76263438175E+01 -0.13639939483E+03  0.14745140515E+03  0.00000000000E+00 0. -1.
         -5    1    3    3    0  503 -0.80819398870E+01 -0.36848022792E+02 -0.24231145362E+02  0.45081403500E+02  0.47000000000E+01 0.  1.
         13    1    4    4    0    0  0.77260705742E+01  0.45671747860E+02 -0.15465561585E+03  0.16144336541E+03  0.00000000000E+00 0. -1.
        -14    1    4    4    0    0 -0.85483270738E+02  0.45409498970E+02 -0.20158248642E+03  0.22361777882E+03  0.00000000000E+00 0.  1.
<mgrwt>
<rscale>  2 0.20075717E+03</rscale>
<asrwt>0</asrwt>
<pdfrwt beam="1">  1       21 0.67541424E-02 0.20078847E+03</pdfrwt>
<pdfrwt beam="2">  1       21 0.14368669E+00 0.20078847E+03</pdfrwt>
<totfact> 0.53577215E+04</totfact>
</mgrwt>
</event>
<event>
12    1  0.1013215E-001  0.1779256E+03  0.7546771E-02  0.1170740E+00
         21   -1    0    0  501  502  0.00000000000E+00  0.00000000000E+00  0.33916217995E+03  0.33916217995E+03  0.00000000000E+00 0. -1.
         21   -1    0    0  502  503 -0.00000000000E+00 -0.00000000000E+00 -0.11799699670E+03  0.11799699670E+03  0.00000000000E+00 0. -1.
         -6    2    1    2    0  503  0.37872935166E+02 -0.16534648141E+02  0.12089848368E+01  0.17424888108E+03  0.16927332072E+03 0.  0.
        -24    2    3    3    0    0  0.63138850706E+02 -0.31065595921E+02  0.48703318132E+02  0.11832646494E+03  0.81716298195E+02 0.  0.
          6    2    1    2  501    0 -0.37872935166E+02  0.16534648141E+02  0.21995619842E+03  0.28291029557E+03  0.17305996739E+03 0.  0.
         24    2    5    5    0    0 -0.82307393337E+02  0.25832765812E+02  0.10254674399E+03  0.15694225973E+03  0.81689652957E+02 0.  0.
          5    1    5    5  501    0  0.44434458171E+02 -0.92981176706E+01  0.11740945442E+03  0.12596803584E+03  0.47000000000E+01 0. -1.
        -13    1    6    6    0    0 -0.35608511387E+02  0.52338929418E+02  0.41769380257E+02  0.75842011727E+02  0.00000000000E+00 0.  1.
         14    1    6    6    0    0 -0.46698881950E+02 -0.26506163606E+02  0.60777363734E+02  0.81100248007E+02  0.00000000000E+00 0. -1.
         -5    1    3    3    0  503 -0.25265915540E+02  0.14530947780E+02 -0.47494333295E+02  0.55922416137E+02  0.47000000000E+01 0.  1.
         13    1    4    4    0    0 -0.16992305455E+02 -0.51305413049E+01  0.25311188057E+02  0.30914675149E+02  0.00000000000E+00 0. -1.
        -14    1    4    4    0    0  0.80131156161E+02 -0.25935054616E+02  0.23392130075E+02  0.87411789795E+02  0.00000000000E+00 0.  1.
<mgrwt>
<rscale>  2 0.17699812E+03</rscale>
<asrwt>0</asrwt>
<pdfrwt beam="1">  1       21 0.52178797E-01 0.17792556E+03</pdfrwt>
<pdfrwt beam="2">  1       21 0.18153384E-01 0.17792556E+03</pdfrwt>
<totfact> 0.96873207E+04</totfact>
</mgrwt>
</event>
<event>
12    1  0.1013215E-001  0.2001552E+03  0.7546771E-02  0.1149718E+00
         21   -1    0    0  501  502  0.00000000000E+00  0.00000000000E+00  0.17736365752E+03  0.17736365752E+03  0.00000000000E+00 0. -1.
         21   -1    0    0  502  503 -0.00000000000E+00 -0.00000000000E+00 -0.22793519102E+03  0.22793519102E+03  0.00000000000E+00 0. -1.
         -6    2    1    2    0  503  0.64076197183E+02 -0.76105054963E+02 -0.47162258455E+02  0.20563648410E+03  0.17367886036E+03 0.  0.
        -24    2    3    3    0    0 -0.21259475685E+02 -0.65306422013E+02  0.38130509800E+01  0.10553973236E+03  0.80044997887E+02 0.  0.
          6    2    1    2  501    0 -0.64076197183E+02  0.76105054963E+02 -0.34092750440E+01  0.19966236443E+03  0.17307714516E+03 0.  0.
         24    2    5    5    0    0 -0.86235251907E+02  0.10608224383E+03 -0.18156836061E+02  0.15929856735E+03  0.79727045192E+02 0.  0.
          5    1    5    5  501    0  0.22159054725E+02 -0.29977188871E+02  0.14747561017E+02  0.40363797082E+02  0.47000000000E+01 0. -1.
        -11    1    6    6    0    0 -0.11869300730E+02 -0.92034885871E+01 -0.16204645034E+02  0.22094683131E+02  0.00000000000E+00 0.  1.
         12    1    6    6    0    0 -0.74365951177E+02  0.11528573242E+03 -0.19521910274E+01  0.13720388422E+03  0.00000000000E+00 0. -1.
         -5    1    3    3    0  503  0.85335672868E+02 -0.10798632949E+02 -0.50975309435E+02  0.10009675174E+03  0.47000000000E+01 0.  1.
         11    1    4    4    0    0  0.17013993398E+02 -0.64654882065E+02  0.64714731485E+01  0.67168517260E+02  0.00000000000E+00 0. -1.
        -12    1    4    4    0    0 -0.38273469083E+02 -0.65153994776E+00 -0.26584221685E+01  0.38371215102E+02  0.00000000000E+00 0.  1.
<mgrwt>
<rscale>  2 0.20002455E+03</rscale>
<asrwt>0</asrwt>
<pdfrwt beam="1">  1       21 0.27286717E-01 0.20015515E+03</pdfrwt>
<pdfrwt beam="2">  1       21 0.35066952E-01 0.20015515E+03</pdfrwt>
<totfact> 0.10009161E+05</totfact>
</mgrwt>
</event>
<event>
12    1  0.1013215E-001  0.2028876E+03  0.7546771E-02  0.1147726E+00
         21   -1    0    0  503  502  0.00000000000E+00  0.00000000000E+00  0.16208963250E+03  0.16208963250E+03  0.00000000000E+00 0.  1.
         21   -1    0    0  501  503 -0.00000000000E+00 -0.00000000000E+00 -0.31446913205E+03  0.31446913205E+03  0.00000000000E+00 0.  1.
          6    2    1    2  501    0 -0.75253641231E+02 -0.74565962218E+02 -0.18306515041E+03  0.27326950139E+03  0.17303230292E+03 0.  0.
         24    2    3    3    0    0 -0.10596975740E+03 -0.14119650394E+02 -0.13592156180E+03  0.19055405935E+03  0.80045140761E+02 0.  0.
         -6    2    1    2    0  502  0.75253641231E+02  0.74565962218E+02  0.30685650868E+02  0.20328926315E+03  0.17076803595E+03 0.  0.
        -24    2    5    5    0    0  0.13569536063E+02  0.33803090230E+02 -0.43838684505E+02  0.98205928956E+02  0.79973701958E+02 0.  0.
          5    1    3    3  501    0  0.30716116170E+02 -0.60446311824E+02 -0.47143588612E+02  0.82715442047E+02  0.47000000000E+01 0. -1.
        -13    1    4    4    0    0 -0.17522814584E+01 -0.19296451271E+02 -0.55583887390E+02  0.58864183162E+02  0.00000000000E+00 0.  1.
         14    1    4    4    0    0 -0.10421747594E+03  0.51768008770E+01 -0.80337674412E+02  0.13168987618E+03  0.00000000000E+00 0. -1.
         -5    1    5    5    0  502  0.61684105168E+02  0.40762871989E+02  0.74524335373E+02  0.10508333420E+03  0.47000000000E+01 0.  1.
         13    1    6    6    0    0  0.46988678449E+02  0.25210197742E+02 -0.28189189004E+02  0.60316833050E+02  0.00000000000E+00 0. -1.
        -14    1    6    6    0    0 -0.33419142385E+02  0.85928924875E+01 -0.15649495501E+02  0.37889095905E+02  0.00000000000E+00 0.  1.
<mgrwt>
<rscale>  2 0.20240396E+03</rscale>
<asrwt>0</asrwt>
<pdfrwt beam="1">  1       21 0.24936867E-01 0.20288758E+03</pdfrwt>
<pdfrwt beam="2">  1       21 0.48379866E-01 0.20288758E+03</pdfrwt>
<totfact> 0.61814091E+04</totfact>
</mgrwt>
</event>
<event>
12    1  0.1013215E-001  0.1928336E+03  0.7546771E-02  0.1155990E+00
         21   -1    0    0  503  502  0.00000000000E+00  0.00000000000E+00  0.21731015908E+03  0.21731015908E+03  0.00000000000E+00 0.  1.
         21   -1    0    0  501  503 -0.00000000000E+00 -0.00000000000E+00 -0.17204523107E+03  0.17204523107E+03  0.00000000000E+00 0.  1.
          6    2    1    2  501    0 -0.12192517574E+02  0.84400831246E+02  0.65453973748E+01  0.19267294976E+03  0.17264954545E+03 0.  0.
         24    2    3    3    0    0 -0.65688743773E+02  0.37839837915E+02  0.35375681722E+02  0.11597192230E+03  0.80319259916E+02 0.  0.
         -6    2    1    2    0  502  0.12192517574E+02 -0.84400831246E+02  0.38719530636E+02  0.19668244039E+03  0.17295265972E+03 0.  0.
        -24    2    5    5    0    0  0.67213123296E+02 -0.50307924052E+02 -0.12392389433E+02  0.11407425830E+03  0.76229088444E+02 0.  0.
          5    1    3    3  501    0  0.53496226199E+02  0.46560993331E+02 -0.28830284347E+02  0.76701027458E+02  0.47000000000E+01 0. -1.
        -11    1    4    4    0    0 -0.69851304776E+02  0.56918619312E+02  0.23509123871E+02  0.93121495416E+02  0.00000000000E+00 0.  1.
         12    1    4    4    0    0  0.41625610024E+01 -0.19078781397E+02  0.11866557851E+02  0.22850426888E+02  0.00000000000E+00 0. -1.
         -5    1    5    5    0  502 -0.55020605722E+02 -0.34092907193E+02  0.51111920070E+02  0.82608182090E+02  0.47000000000E+01 0.  1.
         13    1    6    6    0    0  0.33284595007E+02 -0.43031754286E+02 -0.41786272228E+02  0.68598022482E+02  0.00000000000E+00 0. -1.
        -14    1    6    6    0    0  0.33928528289E+02 -0.72761697658E+01  0.29393882795E+02  0.45476235817E+02  0.00000000000E+00 0.  1.
<mgrwt>
<rscale>  2 0.19276557E+03</rscale>
<asrwt>0</asrwt>
<pdfrwt beam="1">  1       21 0.33432332E-01 0.19283356E+03</pdfrwt>
<pdfrwt beam="2">  1       21 0.26468497E-01 0.19283356E+03</pdfrwt>
<totfact> 0.11700023E+05</totfact>
</mgrwt>
</event>
<event>
12    1  0.1013215E-001  0.1773724E+03  0.7546771E-02  0.1170563E+00
         21   -1    0    0  503  502  0.00000000000E+00  0.00000000000E+00  0.62264727113E+02  0.62264727113E+02  0.00000000000E+00 0.  1.
         21   -1    0    0  501  503 -0.00000000000E+00 -0.00000000000E+00 -0.19769119785E+04  0.19769119785E+04  0.00000000000E+00 0.  1.
          6    2    1    2  501    0  0.33771125044E+02 -0.23402949338E+02 -0.18371420753E+04  0.18456101575E+04  0.17174883337E+03 0.  0.
         24    2    3    3    0    0  0.72207687313E+02  0.15237528299E+02 -0.87126687513E+03  0.87818706076E+03  0.81611357142E+02 0.  0.
         -6    2    1    2    0  502 -0.33771125044E+02  0.23402949338E+02 -0.77505176085E+02  0.19356654810E+03  0.17254787538E+03 0.  0.
        -24    2    5    5    0    0 -0.50727937148E+02 -0.46845308595E+02 -0.41101774949E+02  0.11251317782E+03  0.78753112534E+02 0.  0.
          5    1    3    3  501    0 -0.38436562269E+02 -0.38640477638E+02 -0.96587520019E+03  0.96742309677E+03  0.47000000000E+01 0. -1.
        -11    1    4    4    0    0  0.64663491128E+02 -0.19920994578E+02 -0.69524664858E+03  0.69853139906E+03  0.00000000000E+00 0.  1.
         12    1    4    4    0    0  0.75441961853E+01  0.35158522878E+02 -0.17602022655E+03  0.17965566170E+03  0.00000000000E+00 0. -1.
         -5    1    5    5    0  502  0.16956812105E+02  0.70248257933E+02 -0.36403401136E+02  0.81053370279E+02  0.47000000000E+01 0.  1.
         11    1    6    6    0    0  0.36357418427E+01  0.91233876640E+01 -0.32575370097E+02  0.34023661739E+02  0.00000000000E+00 0. -1.
        -12    1    6    6    0    0 -0.54363678991E+02 -0.55968696259E+02 -0.85264048522E+01  0.78489516077E+02  0.00000000000E+00 0.  1.
<mgrwt>
<rscale>  2 0.17717774E+03</rscale>
<asrwt>0</asrwt>
<pdfrwt beam="1">  1       21 0.95791903E-02 0.17737237E+03</pdfrwt>
<pdfrwt beam="2">  1       21 0.30414026E+00 0.17737237E+03</pdfrwt>
<totfact> 0.28847460E+03</totfact>
</mgrwt>
</event>
<event>
12    1  0.1013215E-001  0.1799413E+03  0.7546771E-02  0.1167982E+00
         21   -1    0    0  501  502  0.00000000000E+00  0.00000000000E+00  0.69716023661E+02  0.69716023661E+02  0.00000000000E+00 0.  1.
         21   -1    0    0  502  503 -0.00000000000E+00 -0.00000000000E+00 -0.76200721566E+03  0.76200721566E+03  0.00000000000E+00 0.  1.
         -6    2    1    2    0  503 -0.44508340910E+02  0.20505048543E+02 -0.60688228474E+03  0.63299682177E+03  0.17313988395E+03 0.  0.
        -24    2    3    3    0    0 -0.76312708471E+01 -0.26346522413E+02 -0.50095760895E+03  0.51135342928E+03  0.98850534265E+02 0.  0.
          6    2    1    2  501    0  0.44508340910E+02 -0.20505048543E+02 -0.85408907257E+02  0.19872641755E+03  0.17261534743E+03 0.  0.
         24    2    5    5    0    0  0.88575521000E+02 -0.65350360789E+01 -0.22063393561E+02  0.12016547487E+03  0.77875659857E+02 0.  0.
          5    1    5    5  501    0 -0.44067180090E+02 -0.13970012464E+02 -0.63345513695E+02  0.78560942680E+02  0.47000000000E+01 0. -1.
        -11    1    6    6    0    0  0.41580029752E+01 -0.18403648827E+02  0.17906959637E+02  0.26012352495E+02  0.00000000000E+00 0.  1.
         12    1    6    6    0    0  0.84417518025E+02  0.11868612748E+02 -0.39970353198E+02  0.94153122374E+02  0.00000000000E+00 0. -1.
         -5    1    3    3    0  503 -0.36877070063E+02  0.46851570956E+02 -0.10592467579E+03  0.12164339249E+03  0.47000000000E+01 0.  1.
         13    1    4    4    0    0 -0.23553389905E+02  0.40252153739E+01 -0.26594284155E+02  0.35752209506E+02  0.00000000000E+00 0. -1.
        -14    1    4    4    0    0  0.15922119058E+02 -0.30371737787E+02 -0.47436332480E+03  0.47560121977E+03  0.00000000000E+00 0.  1.
<mgrwt>
<rscale>  2 0.17981500E+03</rscale>
<asrwt>0</asrwt>
<pdfrwt beam="1">  1       21 0.10725542E-01 0.17994129E+03</pdfrwt>
<pdfrwt beam="2">  1       21 0.11723188E+00 0.17994129E+03</pdfrwt>
<totfact> 0.40374041E+04</totfact>
</mgrwt>
</event>
<event>
12    1  0.1013215E-001  0.1999671E+03  0.7546771E-02  0.1150585E+00
         21   -1    0    0  501  502  0.00000000000E+00  0.00000000000E+00  0.40018497277E+02  0.40018497277E+02  0.00000000000E+00 0.  1.
         21   -1    0    0  502  503 -0.00000000000E+00 -0.00000000000E+00 -0.20149578831E+04  0.20149578831E+04  0.00000000000E+00 0.  1.
         -6    2    1    2    0  503 -0.35313808119E+02 -0.92694518304E+02 -0.17284458601E+04  0.17399746884E+04  0.17363031503E+03 0.  0.
        -24    2    3    3    0    0 -0.26270573596E+02 -0.13225308352E+03 -0.12455748134E+04  0.12553787765E+04  0.79613035490E+02 0.  0.
          6    2    1    2  501    0  0.35313808119E+02  0.92694518304E+02 -0.24649352573E+03  0.31500169196E+03  0.16919713042E+03 0.  0.
         24    2    5    5    0    0 -0.23194947084E+02  0.50963831352E+02 -0.59751406184E+02  0.11485316241E+03  0.80533848149E+02 0.  0.
          5    1    5    5  501    0  0.58508755202E+02  0.41730686952E+02 -0.18674211955E+03  0.20014852955E+03  0.47000000000E+01 0. -1.
        -11    1    6    6    0    0  0.23460554067E+02  0.42751884366E+02 -0.18904396777E+02  0.52301983055E+02  0.00000000000E+00 0.  1.
         12    1    6    6    0    0 -0.46655501150E+02  0.82119469858E+01 -0.40847009407E+02  0.62551179353E+02  0.00000000000E+00 0. -1.
         -5    1    3    3    0  503 -0.90432345229E+01  0.39558565219E+02 -0.48287104663E+03  0.48459591191E+03  0.47000000000E+01 0.  1.
         11    1    4    4    0    0  0.26025421205E+02 -0.64444023848E+02 -0.47436699652E+03  0.47943133205E+03  0.00000000000E+00 0. -1.
        -12    1    4    4    0    0 -0.52295994801E+02 -0.67809059676E+02 -0.77120781690E+03  0.77594744442E+03  0.00000000000E+00 0.  1.
<mgrwt>
<rscale>  2 0.19900083E+03</rscale>
<asrwt>0</asrwt>
<pdfrwt beam="1">  1       21 0.61566909E-02 0.19996706E+03</pdfrwt>
<pdfrwt beam="2">  1       21 0.30999357E+00 0.19996706E+03</pdfrwt>
<totfact> 0.55932514E+03</totfact>
</mgrwt>
</event>
<event>
12    1  0.1013215E-001  0.2342996E+03  0.7546771E-02  0.1123727E+00
         21   -1    0    0  503  502  0.00000000000E+00  0.00000000000E+00  0.30764570213E+03  0.30764570213E+03  0.00000000000E+00 0.  1.
         21   -1    0    0  501  503 -0.00000000000E+00 -0.00000000000E+00 -0.17971559910E+03  0.17971559910E+03  0.00000000000E+00 0.  1.
          6    2    1    2  501    0 -0.15620086633E+03 -0.20674376664E+02  0.87144750452E+02  0.24998104177E+03  0.17340753508E+03 0.  0.
         24    2    3    3    0    0 -0.17914101536E+03 -0.33193117891E+02  0.51899476748E+02  0.20585294825E+03  0.80551810384E+02 0.  0.
         -6    2    1    2    0  502  0.15620086633E+03  0.20674376664E+02  0.40785352578E+02  0.23738025946E+03  0.17279989034E+03 0.  0.
        -24    2    5    5    0    0  0.13898996651E+03  0.50357724156E+01 -0.29354657250E+02  0.16333640763E+03  0.80458165275E+02 0.  0.
          5    1    3    3  501    0  0.22940149031E+02  0.12518741227E+02  0.35245273704E+02  0.44128093523E+02  0.47000000000E+01 0. -1.
        -13    1    4    4    0    0 -0.14464363563E+03 -0.28780993290E+02  0.73636114500E+02  0.16484054192E+03  0.00000000000E+00 0.  1.
         14    1    4    4    0    0 -0.34497379734E+02 -0.44121246007E+01 -0.21736637752E+02  0.41012406328E+02  0.00000000000E+00 0. -1.
         -5    1    5    5    0  502  0.17210899820E+02  0.15638604248E+02  0.70140009828E+02  0.74043851832E+02  0.47000000000E+01 0.  1.
         13    1    6    6    0    0 -0.65526763339E+01 -0.19398086411E+00 -0.15757164283E+02  0.17066441397E+02  0.00000000000E+00 0. -1.
        -14    1    6    6    0    0  0.14554264285E+03  0.52297532798E+01 -0.13597492967E+02  0.14626996623E+03  0.00000000000E+00 0.  1.
<mgrwt>
<rscale>  2 0.23418720E+03</rscale>
<asrwt>0</asrwt>
<pdfrwt beam="1">  1       21 0.47330108E-01 0.23429962E+03</pdfrwt>
<pdfrwt beam="2">  1       21 0.27648554E-01 0.23429962E+03</pdfrwt>
<totfact> 0.52313763E+04</totfact>
</mgrwt>
</event>
<event>
12    1  0.1013215E-001  0.2307440E+03  0.7546771E-02  0.1126379E+00
         21   -1    0    0  501  502  0.00000000000E+00  0.00000000000E+00  0.92788840869E+02  0.92788840869E+02  0.00000000000E+00 0.  1.
         21   -1    0    0  502  503 -0.00000000000E+00 -0.00000000000E+00 -0.91523685369E+03  0.91523685369E+03  0.00000000000E+00 0.  1.
         -6    2    1    2    0  503  0.15019022052E+03 -0.30675672068E+02 -0.71989521099E+03  0.75551853554E+03  0.17047299946E+03 0.  0.
        -24    2    3    3    0    0  0.14575005657E+03 -0.27379896870E+02 -0.38941330331E+03  0.42495695506E+03  0.83384381710E+02 0.  0.
          6    2    1    2  501    0 -0.15019022052E+03  0.30675672068E+02 -0.10255280183E+03  0.25250715902E+03  0.17246648659E+03 0.  0.
         24    2    5    5    0    0 -0.43345169579E+02 -0.29294907311E+02 -0.55306567221E+01  0.96149485898E+02  0.80480681871E+02 0.  0.
          5    1    5    5  501    0 -0.10684505094E+03  0.59970579379E+02 -0.97022145112E+02  0.15635767312E+03  0.47000000000E+01 0. -1.
        -13    1    6    6    0    0 -0.65570763834E+02 -0.32619125813E+02 -0.73450313688E+01  0.73603545597E+02  0.00000000000E+00 0.  1.
         14    1    6    6    0    0  0.22225594256E+02  0.33242185028E+01  0.18143746466E+01  0.22545940301E+02  0.00000000000E+00 0. -1.
         -5    1    3    3    0  503  0.44401639515E+01 -0.32957751981E+01 -0.33048190767E+03  0.33056158048E+03  0.47000000000E+01 0.  1.
         11    1    4    4    0    0  0.13759799019E+03 -0.23506789728E+02 -0.39154429787E+03  0.41568342914E+03  0.00000000000E+00 0. -1.
        -12    1    4    4    0    0  0.81520663825E+01 -0.38731071414E+01  0.21309945541E+01  0.92735259219E+01  0.00000000000E+00 0.  1.
<mgrwt>
<rscale>  2 0.23037154E+03</rscale>
<asrwt>0</asrwt>
<pdfrwt beam="1">  1       21 0.14275206E-01 0.23074399E+03</pdfrwt>
<pdfrwt beam="2">  1       21 0.14080567E+00 0.23074399E+03</pdfrwt>
<totfact> 0.14756507E+04</totfact>
</mgrwt>
</event>
<event>
12    1  0.1013215E-001  0.2388406E+03  0.7546771E-02  0.1121356E+00
         21   -1    0    0  501  502  0.00000000000E+00  0.00000000000E+00  0.51306266469E+03  0.51306266469E+03  0.00000000000E+00 0. -1.
         21   -1    0    0  502  503 -0.00000000000E+00 -0.00000000000E+00 -0.13321967398E+03  0.13321967398E+03  0.00000000000E+00 0. -1.
         -6    2    1    2    0  503  0.73132155651E+02 -0.13923912872E+03  0.50695869868E+02  0.23960968969E+03  0.17351335687E+03 0.  0.
        -24    2    3    3    0    0  0.11407725856E+03 -0.12772013078E+03  0.28940080366E+02  0.19160351151E+03  0.80921719243E+02 0.  0.
          6    2    1    2  501    0 -0.73132155651E+02  0.13923912872E+03  0.32914712084E+03  0.40667264897E+03  0.17974695855E+03 0.  0.
         24    2    5    5    0    0 -0.11765694255E+03  0.10218822630E+03  0.27508775684E+03  0.32730180511E+03  0.84661726551E+02 0.  0.
          5    1    5    5  501    0  0.44524786900E+02  0.37050902422E+02  0.54059364003E+02  0.79370843861E+02  0.47000000000E+01 0. -1.
        -11    1    6    6    0    0 -0.18293469499E+02 -0.71527505256E+01  0.63756472860E+01  0.20650950214E+02  0.00000000000E+00 0.  1.
         12    1    6    6    0    0 -0.99363473052E+02  0.10934097683E+03  0.26871210955E+03  0.30665085490E+03  0.00000000000E+00 0. -1.
         -5    1    3    3    0  503 -0.40945102914E+02 -0.11518997945E+02  0.21755789502E+02  0.48006178177E+02  0.47000000000E+01 0.  1.
         11    1    4    4    0    0  0.94163204194E+02 -0.46137961779E+02  0.86868975451E+01  0.10521826234E+03  0.00000000000E+00 0. -1.
        -12    1    4    4    0    0  0.19914054370E+02 -0.81582169001E+02  0.20253182821E+02  0.86385249173E+02  0.00000000000E+00 0.  1.
<mgrwt>
<rscale>  2 0.23766813E+03</rscale>
<asrwt>0</asrwt>
<pdfrwt beam="1">  1       21 0.78932716E-01 0.23884057E+03</pdfrwt>
<pdfrwt beam="2">  1       21 0.20495335E-01 0.23884057E+03</pdfrwt>
<totfact> 0.30519850E+04</totfact>
</mgrwt>
</event>
<event>
12    1  0.1013215E-001  0.1880039E+03  0.7546771E-02  0.1160517E+00
         21   -1    0    0  503  502  0.00000000000E+00  0.00000000000E+00  0.39203625029E+03  0.39203625029E+03  0.00000000000E+00 0.  1.
         21   -1    0    0  501  503 -0.00000000000E+00 -0.00000000000E+00 -0.95292216948E+02  0.95292216948E+02  0.00000000000E+00 0.  1.
          6    2    1    2  501    0 -0.59461981073E+02  0.37821436461E+02  0.89478898177E+02  0.20821129932E+03  0.17429653955E+03 0.  0.
         24    2    3    3    0    0 -0.12111824738E+02  0.65854370276E+02  0.10741820914E+03  0.15014416954E+03  0.80753362845E+02 0.  0.
         -6    2    1    2    0  502  0.59461981073E+02 -0.37821436461E+02  0.20726513517E+03  0.27911716792E+03  0.17315128911E+03 0.  0.
        -24    2    5    5    0    0  0.93024731520E+02 -0.69083119221E+02  0.15592522230E+03  0.21011261966E+03  0.80053481846E+02 0.  0.
          5    1    3    3  501    0 -0.47350156335E+02 -0.28032933815E+02 -0.17939310960E+02  0.58067129781E+02  0.47000000000E+01 0. -1.
        -13    1    4    4    0    0 -0.38727043199E+02  0.53414121115E+02  0.41415062987E+02  0.77897751261E+02  0.00000000000E+00 0.  1.
         14    1    4    4    0    0  0.26615218460E+02  0.12440249161E+02  0.66003146150E+02  0.72246418282E+02  0.00000000000E+00 0. -1.
         -5    1    5    5    0  502 -0.33562750447E+02  0.31261682760E+02  0.51339912869E+02  0.69004548256E+02  0.47000000000E+01 0.  1.
         11    1    6    6    0    0  0.25225142784E+02 -0.16073309189E+02  0.10702796639E+03  0.11112895521E+03  0.00000000000E+00 0. -1.
        -12    1    6    6    0    0  0.67799588736E+02 -0.53009810033E+02  0.48897255911E+02  0.98983664451E+02  0.00000000000E+00 0.  1.
<mgrwt>
<rscale>  2 0.18773804E+03</rscale>
<asrwt>0</asrwt>
<pdfrwt beam="1">  1       21 0.60313268E-01 0.18800391E+03</pdfrwt>
<pdfrwt beam="2">  1       21 0.14660341E-01 0.18800391E+03</pdfrwt>
<totfact> 0.10497840E+05</totfact>
</mgrwt>
</event>
<event>
12    1  0.1013215E-001  0.1940585E+03  0.7546771E-02  0.1155174E+00
         21   -1    0    0  501  502  0.00000000000E+00  0.00000000000E+00  0.35465590480E+02  0.35465590480E+02  0.00000000000E+00 0.  1.
         21   -1    0    0  502  503 -0.00000000000E+00 -0.00000000000E+00 -0.10840226892E+04  0.10840226892E+04  0.00000000000E+00 0. -1.
         -6    2    1    2    0  503 -0.78849164154E+02  0.38359032761E+02 -0.61963676349E+03  0.64931382028E+03  0.17311878137E+03 0.  0.
        -24    2    3    3    0    0 -0.93768717329E+02  0.23179541874E+02 -0.61647468402E+03  0.62728886269E+03  0.64190479837E+02 0.  0.
          6    2    1    2  501    0  0.78849164154E+02 -0.38359032761E+02 -0.42892033526E+03  0.47017445942E+03  0.17147233658E+03 0.  0.
         24    2    5    5    0    0  0.96275513528E+02  0.17336531904E+02 -0.22092495530E+03  0.25409613644E+03  0.78660541821E+02 0.  0.
          5    1    5    5  501    0 -0.17426349374E+02 -0.55695564665E+02 -0.20799537996E+03  0.21607832298E+03  0.47000000000E+01 0. -1.
        -11    1    6    6    0    0  0.11134691546E+02 -0.31069244297E+01  0.43899365584E+01  0.12365511644E+02  0.00000000000E+00 0.  1.
         12    1    6    6    0    0  0.85140821982E+02  0.20443456334E+02 -0.22531489186E+03  0.24173062480E+03  0.00000000000E+00 0. -1.
         -5    1    3    3    0  503  0.14919553175E+02  0.15179490887E+02 -0.31620794670E+01  0.22024957596E+02  0.47000000000E+01 0.  1.
         11    1    4    4    0    0 -0.82459819007E+02 -0.57683551029E+01 -0.38780083303E+03  0.39651277630E+03  0.00000000000E+00 0. -1.
        -12    1    4    4    0    0 -0.11308898322E+02  0.28947896977E+02 -0.22867385099E+03  0.23077608639E+03  0.00000000000E+00 0.  1.
<mgrwt>
<rscale>  2 0.19369066E+03</rscale>
<asrwt>0</asrwt>
<pdfrwt beam="1">  1       21 0.54562451E-02 0.19405854E+03</pdfrwt>
<pdfrwt beam="2">  1       21 0.16677271E+00 0.19405854E+03</pdfrwt>
<totfact> 0.52111478E+04</totfact>
</mgrwt>
</event>
<event>
12    1  0.1013215E-001  0.2485172E+03  0.7546771E-02  0.1114622E+00
         21   -1    0    0  501  502  0.00000000000E+00  0.00000000000E+00  0.73422692012E+03  0.73422692012E+03  0.00000000000E+00 0.  1.
         21   -1    0    0  502  503 -0.00000000000E+00 -0.00000000000E+00 -0.17107943380E+03  0.17107943380E+03  0.00000000000E+00 0. -1.
         -6    2    1    2    0  503 -0.12576332152E+03  0.12390810613E+03 -0.43271118575E+02  0.24994055161E+03  0.17154666371E+03 0.  0.
        -24    2    3    3    0    0 -0.14559886235E+03  0.11182532675E+03 -0.71204319706E+02  0.21331001841E+03  0.82019365928E+02 0.  0.
          6    2    1    2  501    0  0.12576332152E+03 -0.12390810613E+03  0.60641860490E+03  0.65536580231E+03  0.17490334090E+03 0.  0.
         24    2    5    5    0    0  0.67492939726E+02 -0.13817728466E+03  0.53255779799E+03  0.56009484321E+03  0.80250646598E+02 0.  0.
          5    1    5    5  501    0  0.58270381798E+02  0.14269178522E+02  0.73860806908E+02  0.95270959099E+02  0.47000000000E+01 0. -1.
        -13    1    6    6    0    0  0.62785520054E+02 -0.54098331689E+02  0.18910125178E+03  0.20646533473E+03  0.00000000000E+00 0.  1.
         14    1    6    6    0    0  0.47074196720E+01 -0.84078952966E+02  0.34345654621E+03  0.35362950847E+03  0.00000000000E+00 0. -1.
         -5    1    3    3    0  503  0.19835540822E+02  0.12082779379E+02  0.27933201131E+02  0.36630533202E+02  0.47000000000E+01 0.  1.
         13    1    4    4    0    0 -0.72852997527E+02  0.97448589267E+02 -0.67325427631E+02  0.13905574423E+03  0.00000000000E+00 0. -1.
        -14    1    4    4    0    0 -0.72745864819E+02  0.14376737487E+02 -0.38788920750E+01  0.74254274172E+02  0.00000000000E+00 0.  1.
<mgrwt>
<rscale>  2 0.24792742E+03</rscale>
<asrwt>0</asrwt>
<pdfrwt beam="1">  1       21 0.11295799E+00 0.24851722E+03</pdfrwt>
<pdfrwt beam="2">  1       21 0.26319913E-01 0.24851722E+03</pdfrwt>
<totfact> 0.80961536E+03</totfact>
</mgrwt>
</event>
<event>
11    1  0.1013215E-001  0.1836251E+03  0.7546771E-02  0.1164421E+00
         21   -1    0    0  501  502  0.00000000000E+00  0.00000000000E+00  0.31533406417E+03  0.31533406417E+03  0.00000000000E+00 0. -1.
         21   -1    0    0  502  503 -0.00000000000E+00 -0.00000000000E+00 -0.17600097938E+03  0.17600097938E+03  0.00000000000E+00 0. -1.
         -6    2    1    2    0  503 -0.47505572323E+02 -0.39384957594E+02 -0.84417750583E+02  0.20210027399E+03  0.17294568467E+03 0.  0.
        -24    2    3    3    0    0  0.26593712070E+02 -0.34933001143E+02 -0.34158414295E+01  0.92127899504E+02  0.80921825263E+02 0.  0.
          6    2    1    2  501    0  0.47505572323E+02  0.39384957594E+02  0.22375083537E+03  0.28923476956E+03  0.17258146282E+03 0.  0.
          5    1    5    5  501    0  0.55870592360E+02  0.93128675818E+02  0.19055113250E+03  0.21937706683E+03  0.47000000000E+01 0. -1.
        -13    1    5    5    0    0  0.67477355997E+01 -0.17086937948E+02  0.36076192722E+00  0.18374589338E+02  0.00000000000E+00 0.  1.
         14    1    5    5    0    0 -0.15112755636E+02 -0.36656780276E+02  0.32838940934E+02  0.51483113395E+02  0.00000000000E+00 0. -1.
         -5    1    3    3    0  503 -0.74099284394E+02 -0.44519564509E+01 -0.81001909154E+02  0.10997237449E+03  0.47000000000E+01 0.  1.
         11    1    4    4    0    0 -0.13352214883E+02 -0.20390963508E+02 -0.32497141203E+02  0.40621881067E+02  0.00000000000E+00 0. -1.
        -12    1    4    4    0    0  0.39945926953E+02 -0.14542037635E+02  0.29081299774E+02  0.51506018437E+02  0.00000000000E+00 0.  1.
<mgrwt>
<rscale>  2 0.18353925E+03</rscale>
<asrwt>0</asrwt>
<pdfrwt beam="1">  1       21 0.48512933E-01 0.18362506E+03</pdfrwt>
<pdfrwt beam="2">  1       21 0.27077074E-01 0.18362506E+03</pdfrwt>
<totfact> 0.52957615E+04</totfact>
</mgrwt>
</event>
<event>
12    1  0.1013215E-001  0.1804707E+03  0.7546771E-02  0.1167491E+00
         21   -1    0    0  501  502  0.00000000000E+00  0.00000000000E+00  0.45328873653E+03  0.45328873653E+03  0.00000000000E+00 0.  1.
         21   -1    0    0  502  503 -0.00000000000E+00 -0.00000000000E+00 -0.71619192887E+02  0.71619192887E+02  0.00000000000E+00 0.  1.
         -6    2    1    2    0  503  0.49442428832E+02  0.89601562241E+00  0.18981760384E+03  0.26191675008E+03  0.17356354638E+03 0.  0.
        -24    2    3    3    0    0 -0.32730747674E+02 -0.20820431987E+02  0.59632063508E+02  0.10637125852E+03  0.79082674518E+02 0.  0.
          6    2    1    2  501    0 -0.49442428832E+02 -0.89601562241E+00  0.19185193980E+03  0.26299117934E+03  0.17295038881E+03 0.  0.
         24    2    5    5    0    0 -0.86652218809E+02 -0.29778984291E+01  0.19190154225E+03  0.22542796373E+03  0.80461730104E+02 0.  0.
          5    1    5    5  501    0  0.37209789977E+02  0.20818828067E+01 -0.49602444725E-01  0.37563215605E+02  0.47000000000E+01 0. -1.
        -11    1    6    6    0    0 -0.55697358390E+02  0.13250508263E+02  0.40712252304E+02  0.70251399904E+02  0.00000000000E+00 0.  1.
         12    1    6    6    0    0 -0.30954860419E+02 -0.16228406693E+02  0.15118928994E+03  0.15517656383E+03  0.00000000000E+00 0. -1.
         -5    1    3    3    0  503  0.82173176506E+02  0.21716447609E+02  0.13018554033E+03  0.15554549156E+03  0.47000000000E+01 0.  1.
         11    1    4    4    0    0 -0.22072484941E+01 -0.17363045329E+02  0.71371130269E+02  0.73485954610E+02  0.00000000000E+00 0. -1.
        -12    1    4    4    0    0 -0.30523499180E+02 -0.34573866574E+01 -0.11739066761E+02  0.32885303908E+02  0.00000000000E+00 0.  1.
<mgrwt>
<rscale>  2 0.18032308E+03</rscale>
<asrwt>0</asrwt>
<pdfrwt beam="1">  1       21 0.69736727E-01 0.18047067E+03</pdfrwt>
<pdfrwt beam="2">  1       21 0.11018338E-01 0.18047067E+03</pdfrwt>
<totfact> 0.12822052E+05</totfact>
</mgrwt>
</event>
<event>
12    1  0.1013215E-001  0.1907845E+03  0.7546771E-02  0.1157869E+00
         21   -1    0    0  503  502  0.00000000000E+00  0.00000000000E+00  0.19504217174E+04  0.19504217174E+04  0.00000000000E+00 0.  1.
         21   -1    0    0  501  503 -0.00000000000E+00 -0.00000000000E+00 -0.22472846141E+03  0.22472846141E+03  0.00000000000E+00 0.  1.
          6    2    1    2  501    0 -0.54113160993E+02 -0.58126871756E+02 -0.17862232743E+03  0.26135159852E+03  0.17346975178E+03 0.  0.
         24    2    3    3    0    0  0.38782207828E+02 -0.21697848395E+02 -0.83064287221E+02  0.12311248561E+03  0.79260027960E+02 0.  0.
         -6    2    1    2    0  502  0.54113160993E+02  0.58126871756E+02  0.19043155834E+04  0.19137985802E+04  0.17291673503E+03 0.  0.
        -24    2    5    5    0    0 -0.11638923223E+02  0.19694185034E+02  0.14892524349E+04  0.14917797237E+04  0.83729349573E+02 0.  0.
          5    1    3    3  501    0 -0.92895368821E+02 -0.36429023361E+02 -0.95558040206E+02  0.13823911291E+03  0.47000000000E+01 0. -1.
        -11    1    4    4    0    0  0.19625289874E+02 -0.36950650080E+02 -0.88622365925E+02  0.98002174905E+02  0.00000000000E+00 0.  1.
         12    1    4    4    0    0  0.19156917955E+02  0.15252801685E+02  0.55580787043E+01  0.25110310704E+02  0.00000000000E+00 0. -1.
         -5    1    5    5    0  502  0.65752084216E+02  0.38432686722E+02  0.41506314851E+03  0.42201885650E+03  0.47000000000E+01 0.  1.
         13    1    6    6    0    0  0.19021470389E+02 -0.16341825952E+02  0.18772644846E+03  0.18939401010E+03  0.00000000000E+00 0. -1.
        -14    1    6    6    0    0 -0.30660393612E+02  0.36036010986E+02  0.13015259864E+04  0.13023857137E+04  0.00000000000E+00 0.  1.
<mgrwt>
<rscale>  2 0.19065870E+03</rscale>
<asrwt>0</asrwt>
<pdfrwt beam="1">  1       21 0.30006487E+00 0.19078449E+03</pdfrwt>
<pdfrwt beam="2">  1       21 0.34573611E-01 0.19078449E+03</pdfrwt>
<totfact> 0.27579083E+02</totfact>
</mgrwt>
</event>
<event>
12    1  0.1013215E-001  0.2313622E+03  0.7546771E-02  0.1126098E+00
         21   -1    0    0  503  502  0.00000000000E+00  0.00000000000E+00  0.82059388949E+03  0.82059388949E+03  0.00000000000E+00 0. -1.
         21   -1    0    0  501  503 -0.00000000000E+00 -0.00000000000E+00 -0.76642269632E+02  0.76642269632E+02  0.00000000000E+00 0. -1.
          6    2    1    2  501    0  0.11795454481E+03 -0.96413650335E+02  0.55163640006E+03  0.59818993972E+03  0.17412529827E+03 0.  0.
         24    2    3    3    0    0  0.27297293917E+02 -0.50531157968E+02  0.42238231679E+03  0.43371304685E+03  0.80010282415E+02 0.  0.
         -6    2    1    2    0  502 -0.11795454481E+03  0.96413650335E+02  0.19231521980E+03  0.29904621940E+03  0.17098137606E+03 0.  0.
        -24    2    5    5    0    0 -0.10824093415E+03  0.11003498348E+03  0.21121506099E+03  0.27337154422E+03  0.79349869479E+02 0.  0.
          5    1    3    3  501    0  0.90657250893E+02 -0.45882492368E+02  0.12925408327E+03  0.16447689286E+03  0.47000000000E+01 0. -1.
        -11    1    4    4    0    0 -0.25499820784E+02 -0.49850241149E+01  0.16586337564E+03  0.16788612422E+03  0.00000000000E+00 0.  1.
         12    1    4    4    0    0  0.52797114701E+02 -0.45546133853E+02  0.25651894115E+03  0.26582692264E+03  0.00000000000E+00 0. -1.
         -5    1    5    5    0  502 -0.97136106603E+01 -0.13621333141E+02 -0.18899841192E+02  0.25674675182E+02  0.47000000000E+01 0.  1.
         11    1    6    6    0    0 -0.11609035871E+03  0.10661936940E+03  0.17227782395E+03  0.23350441097E+03  0.00000000000E+00 0. -1.
        -12    1    6    6    0    0  0.78494245615E+01  0.34156140783E+01  0.38937237040E+02  0.39867133253E+02  0.00000000000E+00 0.  1.
<mgrwt>
<rscale>  2 0.23077078E+03</rscale>
<asrwt>0</asrwt>
<pdfrwt beam="1">  1       21 0.12624521E+00 0.23136224E+03</pdfrwt>
<pdfrwt beam="2">  1       21 0.11791119E-01 0.23136224E+03</pdfrwt>
<totfact> 0.27556094E+04</totfact>
</mgrwt>
</event>
<event>
12    1  0.1013215E-001  0.1947677E+03  0.7546771E-02  0.1154703E+00
         21   -1    0    0  501  502  0.00000000000E+00  0.00000000000E+00  0.19967175361E+03  0.19967175361E+03  0.00000000000E+00 0. -1.
         21   -1    0    0  502  503 -0.00000000000E+00 -0.00000000000E+00 -0.37751902288E+03  0.37751902288E+03  0.00000000000E+00 0. -1.
         -6    2    1    2    0  503 -0.34958599684E+02  0.80826117642E+02 -0.29321302306E+03  0.35082002702E+03  0.17130630311E+03 0.  0.
        -24    2    3    3    0    0  0.14003890484E+02  0.10160761450E+03 -0.25014796881E+03  0.28222057402E+03  0.80958198036E+02 0.  0.
          6    2    1    2  501    0  0.34958599684E+02 -0.80826117642E+02  0.11536575378E+03  0.22637074947E+03  0.17372246281E+03 0.  0.
         24    2    5    5    0    0  0.63534731273E+02 -0.64043168849E+02  0.13984663954E+03  0.18490188845E+03  0.80581860282E+02 0.  0.
          5    1    5    5  501    0 -0.28576131589E+02 -0.16782948793E+02 -0.24480885758E+02  0.41468861020E+02  0.47000000000E+01 0. -1.
        -13    1    6    6    0    0  0.39420695102E+02  0.10119323371E+02  0.65764308027E+02  0.77339098250E+02  0.00000000000E+00 0.  1.
         14    1    6    6    0    0  0.24114036171E+02 -0.74162492220E+02  0.74082331516E+02  0.10756279020E+03  0.00000000000E+00 0. -1.
         -5    1    3    3    0  503 -0.48962490167E+02 -0.20781496854E+02 -0.43065054249E+02  0.68599453003E+02  0.47000000000E+01 0.  1.
         11    1    4    4    0    0 -0.25326376012E+02  0.18552374310E+02 -0.29000066668E+02  0.42738972626E+02  0.00000000000E+00 0. -1.
        -12    1    4    4    0    0  0.39330266496E+02  0.83055240186E+02 -0.22114790214E+03  0.23948160140E+03  0.00000000000E+00 0.  1.
<mgrwt>
<rscale>  2 0.19422746E+03</rscale>
<asrwt>0</asrwt>
<pdfrwt beam="1">  1       21 0.30718732E-01 0.19476771E+03</pdfrwt>
<pdfrwt beam="2">  1       21 0.58079849E-01 0.19476771E+03</pdfrwt>
<totfact> 0.28235310E+04</totfact>
</mgrwt>
</event>
<event>
12    1  0.1013215E-001  0.3791706E+03  0.7546771E-02  0.1051450E+00
         21   -1    0    0  503  502  0.00000000000E+00  0.00000000000E+00  0.56981957665E+03  0.56981957665E+03  0.00000000000E+00 0.  1.
         21   -1    0    0  501  503 -0.00000000000E+00 -0.00000000000E+00 -0.25918408146E+03  0.25918408146E+03  0.00000000000E+00 0. -1.
          6    2    1    2  501    0 -0.17976470072E+03  0.28285824103E+03  0.22937119356E+03  0.44122249238E+03  0.17245872319E+03 0.  0.
         24    2    3    3    0    0 -0.84943986910E+02  0.13333470911E+03  0.18946585116E+03  0.25966594274E+03  0.80842238324E+02 0.  0.
         -6    2    1    2    0  502  0.17976470072E+03 -0.28285824103E+03  0.81264301624E+02  0.38778116573E+03  0.17733080285E+03 0.  0.
        -24    2    5    5    0    0  0.63543323500E+02 -0.18849259629E+03  0.92724913992E+02  0.23756226192E+03  0.90943420835E+02 0.  0.
          5    1    3    3  501    0 -0.94820713807E+02  0.14952353192E+03  0.39905342399E+02  0.18155654964E+03  0.47000000000E+01 0. -1.
        -13    1    4    4    0    0 -0.18119376860E+02 -0.78663860092E+01  0.33693982023E+02  0.39057345932E+02  0.00000000000E+00 0.  1.
         14    1    4    4    0    0 -0.66824610050E+02  0.14120109512E+03  0.15577186913E+03  0.22060859680E+03  0.00000000000E+00 0. -1.
         -5    1    5    5    0  502  0.11622137722E+03 -0.94365644733E+02 -0.11460612368E+02  0.15021890382E+03  0.47000000000E+01 0.  1.
         13    1    6    6    0    0  0.86663122368E+00 -0.15917194714E+02  0.45168323295E+02  0.47898701095E+02  0.00000000000E+00 0. -1.
        -14    1    6    6    0    0  0.62676692276E+02 -0.17257540158E+03  0.47556590697E+02  0.18966356082E+03  0.00000000000E+00 0.  1.
<mgrwt>
<rscale>  2 0.37860585E+03</rscale>
<asrwt>0</asrwt>
<pdfrwt beam="1">  1       21 0.87664550E-01 0.37917060E+03</pdfrwt>
<pdfrwt beam="2">  1       21 0.39874474E-01 0.37917060E+03</pdfrwt>
<totfact> 0.61209507E+03</totfact>
</mgrwt>
</event>
<event>
12    1  0.1013215E-001  0.3249558E+03  0.7546771E-02  0.1074318E+00
         21   -1    0    0  503  502  0.00000000000E+00  0.00000000000E+00  0.31009982666E+03  0.31009982666E+03  0.00000000000E+00 0.  1.
         21   -1    0    0  501  503 -0.00000000000E+00 -0.00000000000E+00 -0.60021778971E+03  0.60021778971E+03  0.00000000000E+00 0. -1.
          6    2    1    2  501    0  0.19962139161E+03 -0.18892101560E+03 -0.44825307693E+03  0.54892723152E+03  0.15764020554E+03 0.  0.
         24    2    3    3    0    0  0.71287381474E+02 -0.45390477501E+02 -0.21919688044E+03  0.24966235774E+03  0.84509373888E+02 0.  0.
         -6    2    1    2    0  502 -0.19962139161E+03  0.18892101560E+03  0.15813511388E+03  0.36139038485E+03  0.17336794944E+03 0.  0.
        -24    2    5    5    0    0 -0.62786771595E+02  0.89760968526E+02  0.96568484605E+01  0.13639191047E+03  0.80686357957E+02 0.  0.
          5    1    3    3  501    0  0.12833401014E+03 -0.14353053810E+03 -0.22905619649E+03  0.29926487378E+03  0.47000000000E+01 0. -1.
        -13    1    4    4    0    0  0.56083079051E+02 -0.29609470718E+02 -0.54812807848E+02  0.83824080169E+02  0.00000000000E+00 0.  1.
         14    1    4    4    0    0  0.15204302423E+02 -0.15781006783E+02 -0.16438407259E+03  0.16583827758E+03  0.00000000000E+00 0. -1.
         -5    1    5    5    0  502 -0.13683462002E+03  0.99160047071E+02  0.14847826542E+03  0.22499847438E+03  0.47000000000E+01 0.  1.
         13    1    6    6    0    0 -0.60503221067E+02  0.61326512423E+02 -0.26689434957E+02  0.90188174523E+02  0.00000000000E+00 0. -1.
        -14    1    6    6    0    0 -0.22835505281E+01  0.28434456103E+02  0.36346283417E+02  0.46203735943E+02  0.00000000000E+00 0.  1.
<mgrwt>
<rscale>  2 0.32290868E+03</rscale>
<asrwt>0</asrwt>
<pdfrwt beam="1">  1       21 0.47707666E-01 0.32495584E+03</pdfrwt>
<pdfrwt beam="2">  1       21 0.92341197E-01 0.32495584E+03</pdfrwt>
<totfact> 0.38223948E+03</totfact>
</mgrwt>
</event>
<event>
12    1  0.1013215E-001  0.1908925E+03  0.7546771E-02  0.1157920E+00
         21   -1    0    0  503  502  0.00000000000E+00  0.00000000000E+00  0.73192250877E+03  0.73192250877E+03  0.00000000000E+00 0. -1.
         21   -1    0    0  501  503 -0.00000000000E+00 -0.00000000000E+00 -0.27672908091E+03  0.27672908091E+03  0.00000000000E+00 0.  1.
          6    2    1    2  501    0 -0.39556464668E+02 -0.66292531241E+02 -0.22929445865E+03  0.29835530427E+03  0.17458672694E+03 0.  0.
         24    2    3    3    0    0 -0.93260849457E+02 -0.31217291627E+02 -0.15032773479E+03  0.19651097769E+03  0.79661980690E+02 0.  0.
         -6    2    1    2    0  502  0.39556464668E+02  0.66292531241E+02  0.68448788650E+03  0.71029628541E+03  0.17331397146E+03 0.  0.
        -24    2    5    5    0    0  0.10323818371E+02  0.10868439471E+03  0.44800188449E+03  0.46822328641E+03  0.81292549169E+02 0.  0.
          5    1    3    3  501    0  0.53704384789E+02 -0.35075239614E+02 -0.78966723857E+02  0.10184432658E+03  0.47000000000E+01 0. -1.
        -11    1    4    4    0    0 -0.18951263197E+02 -0.40472229034E+02 -0.89493059267E+02  0.10003079204E+03  0.00000000000E+00 0.  1.
         12    1    4    4    0    0 -0.74309586260E+02  0.92549374070E+01 -0.60834675524E+02  0.96480185648E+02  0.00000000000E+00 0. -1.
         -5    1    5    5    0  502  0.29232646297E+02 -0.42391863467E+02  0.23648600201E+03  0.24207299900E+03  0.47000000000E+01 0.  1.
         11    1    6    6    0    0 -0.28616616356E+02  0.73956745979E+02  0.32649887274E+03  0.33599110838E+03  0.00000000000E+00 0. -1.
        -12    1    6    6    0    0  0.38940434727E+02  0.34727648729E+02  0.12150301175E+03  0.13223217803E+03  0.00000000000E+00 0.  1.
<mgrwt>
<rscale>  2 0.19060098E+03</rscale>
<asrwt>0</asrwt>
<pdfrwt beam="1">  1       21 0.11260346E+00 0.19089248E+03</pdfrwt>
<pdfrwt beam="2">  1       21 0.42573705E-01 0.19089248E+03</pdfrwt>
<totfact> 0.32803369E+03</totfact>
</mgrwt>
</event>
<event>
12    1  0.1013215E-001  0.2260876E+03  0.7546771E-02  0.1129480E+00
         21   -1    0    0  501  502  0.00000000000E+00  0.00000000000E+00  0.43743027991E+03  0.43743027991E+03  0.00000000000E+00 0. -1.
         21   -1    0    0  502  503 -0.00000000000E+00 -0.00000000000E+00 -0.12028937159E+03  0.12028937159E+03  0.00000000000E+00 0.  1.
         -6    2    1    2    0  503  0.20260222562E+02  0.14329374503E+03  0.11047180656E+03  0.25163390893E+03  0.17370097897E+03 0.  0.
        -24    2    3    3    0    0 -0.96673918306E+01  0.21579194755E+01  0.48935907901E+02  0.94714374828E+02  0.80485866061E+02 0.  0.
          6    2    1    2  501    0 -0.20260222562E+02 -0.14329374503E+03  0.20666910176E+03  0.30608574257E+03  0.17329971205E+03 0.  0.
         24    2    5    5    0    0  0.55301987240E+02 -0.56544028516E+02  0.10755914626E+03  0.15416459807E+03  0.77085773016E+02 0.  0.
          5    1    5    5  501    0 -0.75562209802E+02 -0.86749716517E+02  0.99109955507E+02  0.15192114450E+03  0.47000000000E+01 0. -1.
        -13    1    6    6    0    0  0.16821885995E+02  0.92198369877E+01  0.63091774668E+02  0.65943561272E+02  0.00000000000E+00 0.  1.
         14    1    6    6    0    0  0.38480101245E+02 -0.65763865504E+02  0.44467371587E+02  0.88221036798E+02  0.00000000000E+00 0. -1.
         -5    1    3    3    0  503  0.29927614392E+02  0.14113582556E+03  0.61535898660E+02  0.15691953410E+03  0.47000000000E+01 0.  1.
         13    1    4    4    0    0 -0.10440678683E+02 -0.74287664245E+01  0.70208676537E+02  0.71368428615E+02  0.00000000000E+00 0. -1.
        -14    1    4    4    0    0  0.77328685272E+00  0.95866858999E+01 -0.21272768636E+02  0.23345946212E+02  0.00000000000E+00 0.  1.
<mgrwt>
<rscale>  2 0.22601053E+03</rscale>
<asrwt>0</asrwt>
<pdfrwt beam="1">  1       21 0.67296965E-01 0.22608760E+03</pdfrwt>
<pdfrwt beam="2">  1       21 0.18506057E-01 0.22608760E+03</pdfrwt>
<totfact> 0.53050925E+04</totfact>
</mgrwt>
</event>
<event>
12    1  0.1013215E-001  0.2008257E+03  0.7546771E-02  0.1149096E+00
         21   -1    0    0  503  502  0.00000000000E+00  0.00000000000E+00  0.17027969514E+04  0.17027969514E+04  0.00000000000E+00 0.  1.
         21   -1    0    0  501  503 -0.00000000000E+00 -0.00000000000E+00 -0.97455734122E+02  0.97455734122E+02  0.00000000000E+00 0. -1.
          6    2    1    2  501    0 -0.81527254736E+02 -0.61210847408E+02  0.19492123739E+02  0.20176944562E+03  0.17302457973E+03 0.  0.
         24    2    3    3    0    0 -0.94684942909E+02  0.18338363768E+02  0.19711805856E+02  0.12100224920E+03  0.70366576029E+02 0.  0.
         -6    2    1    2    0  502  0.81527254736E+02  0.61210847408E+02  0.15858490935E+04  0.15984832399E+04  0.17273638781E+03 0.  0.
        -24    2    5    5    0    0  0.98470424676E+02  0.65206662650E+01  0.13426005113E+04  0.13485431477E+04  0.79079356904E+02 0.  0.
          5    1    3    3  501    0  0.13157688173E+02 -0.79549211176E+02 -0.21968211716E+00  0.80767196417E+02  0.47000000000E+01 0. -1.
        -11    1    4    4    0    0 -0.23504467830E+02  0.31132348977E+02  0.28271469568E+02  0.48176333944E+02  0.00000000000E+00 0.  1.
         12    1    4    4    0    0 -0.71180475079E+02 -0.12793985209E+02 -0.85596637114E+01  0.72825915256E+02  0.00000000000E+00 0. -1.
         -5    1    5    5    0  502 -0.16943169940E+02  0.54690181143E+02  0.24324858220E+03  0.24994009215E+03  0.47000000000E+01 0.  1.
         13    1    6    6    0    0  0.51469670330E+01  0.14990411019E+02  0.47861344346E+02  0.50417377706E+02  0.00000000000E+00 0. -1.
        -14    1    6    6    0    0  0.93323457643E+02 -0.84697447538E+01  0.12947391670E+04  0.12981257700E+04  0.00000000000E+00 0.  1.
<mgrwt>
<rscale>  2 0.20076362E+03</rscale>
<asrwt>0</asrwt>
<pdfrwt beam="1">  1       21 0.26196874E+00 0.20082571E+03</pdfrwt>
<pdfrwt beam="2">  1       21 0.14993191E-01 0.20082571E+03</pdfrwt>
<totfact> 0.22012068E+03</totfact>
</mgrwt>
</event>
<event>
12    1  0.1013215E-001  0.2064622E+03  0.7546771E-02  0.1144539E+00
         21   -1    0    0  501  502  0.00000000000E+00  0.00000000000E+00  0.53611588978E+03  0.53611588978E+03  0.00000000000E+00 0. -1.
         21   -1    0    0  502  503 -0.00000000000E+00 -0.00000000000E+00 -0.14617860317E+03  0.14617860317E+03  0.00000000000E+00 0. -1.
         -6    2    1    2    0  503 -0.10343521248E+03 -0.38714924530E+02 -0.36054949103E+02  0.20890668759E+03  0.17362130112E+03 0.  0.
        -24    2    3    3    0    0 -0.27859754300E+02 -0.82212437049E+02 -0.20480181502E+02  0.12020298496E+03  0.80587027761E+02 0.  0.
          6    2    1    2  501    0  0.10343521248E+03  0.38714924530E+02  0.42599223571E+03  0.47338780536E+03  0.17443893146E+03 0.  0.
         24    2    5    5    0    0  0.10333376123E+03  0.11253280840E+02  0.42571726985E+03  0.44552532570E+03  0.80331310525E+02 0.  0.
          5    1    5    5  501    0  0.10145124583E+00  0.27461643690E+02  0.27496586670E+00  0.27862479658E+02  0.47000000000E+01 0. -1.
        -11    1    6    6    0    0  0.32536260840E+02 -0.16624361373E+02  0.26726727685E+03  0.26975317410E+03  0.00000000000E+00 0.  1.
         12    1    6    6    0    0  0.70797500392E+02  0.27877642213E+02  0.15844999300E+03  0.17577215160E+03  0.00000000000E+00 0. -1.
         -5    1    3    3    0  503 -0.75575458178E+02  0.43497512520E+02 -0.15574767601E+02  0.88703702628E+02  0.47000000000E+01 0.  1.
         11    1    4    4    0    0 -0.32929572197E+02  0.30033933214E+01 -0.49303553849E+01  0.33431803731E+02  0.00000000000E+00 0. -1.
        -12    1    4    4    0    0  0.50698178966E+01 -0.85215830371E+02 -0.15549826117E+02  0.86771181227E+02  0.00000000000E+00 0.  1.
<mgrwt>
<rscale>  2 0.20628937E+03</rscale>
<asrwt>0</asrwt>
<pdfrwt beam="1">  1       21 0.82479367E-01 0.20646217E+03</pdfrwt>
<pdfrwt beam="2">  1       21 0.22489016E-01 0.20646217E+03</pdfrwt>
<totfact> 0.23575058E+04</totfact>
</mgrwt>
</event>
<event>
12    1  0.1013215E-001  0.1722338E+03  0.7546771E-02  0.1175642E+00
         21   -1    0    0  501  502  0.00000000000E+00  0.00000000000E+00  0.66167266829E+03  0.66167266829E+03  0.00000000000E+00 0.  1.
         21   -1    0    0  502  503 -0.00000000000E+00 -0.00000000000E+00 -0.64234675766E+02  0.64234675766E+02  0.00000000000E+00 0.  1.
         -6    2    1    2    0  503 -0.26575939426E+01  0.77701535573E+01  0.98457516481E+02  0.19803805121E+03  0.17163259912E+03 0.  0.
        -24    2    3    3    0    0 -0.43486622885E+02  0.28865763959E+02  0.11517862526E+03  0.14890842815E+03  0.78633870310E+02 0.  0.
          6    2    1    2  501    0  0.26575939426E+01 -0.77701535573E+01  0.49898047604E+03  0.52786929285E+03  0.17203789341E+03 0.  0.
         24    2    5    5    0    0 -0.19030959733E+02  0.36531804815E+02  0.44809161417E+03  0.45684237444E+03  0.78880353707E+02 0.  0.
          5    1    5    5  501    0  0.21688553675E+02 -0.44301958372E+02  0.50888861867E+02  0.71026918406E+02  0.47000000000E+01 0. -1.
        -11    1    6    6    0    0  0.15002924422E+02  0.30300562793E+02  0.36859640842E+03  0.37014392356E+03  0.00000000000E+00 0.  1.
         12    1    6    6    0    0 -0.34033884154E+02  0.62312420223E+01  0.79495205755E+02  0.86698450885E+02  0.00000000000E+00 0. -1.
         -5    1    3    3    0  503  0.40829028942E+02 -0.21095610401E+02 -0.16721108778E+02  0.49129623053E+02  0.47000000000E+01 0.  1.
         11    1    4    4    0    0  0.46233618235E+01  0.38119751659E+02  0.23664215151E+02  0.45105277073E+02  0.00000000000E+00 0. -1.
        -12    1    4    4    0    0 -0.48109984708E+02 -0.92539877007E+01  0.91514410107E+02  0.10380315108E+03  0.00000000000E+00 0.  1.
<mgrwt>
<rscale>  2 0.17213248E+03</rscale>
<asrwt>0</asrwt>
<pdfrwt beam="1">  1       21 0.10179579E+00 0.17223378E+03</pdfrwt>
<pdfrwt beam="2">  1       21 0.98822583E-02 0.17223378E+03</pdfrwt>
<totfact> 0.65834894E+04</totfact>
</mgrwt>
</event>
<event>
12    1  0.1013215E-001  0.3199132E+03  0.7546771E-02  0.1075768E+00
         21   -1    0    0  503  502  0.00000000000E+00  0.00000000000E+00  0.21897361276E+03  0.21897361276E+03  0.00000000000E+00 0.  1.
         21   -1    0    0  501  503 -0.00000000000E+00 -0.00000000000E+00 -0.55986602716E+03  0.55986602716E+03  0.00000000000E+00 0. -1.
          6    2    1    2  501    0 -0.23925842500E+03  0.11989050563E+03 -0.32941682054E+03  0.45872067705E+03  0.17404278390E+03 0.  0.
         24    2    3    3    0    0 -0.87013244103E+02  0.11020869689E+03 -0.12778717220E+03  0.20583940527E+03  0.79517531806E+02 0.  0.
         -6    2    1    2    0  502  0.23925842500E+03 -0.11989050563E+03 -0.11475593865E+02  0.32011896287E+03  0.17528871574E+03 0.  0.
        -24    2    5    5    0    0  0.81672100417E+02 -0.94503361381E+02 -0.47272372315E+02  0.15646855458E+03  0.81526155857E+02 0.  0.
          5    1    3    3  501    0 -0.15224518089E+03  0.96818087343E+01 -0.20162964834E+03  0.25288127178E+03  0.47000000000E+01 0. -1.
        -11    1    4    4    0    0  0.37065832558E+01 -0.49918963974E+01 -0.27493632587E+02  0.28187898501E+02  0.00000000000E+00 0.  1.
         12    1    4    4    0    0 -0.90719827359E+02  0.11520059329E+03 -0.10029353961E+03  0.17765150677E+03  0.00000000000E+00 0. -1.
         -5    1    5    5    0  502  0.15758632458E+03 -0.25387144248E+02  0.35796778449E+02  0.16365040829E+03  0.47000000000E+01 0.  1.
         11    1    6    6    0    0 -0.95771289358E+01 -0.10478941616E+02  0.12372657998E+02  0.18831151903E+02  0.00000000000E+00 0. -1.
        -12    1    6    6    0    0  0.91249229353E+02 -0.84024419765E+02 -0.59645030313E+02  0.13763740268E+03  0.00000000000E+00 0.  1.
<mgrwt>
<rscale>  2 0.31974283E+03</rscale>
<asrwt>0</asrwt>
<pdfrwt beam="1">  1       21 0.33688249E-01 0.31991321E+03</pdfrwt>
<pdfrwt beam="2">  1       21 0.86133233E-01 0.31991321E+03</pdfrwt>
<totfact> 0.91922722E+03</totfact>
</mgrwt>
</event>
<event>
12    1  0.1013215E-001  0.2535697E+03  0.7546771E-02  0.1111201E+00
         21   -1    0    0  503  502  0.00000000000E+00  0.00000000000E+00  0.67913785328E+02  0.67913785328E+02  0.00000000000E+00 0.  1.
         21   -1    0    0  501  503 -0.00000000000E+00 -0.00000000000E+00 -0.12953973245E+04  0.12953973245E+04  0.00000000000E+00 0.  1.
          6    2    1    2  501    0 -0.14414614444E+02  0.18391267464E+03 -0.96972012632E+03  0.10023246618E+04  0.17397112181E+03 0.  0.
         24    2    3    3    0    0  0.55738498745E+02  0.12674309327E+03 -0.47560978834E+03  0.49997325448E+03  0.67808498677E+02 0.  0.
         -6    2    1    2    0  502  0.14414614444E+02 -0.18391267464E+03 -0.25776341282E+03  0.36098644801E+03  0.17273559464E+03 0.  0.
        -24    2    5    5    0    0  0.70227652967E+01 -0.22899554981E+02 -0.13842769375E+03  0.16037994767E+03  0.77367902677E+02 0.  0.
          5    1    3    3  501    0 -0.70153113190E+02  0.57169581368E+02 -0.49411033798E+03  0.50235140731E+03  0.47000000000E+01 0. -1.
        -11    1    4    4    0    0  0.24676111747E+02  0.38714992137E+02 -0.27376824844E+03  0.27759109309E+03  0.00000000000E+00 0.  1.
         12    1    4    4    0    0  0.31062386999E+02  0.88028101133E+02 -0.20184153990E+03  0.22238216139E+03  0.00000000000E+00 0. -1.
         -5    1    5    5    0  502  0.73918491475E+01 -0.16101311966E+03 -0.11933571906E+03  0.20060650034E+03  0.47000000000E+01 0.  1.
         11    1    6    6    0    0 -0.21500612007E+02 -0.23602429937E+02 -0.18069190280E+02  0.36685782709E+02  0.00000000000E+00 0. -1.
        -12    1    6    6    0    0  0.28523377304E+02  0.70287495559E+00 -0.12035850347E+03  0.12369416496E+03  0.00000000000E+00 0.  1.
<mgrwt>
<rscale>  2 0.25335794E+03</rscale>
<asrwt>0</asrwt>
<pdfrwt beam="1">  1       21 0.10448275E-01 0.25356972E+03</pdfrwt>
<pdfrwt beam="2">  1       21 0.19929188E+00 0.25356972E+03</pdfrwt>
<totfact> 0.97318502E+03</totfact>
</mgrwt>
</event>
<event>
12    1  0.1013215E-001  0.1815696E+03  0.7546771E-02  0.1166527E+00
         21   -1    0    0  503  502  0.00000000000E+00  0.00000000000E+00  0.26682962327E+03  0.26682962327E+03  0.00000000000E+00 0. -1.
         21   -1    0    0  501  503 -0.00000000000E+00 -0.00000000000E+00 -0.18497085991E+03  0.18497085991E+03  0.00000000000E+00 0. -1.
          6    2    1    2  501    0  0.36193412375E+02 -0.34949570848E+02 -0.89870367510E+02  0.20259364778E+03  0.17445935791E+03 0.  0.
         24    2    3    3    0    0  0.10591741441E+02  0.44297073388E+02 -0.31570336526E+02  0.10082695485E+03  0.84231662561E+02 0.  0.
         -6    2    1    2    0  502 -0.36193412375E+02  0.34949570848E+02  0.17172913087E+03  0.24920683541E+03  0.17344081648E+03 0.  0.
        -24    2    5    5    0    0 -0.65855460169E+02  0.48786649392E+02  0.18146501055E+03  0.21473686043E+03  0.80407029431E+02 0.  0.
          5    1    3    3  501    0  0.25601670934E+02 -0.79246644236E+02 -0.58300030984E+02  0.10176669293E+03  0.47000000000E+01 0. -1.
        -13    1    4    4    0    0 -0.33240959914E+01  0.22611102478E+02  0.27869836081E+02  0.36042188232E+02  0.00000000000E+00 0.  1.
         14    1    4    4    0    0  0.13915837432E+02  0.21685970910E+02 -0.59440172606E+02  0.64784766614E+02  0.00000000000E+00 0. -1.
         -5    1    5    5    0  502  0.29662047794E+02 -0.13837078544E+02 -0.97358796731E+01  0.34469974978E+02  0.47000000000E+01 0.  1.
         11    1    6    6    0    0  0.18582934333E+02  0.34444629922E+01  0.27131498715E+02  0.33065208245E+02  0.00000000000E+00 0. -1.
        -12    1    6    6    0    0 -0.84438394502E+02  0.45342186400E+02  0.15433351183E+03  0.18167165219E+03  0.00000000000E+00 0.  1.
<mgrwt>
<rscale>  2 0.18132445E+03</rscale>
<asrwt>0</asrwt>
<pdfrwt beam="1">  1       21 0.41050711E-01 0.18156955E+03</pdfrwt>
<pdfrwt beam="2">  1       21 0.28457055E-01 0.18156955E+03</pdfrwt>
<totfact> 0.67807126E+04</totfact>
</mgrwt>
</event>
<event>
12    1  0.1013215E-001  0.2396543E+03  0.7546771E-02  0.1121102E+00
         21   -1    0    0  503  502  0.00000000000E+00  0.00000000000E+00  0.26154079768E+03  0.26154079768E+03  0.00000000000E+00 0.  1.
         21   -1    0    0  501  503 -0.00000000000E+00 -0.00000000000E+00 -0.28715778050E+03  0.28715778050E+03  0.00000000000E+00 0.  1.
          6    2    1    2  501    0  0.89372650597E+02  0.13545443617E+03 -0.15133706588E+03  0.27807017343E+03  0.16758501989E+03 0.  0.
         24    2    3    3    0    0  0.10865472351E+03  0.65520635253E+02 -0.13823253174E+03  0.20420303825E+03  0.80571988995E+02 0.  0.
         -6    2    1    2    0  502 -0.89372650597E+02 -0.13545443617E+03  0.12572008306E+03  0.27062840475E+03  0.17634857306E+03 0.  0.
        -24    2    5    5    0    0 -0.36119794660E+02  0.19551073689E+02  0.47079458311E+02  0.88779531751E+02  0.63074922231E+02 0.  0.
          5    1    3    3  501    0 -0.19282072917E+02  0.69933800913E+02 -0.13104534137E+02  0.73867135189E+02  0.47000000000E+01 0. -1.
        -11    1    4    4    0    0  0.66928657309E+02  0.81479132181E+02 -0.10165677905E+03  0.14646636091E+03  0.00000000000E+00 0.  1.
         12    1    4    4    0    0  0.41726066205E+02 -0.15958496928E+02 -0.36575752693E+02  0.57736677340E+02  0.00000000000E+00 0. -1.
         -5    1    5    5    0  502 -0.53252855938E+02 -0.15500550985E+03  0.78640624750E+02  0.18184887300E+03  0.47000000000E+01 0.  1.
         11    1    6    6    0    0 -0.53068617476E+01 -0.47223001549E+00 -0.15399510109E+02  0.16295112592E+02  0.00000000000E+00 0. -1.
        -12    1    6    6    0    0 -0.30812932912E+02  0.20023303704E+02  0.62478968421E+02  0.72484419159E+02  0.00000000000E+00 0.  1.
<mgrwt>
<rscale>  2 0.23804490E+03</rscale>
<asrwt>0</asrwt>
<pdfrwt beam="1">  1       21 0.40237046E-01 0.23965432E+03</pdfrwt>
<pdfrwt beam="2">  1       21 0.44178120E-01 0.23965432E+03</pdfrwt>
<totfact> 0.28588340E+04</totfact>
</mgrwt>
</event>
<event>
12    1  0.1013215E-001  0.1794397E+03  0.7546771E-02  0.1168725E+00
         21   -1    0    0  501  502  0.00000000000E+00  0.00000000000E+00  0.87266801540E+03  0.87266801540E+03  0.00000000000E+00 0. -1.
         21   -1    0    0  502  503 -0.00000000000E+00 -0.00000000000E+00 -0.56166101612E+02  0.56166101612E+02  0.00000000000E+00 0. -1.
         -6    2    1    2    0  503 -0.39255595839E+01 -0.47784597407E+02  0.68135530600E+03  0.70419396385E+03  0.17130472247E+03 0.  0.
        -24    2    3    3    0    0 -0.11898640449E+02 -0.90645823091E+02  0.58885752403E+03  0.60182900717E+03  0.84182702397E+02 0.  0.
          6    2    1    2  501    0  0.39255595839E+01  0.47784597407E+02  0.13514660778E+03  0.22464015316E+03  0.17291562986E+03 0.  0.
         24    2    5    5    0    0 -0.38420365988E+02  0.39955341125E+00  0.13434259986E+03  0.16091216688E+03  0.79802926931E+02 0.  0.
          5    1    5    5  501    0  0.42345925572E+02  0.47385043996E+02  0.80400792681E+00  0.63727986283E+02  0.47000000000E+01 0. -1.
        -13    1    6    6    0    0 -0.40846734538E+02  0.59930369090E+01  0.19065238575E+02  0.45473679593E+02  0.00000000000E+00 0.  1.
         14    1    6    6    0    0  0.24263685498E+01 -0.55934834977E+01  0.11527736128E+03  0.11543848728E+03  0.00000000000E+00 0. -1.
         -5    1    3    3    0  503  0.79730808650E+01  0.42861225684E+02  0.92497781975E+02  0.10236495668E+03  0.47000000000E+01 0.  1.
         13    1    4    4    0    0  0.31234776396E+02 -0.13747658150E+02  0.21663998679E+03  0.21931140700E+03  0.00000000000E+00 0. -1.
        -14    1    4    4    0    0 -0.43133416845E+02 -0.76898164941E+02  0.37221753723E+03  0.38251760018E+03  0.00000000000E+00 0.  1.
<mgrwt>
<rscale>  2 0.17905044E+03</rscale>
<asrwt>0</asrwt>
<pdfrwt beam="1">  1       21 0.13425661E+00 0.17943966E+03</pdfrwt>
<pdfrwt beam="2">  1       21 0.86409394E-02 0.17943966E+03</pdfrwt>
<totfact> 0.42102923E+04</totfact>
</mgrwt>
</event>
<event>
12    1  0.1013215E-001  0.1759954E+03  0.7546771E-02  0.1172404E+00
         21   -1    0    0  503  502  0.00000000000E+00  0.00000000000E+00  0.17666636984E+03  0.17666636984E+03  0.00000000000E+00 0.  1.
         21   -1    0    0  501  503 -0.00000000000E+00 -0.00000000000E+00 -0.19703968005E+03  0.19703968005E+03  0.00000000000E+00 0.  1.
          6    2    1    2  501    0 -0.13071080853E+02 -0.30394300244E+02 -0.75940383075E+02  0.19168029324E+03  0.17285753207E+03 0.  0.
         24    2    3    3    0    0 -0.34235363256E+02  0.23595703652E+02 -0.94116313173E+02  0.13072701765E+03  0.80640284036E+02 0.  0.
         -6    2    1    2    0  502  0.13071080853E+02  0.30394300244E+02  0.55567072867E+02  0.18202575665E+03  0.17014996284E+03 0.  0.
        -24    2    5    5    0    0 -0.33612441782E+02 -0.22851432196E+02 -0.18250851604E+01  0.90754681756E+02  0.81123961497E+02 0.  0.
          5    1    3    3  501    0  0.21164282404E+02 -0.53990003896E+02  0.18175930098E+02  0.60953275591E+02  0.47000000000E+01 0. -1.
        -13    1    4    4    0    0 -0.51530754579E+02  0.11876335871E+01 -0.87663802478E+02  0.10169450037E+03  0.00000000000E+00 0.  1.
         14    1    4    4    0    0  0.17295391322E+02  0.22408070064E+02 -0.64525106946E+01  0.29032517274E+02  0.00000000000E+00 0. -1.
         -5    1    5    5    0  502  0.46683522634E+02  0.53245732440E+02  0.57392158027E+02  0.91271074890E+02  0.47000000000E+01 0.  1.
         13    1    6    6    0    0 -0.43363770580E+02  0.36421439887E+01 -0.28415741940E+02  0.51972456184E+02  0.00000000000E+00 0. -1.
        -14    1    6    6    0    0  0.97513287984E+01 -0.26493576185E+02  0.26590656780E+02  0.38782225573E+02  0.00000000000E+00 0.  1.
<mgrwt>
<rscale>  2 0.17532700E+03</rscale>
<asrwt>0</asrwt>
<pdfrwt beam="1">  1       21 0.27179442E-01 0.17599543E+03</pdfrwt>
<pdfrwt beam="2">  1       21 0.30313797E-01 0.17599543E+03</pdfrwt>
<totfact> 0.13549941E+05</totfact>
</mgrwt>
</event>
<event>
12    1  0.1013215E-001  0.2101752E+03  0.7546771E-02  0.1141771E+00
         21   -1    0    0  503  502  0.00000000000E+00  0.00000000000E+00  0.15121295912E+04  0.15121295912E+04  0.00000000000E+00 0. -1.
         21   -1    0    0  501  503 -0.00000000000E+00 -0.00000000000E+00 -0.33709665906E+02  0.33709665906E+02  0.00000000000E+00 0.  1.
          6    2    1    2  501    0  0.99955815212E+01 -0.11827865429E+03  0.10263211246E+04  0.10472743893E+04  0.17134422642E+03 0.  0.
         24    2    3    3    0    0 -0.46256981633E+02 -0.36094880025E+02  0.65854663052E+03  0.66622492778E+03  0.82033170800E+02 0.  0.
         -6    2    1    2    0  502 -0.99955815212E+01  0.11827865429E+03  0.45209880069E+03  0.49856486783E+03  0.17344696634E+03 0.  0.
        -24    2    5    5    0    0 -0.73456122575E+02  0.71476291581E+02  0.32208649779E+03  0.34643666422E+03  0.75986762383E+02 0.  0.
          5    1    3    3  501    0  0.56252563154E+02 -0.82183774262E+02  0.36777449413E+03  0.38104946155E+03  0.47000000000E+01 0. -1.
        -13    1    4    4    0    0  0.17537944419E+01 -0.28757443238E+01 -0.14384227814E+01  0.36626166136E+01  0.00000000000E+00 0.  1.
         14    1    4    4    0    0 -0.48010776075E+02 -0.33219135701E+02  0.65998505330E+03  0.66256231116E+03  0.00000000000E+00 0. -1.
         -5    1    5    5    0  502  0.63460541054E+02  0.46802362706E+02  0.13001230291E+03  0.15212820361E+03  0.47000000000E+01 0.  1.
         13    1    6    6    0    0 -0.54794330415E+02  0.84155272852E+01  0.94719778741E+02  0.10975006255E+03  0.00000000000E+00 0. -1.
        -14    1    6    6    0    0 -0.18661792160E+02  0.63060764296E+02  0.22736671904E+03  0.23668660167E+03  0.00000000000E+00 0.  1.
<mgrwt>
<rscale>  2 0.20974085E+03</rscale>
<asrwt>0</asrwt>
<pdfrwt beam="1">  1       21 0.23263527E+00 0.21017517E+03</pdfrwt>
<pdfrwt beam="2">  1       21 0.51861036E-02 0.21017517E+03</pdfrwt>
<totfact> 0.21016570E+04</totfact>
</mgrwt>
</event>
<event>
12    1  0.1013215E-001  0.2258091E+03  0.7546771E-02  0.1129681E+00
         21   -1    0    0  503  502  0.00000000000E+00  0.00000000000E+00  0.33383918457E+03  0.33383918457E+03  0.00000000000E+00 0.  1.
         21   -1    0    0  501  503 -0.00000000000E+00 -0.00000000000E+00 -0.60473229769E+03  0.60473229769E+03  0.00000000000E+00 0. -1.
          6    2    1    2  501    0 -0.11730077633E+03  0.85369171631E+02 -0.54123414842E+03  0.58633007541E+03  0.17263020108E+03 0.  0.
         24    2    3    3    0    0 -0.54732916061E+02  0.95966651740E+02 -0.47696196404E+03  0.49588646089E+03  0.78774212828E+02 0.  0.
         -6    2    1    2    0  502  0.11730077633E+03 -0.85369171631E+02  0.27034103529E+03  0.35224140685E+03  0.17303862500E+03 0.  0.
        -24    2    5    5    0    0  0.58134570549E+02  0.15142290636E+02  0.17887227492E+03  0.20394502093E+03  0.77390978587E+02 0.  0.
          5    1    3    3  501    0 -0.62567860268E+02 -0.10597480109E+02 -0.64272184383E+02  0.90443614526E+02  0.47000000000E+01 0. -1.
        -13    1    4    4    0    0 -0.40602796275E+02  0.43342535694E+01 -0.10822915557E+03  0.11567593930E+03  0.00000000000E+00 0.  1.
         14    1    4    4    0    0 -0.14130119785E+02  0.91632398171E+02 -0.36873280847E+03  0.38021052158E+03  0.00000000000E+00 0. -1.
         -5    1    5    5    0  502  0.59166205780E+02 -0.10051146227E+03  0.91468760371E+02  0.14829638592E+03  0.47000000000E+01 0.  1.
         13    1    6    6    0    0  0.42776977894E+02  0.12395961254E+02  0.28741257726E+02  0.53005561867E+02  0.00000000000E+00 0. -1.
        -14    1    6    6    0    0  0.15357592655E+02  0.27463293828E+01  0.15013101720E+03  0.15093945906E+03  0.00000000000E+00 0.  1.
<mgrwt>
<rscale>  2 0.22573082E+03</rscale>
<asrwt>0</asrwt>
<pdfrwt beam="1">  1       21 0.51359874E-01 0.22580906E+03</pdfrwt>
<pdfrwt beam="2">  1       21 0.93035739E-01 0.22580906E+03</pdfrwt>
<totfact> 0.34129481E+03</totfact>
</mgrwt>
</event>
<event>
12    1  0.1013215E-001  0.1843026E+03  0.7546771E-02  0.1164234E+00
         21   -1    0    0  501  502  0.00000000000E+00  0.00000000000E+00  0.23155010927E+03  0.23155010927E+03  0.00000000000E+00 0.  1.
         21   -1    0    0  502  503 -0.00000000000E+00 -0.00000000000E+00 -0.20712307610E+03  0.20712307610E+03  0.00000000000E+00 0.  1.
         -6    2    1    2    0  503 -0.55496999793E+02 -0.65742145427E+01 -0.10794147480E+03  0.21358560058E+03  0.17562548081E+03 0.  0.
        -24    2    3    3    0    0 -0.81801440415E+01 -0.24197224161E+02  0.12993601858E+02  0.82448885382E+02  0.77308244048E+02 0.  0.
          6    2    1    2  501    0  0.55496999793E+02  0.65742145427E+01  0.13236850797E+03  0.22508758480E+03  0.17326240690E+03 0.  0.
         24    2    5    5    0    0  0.84890461028E+02 -0.10243003074E+02  0.37595616887E+02  0.12433647931E+03  0.82065950270E+02 0.  0.
          5    1    5    5  501    0 -0.29393461235E+02  0.16817217616E+02  0.94772891083E+02  0.10075110548E+03  0.47000000000E+01 0. -1.
        -11    1    6    6    0    0  0.67035299406E+02  0.14929529648E+01  0.62401913912E+02  0.91596720110E+02  0.00000000000E+00 0.  1.
         12    1    6    6    0    0  0.17855161622E+02 -0.11735956038E+02 -0.24806297025E+02  0.32739759205E+02  0.00000000000E+00 0. -1.
         -5    1    3    3    0  503 -0.47316855751E+02  0.17623009619E+02 -0.12093507666E+03  0.13113671520E+03  0.47000000000E+01 0.  1.
         13    1    4    4    0    0 -0.34396243570E+02 -0.38323252466E+02  0.10584750599E+02  0.52571952565E+02  0.00000000000E+00 0. -1.
        -14    1    4    4    0    0  0.26216099528E+02  0.14126028305E+02  0.24088512591E+01  0.29876932817E+02  0.00000000000E+00 0.  1.
<mgrwt>
<rscale>  2 0.18373740E+03</rscale>
<asrwt>0</asrwt>
<pdfrwt beam="1">  1       21 0.35623094E-01 0.18430260E+03</pdfrwt>
<pdfrwt beam="2">  1       21 0.31865088E-01 0.18430260E+03</pdfrwt>
<totfact> 0.72210373E+04</totfact>
</mgrwt>
</event>
<event>
12    1  0.1013215E-001  0.2041897E+03  0.7546771E-02  0.1146357E+00
         21   -1    0    0  501  502  0.00000000000E+00  0.00000000000E+00  0.10695932667E+03  0.10695932667E+03  0.00000000000E+00 0. -1.
         21   -1    0    0  502  503 -0.00000000000E+00 -0.00000000000E+00 -0.40899219231E+03  0.40899219231E+03  0.00000000000E+00 0. -1.
         -6    2    1    2    0  503 -0.36919283120E+02 -0.10079860957E+03 -0.20811383794E+03  0.29119779783E+03  0.17309360117E+03 0.  0.
        -24    2    3    3    0    0  0.41246342116E+02 -0.38678962840E+02 -0.62132683102E+02  0.11427605512E+03  0.77467564570E+02 0.  0.
          6    2    1    2  501    0  0.36919283120E+02  0.10079860957E+03 -0.93919027708E+02  0.22475372115E+03  0.17369530290E+03 0.  0.
         24    2    5    5    0    0  0.61716959714E+02  0.44843246248E+02 -0.11369658028E+03  0.16026210127E+03  0.83289428413E+02 0.  0.
          5    1    5    5  501    0 -0.24797676595E+02  0.55955363320E+02  0.19777552576E+02  0.64491619879E+02  0.47000000000E+01 0. -1.
        -11    1    6    6    0    0  0.28066859671E+02  0.39045694081E+02 -0.11646753830E+03  0.12600397738E+03  0.00000000000E+00 0.  1.
         12    1    6    6    0    0  0.33650100043E+02  0.57975521666E+01  0.27709580188E+01  0.34258123889E+02  0.00000000000E+00 0. -1.
         -5    1    3    3    0  503 -0.78165625235E+02 -0.62119646728E+02 -0.14598115483E+03  0.17692174271E+03  0.47000000000E+01 0.  1.
         11    1    4    4    0    0  0.17357331226E+02 -0.54687875419E+02 -0.63378545363E+02  0.85491991891E+02  0.00000000000E+00 0. -1.
        -12    1    4    4    0    0  0.23889010890E+02  0.16008912579E+02  0.12458622611E+01  0.28784063230E+02  0.00000000000E+00 0.  1.
<mgrwt>
<rscale>  2 0.20406172E+03</rscale>
<asrwt>0</asrwt>
<pdfrwt beam="1">  1       21 0.16455281E-01 0.20418974E+03</pdfrwt>
<pdfrwt beam="2">  1       21 0.62921876E-01 0.20418974E+03</pdfrwt>
<totfact> 0.77068154E+04</totfact>
</mgrwt>
</event>
<event>
12    1  0.1013215E-001  0.1773609E+03  0.7546771E-02  0.1170982E+00
         21   -1    0    0  503  502  0.00000000000E+00  0.00000000000E+00  0.10219954542E+04  0.10219954542E+04  0.00000000000E+00 0. -1.
         21   -1    0    0  501  503 -0.00000000000E+00 -0.00000000000E+00 -0.30410678350E+02  0.30410678350E+02  0.00000000000E+00 0. -1.
          6    2    1    2  501    0 -0.26278744311E+02 -0.27257483674E+02  0.47818710078E+03  0.51001940501E+03  0.17327246557E+03 0.  0.
         24    2    3    3    0    0 -0.53021687359E+02  0.35938058425E+02  0.23190182622E+03  0.25430982755E+03  0.82414731758E+02 0.  0.
         -6    2    1    2    0  502  0.26278744311E+02  0.27257483674E+02  0.51339767512E+03  0.54238672758E+03  0.17080001937E+03 0.  0.
        -24    2    5    5    0    0  0.49914160801E+01  0.67197759872E+02  0.45841741897E+03  0.47101940612E+03  0.84689419418E+02 0.  0.
          5    1    3    3  501    0  0.26742943048E+02 -0.63195542099E+02  0.24628527455E+03  0.25570957746E+03  0.47000000000E+01 0. -1.
        -11    1    4    4    0    0 -0.11445475338E+02  0.19044384657E+02  0.19485203662E+03  0.19611477167E+03  0.00000000000E+00 0.  1.
         12    1    4    4    0    0 -0.41576212021E+02  0.16893673769E+02  0.37049789602E+02  0.58195055881E+02  0.00000000000E+00 0. -1.
         -5    1    5    5    0  502  0.21287328231E+02 -0.39940276198E+02  0.54980256152E+02  0.71367321461E+02  0.47000000000E+01 0.  1.
         11    1    6    6    0    0  0.43497285943E+02  0.45336891179E+02  0.30135542435E+03  0.30783524712E+03  0.00000000000E+00 0. -1.
        -12    1    6    6    0    0 -0.38505869863E+02  0.21860868693E+02  0.15706199462E+03  0.16318415900E+03  0.00000000000E+00 0.  1.
<mgrwt>
<rscale>  2 0.17675413E+03</rscale>
<asrwt>0</asrwt>
<pdfrwt beam="1">  1       21 0.15723004E+00 0.17736090E+03</pdfrwt>
<pdfrwt beam="2">  1       21 0.46785667E-02 0.17736090E+03</pdfrwt>
<totfact> 0.80038898E+04</totfact>
</mgrwt>
</event>
<event>
12    1  0.1013215E-001  0.2151811E+03  0.7546771E-02  0.1137907E+00
         21   -1    0    0  503  502  0.00000000000E+00  0.00000000000E+00  0.20943524694E+03  0.20943524694E+03  0.00000000000E+00 0.  1.
         21   -1    0    0  501  503 -0.00000000000E+00 -0.00000000000E+00 -0.29933013092E+03  0.29933013092E+03  0.00000000000E+00 0.  1.
          6    2    1    2  501    0 -0.11271690462E+03 -0.63831527208E+02 -0.17652096480E+03  0.27680203954E+03  0.16935215861E+03 0.  0.
         24    2    3    3    0    0 -0.63616702437E+02 -0.94702373393E+02 -0.69557188889E+02  0.15503513781E+03  0.78626122092E+02 0.  0.
         -6    2    1    2    0  502  0.11271690462E+03  0.63831527208E+02  0.86626080816E+02  0.23196333832E+03  0.17182359557E+03 0.  0.
        -24    2    5    5    0    0  0.13654211811E+03  0.14286854382E+02  0.78322774050E+02  0.17616593420E+03  0.77795341822E+02 0.  0.
          5    1    3    3  501    0 -0.49100202178E+02  0.30870846184E+02 -0.10696377591E+03  0.12176690172E+03  0.47000000000E+01 0. -1.
        -11    1    4    4    0    0 -0.57309692273E+02 -0.82695488328E+02 -0.86950745297E+02  0.13297885819E+03  0.00000000000E+00 0.  1.
         12    1    4    4    0    0 -0.63070101643E+01 -0.12006885065E+02  0.17393556408E+02  0.22056279621E+02  0.00000000000E+00 0. -1.
         -5    1    5    5    0  502 -0.23825213499E+02  0.49544672827E+02  0.83033067667E+01  0.55797404125E+02  0.47000000000E+01 0.  1.
         11    1    6    6    0    0  0.49987327440E+02 -0.30339271356E+02  0.16274792204E+02  0.60696566231E+02  0.00000000000E+00 0. -1.
        -12    1    6    6    0    0  0.86554790675E+02  0.44626125738E+02  0.62047981846E+02  0.11546936797E+03  0.00000000000E+00 0.  1.
<mgrwt>
<rscale>  2 0.21468735E+03</rscale>
<asrwt>0</asrwt>
<pdfrwt beam="1">  1       21 0.32220808E-01 0.21518112E+03</pdfrwt>
<pdfrwt beam="2">  1       21 0.46050789E-01 0.21518112E+03</pdfrwt>
<totfact> 0.41403661E+04</totfact>
</mgrwt>
</event>
<event>
12    1  0.1013215E-001  0.1756375E+03  0.7546771E-02  0.1172184E+00
         21   -1    0    0  501  502  0.00000000000E+00  0.00000000000E+00  0.55607433574E+02  0.55607433574E+02  0.00000000000E+00 0. -1.
         21   -1    0    0  502  503 -0.00000000000E+00 -0.00000000000E+00 -0.75207898423E+03  0.75207898423E+03  0.00000000000E+00 0. -1.
         -6    2    1    2    0  503  0.26944280429E+02  0.15115145391E+02 -0.55542801485E+03  0.58242700501E+03  0.17252963401E+03 0.  0.
        -24    2    3    3    0    0 -0.34835250198E+02  0.43881217504E+02 -0.35906157965E+03  0.37451821687E+03  0.90551758035E+02 0.  0.
          6    2    1    2  501    0 -0.26944280429E+02 -0.15115145391E+02 -0.14104353581E+03  0.22525941280E+03  0.17289899420E+03 0.  0.
         24    2    5    5    0    0 -0.38746742882E+00  0.32309083167E+02 -0.15997857128E+02  0.88830553949E+02  0.81184412888E+02 0.  0.
          5    1    5    5  501    0 -0.26556813000E+02 -0.47424228558E+02 -0.12504567868E+03  0.13642885885E+03  0.47000000000E+01 0. -1.
        -11    1    6    6    0    0 -0.85621423235E+00 -0.10848001936E+00 -0.45193291969E+02  0.45201532162E+02  0.00000000000E+00 0.  1.
         12    1    6    6    0    0  0.46874680353E+00  0.32417563187E+02  0.29195434841E+02  0.43629021787E+02  0.00000000000E+00 0. -1.
         -5    1    3    3    0  503  0.61779530628E+02 -0.28766072113E+02 -0.19636643520E+03  0.20790878813E+03  0.47000000000E+01 0.  1.
         13    1    4    4    0    0  0.85873406862E+01  0.13080490620E+02 -0.27213668003E+03  0.27258615935E+03  0.00000000000E+00 0. -1.
        -14    1    4    4    0    0 -0.43422590885E+02  0.30800726884E+02 -0.86924899620E+02  0.10193205752E+03  0.00000000000E+00 0.  1.
<mgrwt>
<rscale>  2 0.17554651E+03</rscale>
<asrwt>0</asrwt>
<pdfrwt beam="1">  1       21 0.85549898E-02 0.17563748E+03</pdfrwt>
<pdfrwt beam="2">  1       21 0.11570446E+00 0.17563748E+03</pdfrwt>
<totfact> 0.62177297E+04</totfact>
</mgrwt>
</event>
<event>
12    1  0.1013215E-001  0.1756402E+03  0.7546771E-02  0.1172289E+00
         21   -1    0    0  501  502  0.00000000000E+00  0.00000000000E+00  0.42006657021E+03  0.42006657021E+03  0.00000000000E+00 0.  1.
         21   -1    0    0  502  503 -0.00000000000E+00 -0.00000000000E+00 -0.78001067006E+02  0.78001067006E+02  0.00000000000E+00 0.  1.
         -6    2    1    2    0  503  0.24817722214E+02 -0.95404747081E+00  0.10902589747E+03  0.20672714916E+03  0.17387535288E+03 0.  0.
        -24    2    3    3    0    0 -0.40639557336E+02 -0.39253027376E+02  0.71344915473E+02  0.12191315437E+03  0.81119334724E+02 0.  0.
          6    2    1    2  501    0 -0.24817722214E+02  0.95404747081E+00  0.23303960572E+03  0.29134048805E+03  0.17307510681E+03 0.  0.
         24    2    5    5    0    0 -0.24897276767E+02 -0.32601034569E+02  0.45438524190E+02  0.10070417028E+03  0.79962294777E+02 0.  0.
          5    1    5    5  501    0  0.79554553235E-01  0.33555082040E+02  0.18760108153E+03  0.19063631777E+03  0.47000000000E+01 0. -1.
        -11    1    6    6    0    0 -0.36857514153E+02  0.15733529557E+02  0.20656007395E+02  0.45085373941E+02  0.00000000000E+00 0.  1.
         12    1    6    6    0    0  0.11960237386E+02 -0.48334564127E+02  0.24782516795E+02  0.55618796340E+02  0.00000000000E+00 0. -1.
         -5    1    3    3    0  503  0.65457279549E+02  0.38298979905E+02  0.37680982001E+02  0.84813994791E+02  0.47000000000E+01 0.  1.
         11    1    4    4    0    0 -0.89896023335E+01  0.45165880965E+01 -0.16186192270E+02  0.19057946855E+02  0.00000000000E+00 0. -1.
        -12    1    4    4    0    0 -0.31649955002E+02 -0.43769615473E+02  0.87531107743E+02  0.10285520752E+03  0.00000000000E+00 0.  1.
<mgrwt>
<rscale>  2 0.17544179E+03</rscale>
<asrwt>0</asrwt>
<pdfrwt beam="1">  1       21 0.64625625E-01 0.17564017E+03</pdfrwt>
<pdfrwt beam="2">  1       21 0.12000164E-01 0.17564017E+03</pdfrwt>
<totfact> 0.13029246E+05</totfact>
</mgrwt>
</event>
<event>
12    1  0.1013215E-001  0.1851885E+03  0.7546771E-02  0.1162909E+00
         21   -1    0    0  501  502  0.00000000000E+00  0.00000000000E+00  0.53259901795E+03  0.53259901795E+03  0.00000000000E+00 0.  1.
         21   -1    0    0  502  503 -0.00000000000E+00 -0.00000000000E+00 -0.26974653043E+03  0.26974653043E+03  0.00000000000E+00 0.  1.
         -6    2    1    2    0  503 -0.37987962166E+00 -0.65566244548E+02 -0.21866124195E+03  0.28644803741E+03  0.17303370387E+03 0.  0.
        -24    2    3    3    0    0 -0.66364053566E+02 -0.26523821564E+02 -0.13945239775E+03  0.17611058682E+03  0.80375785144E+02 0.  0.
          6    2    1    2  501    0  0.37987962166E+00  0.65566244548E+02  0.48151372947E+03  0.51589751097E+03  0.17319264830E+03 0.  0.
         24    2    5    5    0    0 -0.21210842314E+02  0.10369420217E+03  0.41809984520E+03  0.43867503273E+03  0.80161813840E+02 0.  0.
          5    1    5    5  501    0  0.21590721936E+02 -0.38127957618E+02  0.63413884273E+02  0.77222478233E+02  0.47000000000E+01 0. -1.
        -11    1    6    6    0    0 -0.48906755921E+02  0.44139258780E+02  0.23892924925E+03  0.24784537738E+03  0.00000000000E+00 0.  1.
         12    1    6    6    0    0  0.27695913607E+02  0.59554943387E+02  0.17917059594E+03  0.19082965536E+03  0.00000000000E+00 0. -1.
         -5    1    3    3    0  503  0.65984173944E+02 -0.39042422985E+02 -0.79208844200E+02  0.11033745059E+03  0.47000000000E+01 0.  1.
         11    1    4    4    0    0  0.14425852850E+01  0.22692979068E+02 -0.40538750090E+02  0.46480561637E+02  0.00000000000E+00 0. -1.
        -12    1    4    4    0    0 -0.67806638851E+02 -0.49216800631E+02 -0.98913647656E+02  0.12963002518E+03  0.00000000000E+00 0.  1.
<mgrwt>
<rscale>  2 0.18515130E+03</rscale>
<asrwt>0</asrwt>
<pdfrwt beam="1">  1       21 0.81938311E-01 0.18518847E+03</pdfrwt>
<pdfrwt beam="2">  1       21 0.41499466E-01 0.18518847E+03</pdfrwt>
<totfact> 0.73235817E+03</totfact>
</mgrwt>
</event>
<event>
12    1  0.1013215E-001  0.2000819E+03  0.7546771E-02  0.1149899E+00
         21   -1    0    0  501  502  0.00000000000E+00  0.00000000000E+00  0.15692745646E+03  0.15692745646E+03  0.00000000000E+00 0. -1.
         21   -1    0    0  502  503 -0.00000000000E+00 -0.00000000000E+00 -0.37506876058E+03  0.37506876058E+03  0.00000000000E+00 0.  1.
         -6    2    1    2    0  503  0.69197739838E+02  0.64913293864E+02 -0.26056926052E+03  0.32852566232E+03  0.17615535291E+03 0.  0.
        -24    2    3    3    0    0  0.95079463292E+02  0.92686737230E+02 -0.23863435169E+03  0.28442965354E+03  0.79516906426E+02 0.  0.
          6    2    1    2  501    0 -0.69197739838E+02 -0.64913293864E+02  0.42427956392E+02  0.20347055472E+03  0.17492304661E+03 0.  0.
         24    2    5    5    0    0 -0.43275418414E+02 -0.31716503145E+02 -0.44404518926E+02  0.10684777049E+03  0.81030774074E+02 0.  0.
          5    1    5    5  501    0 -0.25922321424E+02 -0.33196790719E+02  0.86832475318E+02  0.96622784227E+02  0.47000000000E+01 0. -1.
        -11    1    6    6    0    0  0.29133361331E+01 -0.47977512612E+02 -0.24966795653E+02  0.54163365193E+02  0.00000000000E+00 0.  1.
         12    1    6    6    0    0 -0.46188754547E+02  0.16261009467E+02 -0.19437723273E+02  0.52684405297E+02  0.00000000000E+00 0. -1.
         -5    1    3    3    0  503 -0.25881723454E+02 -0.27773443366E+02 -0.21934908832E+02  0.44096008786E+02  0.47000000000E+01 0.  1.
         13    1    4    4    0    0  0.93636598063E+02  0.53434336347E+02 -0.12985572782E+03  0.16877663003E+03  0.00000000000E+00 0. -1.
        -14    1    4    4    0    0  0.14428652290E+01  0.39252400883E+02 -0.10877862387E+03  0.11565302350E+03  0.00000000000E+00 0.  1.
<mgrwt>
<rscale>  2 0.19981034E+03</rscale>
<asrwt>0</asrwt>
<pdfrwt beam="1">  1       21 0.24142686E-01 0.20008191E+03</pdfrwt>
<pdfrwt beam="2">  1       21 0.57702886E-01 0.20008191E+03</pdfrwt>
<totfact> 0.45432480E+04</totfact>
</mgrwt>
</event>
<event>
12    1  0.1013215E-001  0.2270539E+03  0.7546771E-02  0.1129048E+00
         21   -1    0    0  501  502  0.00000000000E+00  0.00000000000E+00  0.10751155166E+03  0.10751155166E+03  0.00000000000E+00 0.  1.
         21   -1    0    0  502  503 -0.00000000000E+00 -0.00000000000E+00 -0.51520396583E+03  0.51520396583E+03  0.00000000000E+00 0.  1.
         -6    2    1    2    0  503 -0.14535323813E+03 -0.17588350167E+02 -0.28922821389E+03  0.36661544365E+03  0.17122210698E+03 0.  0.
        -24    2    3    3    0    0 -0.96366859950E+02 -0.35191375786E+01 -0.74364182817E+02  0.14573934753E+03  0.80068531315E+02 0.  0.
          6    2    1    2  501    0  0.14535323813E+03  0.17588350167E+02 -0.11846420029E+03  0.25610007384E+03  0.17354125497E+03 0.  0.
         24    2    5    5    0    0  0.16629681006E+03  0.40646056605E+02 -0.11821287858E+03  0.22459699154E+03  0.84633285365E+02 0.  0.
          5    1    5    5  501    0 -0.20943571936E+02 -0.23057706438E+02 -0.25132170179E+00  0.31503082297E+02  0.47000000000E+01 0. -1.
        -13    1    6    6    0    0  0.39926256734E+02 -0.11864017794E+02  0.30377079891E+01  0.41762286394E+02  0.00000000000E+00 0.  1.
         14    1    6    6    0    0  0.12637055333E+03  0.52510074399E+02 -0.12125058657E+03  0.18283470515E+03  0.00000000000E+00 0. -1.
         -5    1    3    3    0  503 -0.48986378177E+02 -0.14069212589E+02 -0.21486403107E+03  0.22087609612E+03  0.47000000000E+01 0.  1.
         11    1    4    4    0    0  0.92460708622E+00  0.19735381384E+02 -0.30891876196E+02  0.36669444931E+02  0.00000000000E+00 0. -1.
        -12    1    4    4    0    0 -0.97291467037E+02 -0.23254518963E+02 -0.43472306621E+02  0.10906990260E+03  0.00000000000E+00 0.  1.
<mgrwt>
<rscale>  2 0.22661072E+03</rscale>
<asrwt>0</asrwt>
<pdfrwt beam="1">  1       21 0.16540239E-01 0.22705392E+03</pdfrwt>
<pdfrwt beam="2">  1       21 0.79262149E-01 0.22705392E+03</pdfrwt>
<totfact> 0.45309561E+04</totfact>
</mgrwt>
</event>
<event>
12    1  0.1013215E-001  0.1919184E+03  0.7546771E-02  0.1156829E+00
         21   -1    0    0  501  502  0.00000000000E+00  0.00000000000E+00  0.34897147477E+03  0.34897147477E+03  0.00000000000E+00 0.  1.
         21   -1    0    0  502  503 -0.00000000000E+00 -0.00000000000E+00 -0.10705754608E+03  0.10705754608E+03  0.00000000000E+00 0.  1.
         -6    2    1    2    0  503  0.30308294350E+01 -0.80647995192E+02  0.91894782775E+02  0.21243427642E+03  0.17369624533E+03 0.  0.
        -24    2    3    3    0    0  0.17955002241E+01 -0.12585473406E+03  0.88105341175E+02  0.16680944607E+03  0.64963083731E+02 0.  0.
          6    2    1    2  501    0 -0.30308294350E+01  0.80647995192E+02  0.15001914591E+03  0.24359474443E+03  0.17412458275E+03 0.  0.
         24    2    5    5    0    0  0.66496445822E+02  0.48756563566E+02  0.78371171438E+02  0.13868226823E+03  0.79320559834E+02 0.  0.
          5    1    5    5  501    0 -0.69527275257E+02  0.31891431626E+02  0.71647974473E+02  0.10491247620E+03  0.47000000000E+01 0. -1.
        -11    1    6    6    0    0  0.50265340954E+02  0.70232027859E+02  0.51041284814E+02  0.10032125893E+03  0.00000000000E+00 0.  1.
         12    1    6    6    0    0  0.16231104868E+02 -0.21475464292E+02  0.27329886624E+02  0.38361009302E+02  0.00000000000E+00 0. -1.
         -5    1    3    3    0  503  0.12353292110E+01  0.45206738864E+02  0.37894415997E+01  0.45624830352E+02  0.47000000000E+01 0.  1.
         11    1    4    4    0    0  0.75130877630E+01 -0.15305991391E+01  0.27181358752E+02  0.28242087123E+02  0.00000000000E+00 0. -1.
        -12    1    4    4    0    0 -0.57175875389E+01 -0.12432413492E+03  0.60923982423E+02  0.13856735894E+03  0.00000000000E+00 0.  1.
<mgrwt>
<rscale>  2 0.19182115E+03</rscale>
<asrwt>0</asrwt>
<pdfrwt beam="1">  1       21 0.53687919E-01 0.19191836E+03</pdfrwt>
<pdfrwt beam="2">  1       21 0.16470392E-01 0.19191836E+03</pdfrwt>
<totfact> 0.10856502E+05</totfact>
</mgrwt>
</event>
<event>
12    1  0.1013215E-001  0.1794369E+03  0.7546771E-02  0.1168451E+00
         21   -1    0    0  503  502  0.00000000000E+00  0.00000000000E+00  0.24079728816E+03  0.24079728816E+03  0.00000000000E+00 0. -1.
         21   -1    0    0  501  503 -0.00000000000E+00 -0.00000000000E+00 -0.13562982319E+03  0.13562982319E+03  0.00000000000E+00 0. -1.
          6    2    1    2  501    0 -0.11127578855E+02  0.46592749788E+02  0.28395138493E+02  0.18125648090E+03  0.17249034940E+03 0.  0.
         24    2    3    3    0    0 -0.50133162055E+02  0.71218073729E+02  0.52064932954E+02  0.12919698350E+03  0.79973466468E+02 0.  0.
         -6    2    1    2    0  502  0.11127578855E+02 -0.46592749788E+02  0.76772326479E+02  0.19517063044E+03  0.17292448505E+03 0.  0.
        -24    2    5    5    0    0 -0.47125824459E+02 -0.25217253523E+02  0.90259786995E+02  0.13149667635E+03  0.79295608558E+02 0.  0.
          5    1    3    3  501    0  0.39005583200E+02 -0.24625323941E+02 -0.23669794461E+02  0.52059497403E+02  0.47000000000E+01 0. -1.
        -13    1    4    4    0    0 -0.43964990845E+02  0.34368766343E+02 -0.10058780784E+02  0.56703717610E+02  0.00000000000E+00 0.  1.
         14    1    4    4    0    0 -0.61681712101E+01  0.36849307386E+02  0.62123713738E+02  0.72493265891E+02  0.00000000000E+00 0. -1.
         -5    1    5    5    0  502  0.58253403313E+02 -0.21375496265E+02 -0.13487460517E+02  0.63673954089E+02  0.47000000000E+01 0.  1.
         11    1    6    6    0    0 -0.64300426071E+02 -0.33127022181E+02  0.52859674041E+02  0.89588445300E+02  0.00000000000E+00 0. -1.
        -12    1    6    6    0    0  0.17174601613E+02  0.79097686580E+01  0.37400112954E+02  0.41908231050E+02  0.00000000000E+00 0.  1.
<mgrwt>
<rscale>  2 0.17933218E+03</rscale>
<asrwt>0</asrwt>
<pdfrwt beam="1">  1       21 0.37045737E-01 0.17943685E+03</pdfrwt>
<pdfrwt beam="2">  1       21 0.20866127E-01 0.17943685E+03</pdfrwt>
<totfact> 0.15048013E+05</totfact>
</mgrwt>
</event>
<event>
12    1  0.1013215E-001  0.1737796E+03  0.7546771E-02  0.1174170E+00
         21   -1    0    0  503  502  0.00000000000E+00  0.00000000000E+00  0.67462084334E+03  0.67462084334E+03  0.00000000000E+00 0. -1.
         21   -1    0    0  501  503 -0.00000000000E+00 -0.00000000000E+00 -0.67198455972E+02  0.67198455972E+02  0.00000000000E+00 0. -1.
          6    2    1    2  501    0  0.14650407730E+02 -0.18199022724E+02  0.88876138121E+02  0.19518788473E+03  0.17220192666E+03 0.  0.
         24    2    3    3    0    0  0.11223854694E+02  0.35541068998E+02  0.10021761124E+03  0.13995693565E+03  0.90306321670E+02 0.  0.
         -6    2    1    2    0  502 -0.14650407730E+02  0.18199022724E+02  0.51854624925E+03  0.54663141458E+03  0.17137634587E+03 0.  0.
        -24    2    5    5    0    0  0.26031734128E+02  0.35416549554E+02  0.47723635968E+03  0.48596777743E+03  0.80486983640E+02 0.  0.
          5    1    3    3  501    0  0.34265530367E+01 -0.53740091723E+02 -0.11341473122E+02  0.55230949083E+02  0.47000000000E+01 0. -1.
        -11    1    4    4    0    0  0.27276965201E+02 -0.23808346251E+02  0.36323780079E+02  0.51286325478E+02  0.00000000000E+00 0.  1.
         12    1    4    4    0    0 -0.16053110507E+02  0.59349415250E+02  0.63893831163E+02  0.88670610171E+02  0.00000000000E+00 0. -1.
         -5    1    5    5    0  502 -0.40682141859E+02 -0.17217526829E+02  0.41309889569E+02  0.60663637152E+02  0.47000000000E+01 0.  1.
         13    1    6    6    0    0  0.28153681802E+02  0.42787900571E+01  0.41838382534E+03  0.41935183694E+03  0.00000000000E+00 0. -1.
        -14    1    6    6    0    0 -0.21219476737E+01  0.31137759497E+02  0.58852534341E+02  0.66615940486E+02  0.00000000000E+00 0.  1.
<mgrwt>
<rscale>  2 0.17357471E+03</rscale>
<asrwt>0</asrwt>
<pdfrwt beam="1">  1       21 0.10378782E+00 0.17377958E+03</pdfrwt>
<pdfrwt beam="2">  1       21 0.10338224E-01 0.17377958E+03</pdfrwt>
<totfact> 0.58011627E+04</totfact>
</mgrwt>
</event>
<event>
12    1  0.1013215E-001  0.2362385E+03  0.7546771E-02  0.1122485E+00
         21   -1    0    0  503  502  0.00000000000E+00  0.00000000000E+00  0.95679970460E+03  0.95679970460E+03  0.00000000000E+00 0.  1.
         21   -1    0    0  501  503 -0.00000000000E+00 -0.00000000000E+00 -0.23693257557E+03  0.23693257557E+03  0.00000000000E+00 0. -1.
          6    2    1    2  501    0  0.12140344330E+02  0.16006367872E+03 -0.15879415321E+03  0.28386730394E+03  0.17203864087E+03 0.  0.
         24    2    3    3    0    0 -0.25817488873E+02  0.55877656502E+02 -0.14491732179E+02  0.10182114760E+03  0.79804013487E+02 0.  0.
         -6    2    1    2    0  502 -0.12140344330E+02 -0.16006367872E+03  0.87866128224E+03  0.90986497623E+03  0.17332298422E+03 0.  0.
        -24    2    5    5    0    0 -0.20548250598E+01 -0.48771372475E+01  0.24385610291E+03  0.25627161177E+03  0.78621443027E+02 0.  0.
          5    1    3    3  501    0  0.37957833203E+02  0.10418602221E+03 -0.14430242103E+03  0.18204615635E+03  0.47000000000E+01 0. -1.
        -13    1    4    4    0    0 -0.44707788640E+02  0.57553953780E+02 -0.28490792743E+02  0.78249404036E+02  0.00000000000E+00 0.  1.
         14    1    4    4    0    0  0.18890299767E+02 -0.16762972779E+01  0.13999060564E+02  0.23571743562E+02  0.00000000000E+00 0. -1.
         -5    1    5    5    0  502 -0.10085519270E+02 -0.15518654147E+03  0.63480517933E+03  0.65359336446E+03  0.47000000000E+01 0.  1.
         13    1    6    6    0    0  0.23207796656E+02 -0.17241926299E+02  0.34402250354E+02  0.44937742239E+02  0.00000000000E+00 0. -1.
        -14    1    6    6    0    0 -0.25262621716E+02  0.12364789051E+02  0.20945385255E+03  0.21133386954E+03  0.00000000000E+00 0.  1.
<mgrwt>
<rscale>  2 0.23600297E+03</rscale>
<asrwt>0</asrwt>
<pdfrwt beam="1">  1       21 0.14719995E+00 0.23623849E+03</pdfrwt>
<pdfrwt beam="2">  1       21 0.36451166E-01 0.23623849E+03</pdfrwt>
<totfact> 0.21945450E+03</totfact>
</mgrwt>
</event>
<event>
12    1  0.1013215E-001  0.3037057E+03  0.7546771E-02  0.1083410E+00
         21   -1    0    0  501  502  0.00000000000E+00  0.00000000000E+00  0.36907739251E+03  0.36907739251E+03  0.00000000000E+00 0. -1.
         21   -1    0    0  502  503 -0.00000000000E+00 -0.00000000000E+00 -0.37811448821E+03  0.37811448821E+03  0.00000000000E+00 0. -1.
         -6    2    1    2    0  503 -0.24482127539E+03 -0.46984046339E+02 -0.22209670075E+03  0.37625005650E+03  0.17347104381E+03 0.  0.
        -24    2    3    3    0    0 -0.17379860930E+03 -0.95362774113E+02 -0.12895378632E+03  0.24943360288E+03  0.79297086717E+02 0.  0.
          6    2    1    2  501    0  0.24482127539E+03  0.46984046339E+02  0.21305960504E+03  0.37094182422E+03  0.17337382778E+03 0.  0.
         24    2    5    5    0    0  0.16147639247E+03  0.93462293480E+02  0.11279404512E+03  0.23244319797E+03  0.80607183551E+02 0.  0.
          5    1    5    5  501    0  0.83344882921E+02 -0.46478247142E+02  0.10026555992E+03  0.13849862625E+03  0.47000000000E+01 0. -1.
        -11    1    6    6    0    0  0.30675155586E+02  0.27319343622E+02  0.67525857498E+02  0.79038301709E+02  0.00000000000E+00 0.  1.
         12    1    6    6    0    0  0.13080123688E+03  0.66142949858E+02  0.45268187623E+02  0.15340489626E+03  0.00000000000E+00 0. -1.
         -5    1    3    3    0  503 -0.71022666092E+02  0.48378727775E+02 -0.93142914428E+02  0.12681645362E+03  0.47000000000E+01 0.  1.
         11    1    4    4    0    0 -0.94203667117E+02 -0.85822027258E+02 -0.49930629885E+02  0.13686788908E+03  0.00000000000E+00 0. -1.
        -12    1    4    4    0    0 -0.79594942180E+02 -0.95407468556E+01 -0.79023156434E+02  0.11256571380E+03  0.00000000000E+00 0.  1.
<mgrwt>
<rscale>  2 0.30369183E+03</rscale>
<asrwt>0</asrwt>
<pdfrwt beam="1">  1       21 0.56781138E-01 0.30370571E+03</pdfrwt>
<pdfrwt beam="2">  1       21 0.58171459E-01 0.30370571E+03</pdfrwt>
<totfact> 0.75633900E+03</totfact>
</mgrwt>
</event>
<event>
12    1  0.1013215E-001  0.1793740E+03  0.7546771E-02  0.1168571E+00
         21   -1    0    0  503  502  0.00000000000E+00  0.00000000000E+00  0.18234860001E+03  0.18234860001E+03  0.00000000000E+00 0. -1.
         21   -1    0    0  501  503 -0.00000000000E+00 -0.00000000000E+00 -0.21921960408E+03  0.21921960408E+03  0.00000000000E+00 0. -1.
          6    2    1    2  501    0 -0.11829293602E+02 -0.41057051073E+02 -0.10776739504E+03  0.20869178353E+03  0.17353050293E+03 0.  0.
         24    2    3    3    0    0 -0.11401695599E+01 -0.46063053232E+02  0.76192236651E+01  0.92607851796E+02  0.79969098940E+02 0.  0.
         -6    2    1    2    0  502  0.11829293602E+02  0.41057051073E+02  0.70896390974E+02  0.19287642056E+03  0.17421079681E+03 0.  0.
        -24    2    5    5    0    0 -0.77088525348E+01  0.77142302996E+02  0.97688927224E+00  0.11166859286E+03  0.80365160367E+02 0.  0.
          5    1    3    3  501    0 -0.10689124042E+02  0.50060021587E+01 -0.11538661870E+03  0.11608393173E+03  0.47000000000E+01 0. -1.
        -13    1    4    4    0    0 -0.38174543657E+02 -0.37054661562E+02  0.11060536978E+02  0.54338560941E+02  0.00000000000E+00 0.  1.
         14    1    4    4    0    0  0.37034374097E+02 -0.90083916699E+01 -0.34413133128E+01  0.38269290855E+02  0.00000000000E+00 0. -1.
         -5    1    5    5    0  502  0.19538146137E+02 -0.36085251923E+02  0.69919501702E+02  0.81207827696E+02  0.47000000000E+01 0.  1.
         13    1    6    6    0    0  0.13098542177E+02 -0.13401103339E+02  0.98395731660E+00  0.18765115237E+02  0.00000000000E+00 0. -1.
        -14    1    6    6    0    0 -0.20807394711E+02  0.90543406335E+02 -0.70680443620E-02  0.92903477628E+02  0.00000000000E+00 0.  1.
<mgrwt>
<rscale>  2 0.17920857E+03</rscale>
<asrwt>0</asrwt>
<pdfrwt beam="1">  1       21 0.28053631E-01 0.17937395E+03</pdfrwt>
<pdfrwt beam="2">  1       21 0.33726093E-01 0.17937395E+03</pdfrwt>
<totfact> 0.10330849E+05</totfact>
</mgrwt>
</event>
<event>
12    1  0.1013215E-001  0.1836568E+03  0.7546771E-02  0.1164534E+00
         21   -1    0    0  501  502  0.00000000000E+00  0.00000000000E+00  0.21643948736E+03  0.21643948736E+03  0.00000000000E+00 0.  1.
         21   -1    0    0  502  503 -0.00000000000E+00 -0.00000000000E+00 -0.58963645681E+03  0.58963645681E+03  0.00000000000E+00 0.  1.
         -6    2    1    2    0  503 -0.16892437166E+02  0.56996473417E+02 -0.53274377375E+03  0.56351197509E+03  0.17376957498E+03 0.  0.
        -24    2    3    3    0    0  0.27253984770E+02  0.22408723018E+01 -0.14739000650E+03  0.17176371618E+03  0.83852006460E+02 0.  0.
          6    2    1    2  501    0  0.16892437166E+02 -0.56996473417E+02  0.15954680430E+03  0.24256396908E+03  0.17276615386E+03 0.  0.
         24    2    5    5    0    0 -0.22525178584E+02 -0.46458242133E+02  0.21083100995E+02  0.98137206043E+02  0.80750616902E+02 0.  0.
          5    1    5    5  501    0  0.39417615751E+02 -0.10538231285E+02  0.13846370330E+03  0.14442676304E+03  0.47000000000E+01 0. -1.
        -13    1    6    6    0    0 -0.12186918846E+02 -0.69514471322E+02  0.15876192600E+02  0.72338345334E+02  0.00000000000E+00 0.  1.
         14    1    6    6    0    0 -0.10338259739E+02  0.23056229189E+02  0.52069083947E+01  0.25798860709E+02  0.00000000000E+00 0. -1.
         -5    1    3    3    0  503 -0.44146421936E+02  0.54755601116E+02 -0.38535376725E+03  0.39174825891E+03  0.47000000000E+01 0.  1.
         13    1    4    4    0    0 -0.12474842721E+02  0.26406874483E+02 -0.18084899193E+02  0.34351248881E+02  0.00000000000E+00 0. -1.
        -14    1    4    4    0    0  0.39728827490E+02 -0.24166002181E+02 -0.12930510730E+03  0.13741246730E+03  0.00000000000E+00 0.  1.
<mgrwt>
<rscale>  2 0.18341905E+03</rscale>
<asrwt>0</asrwt>
<pdfrwt beam="1">  1       21 0.33298383E-01 0.18365679E+03</pdfrwt>
<pdfrwt beam="2">  1       21 0.90713300E-01 0.18365679E+03</pdfrwt>
<totfact> 0.90168359E+03</totfact>
</mgrwt>
</event>
<event>
12    1  0.1013215E-001  0.1772470E+03  0.7546771E-02  0.1170727E+00
         21   -1    0    0  503  502  0.00000000000E+00  0.00000000000E+00  0.47397436200E+02  0.47397436200E+02  0.00000000000E+00 0. -1.
         21   -1    0    0  501  503 -0.00000000000E+00 -0.00000000000E+00 -0.75408658881E+03  0.75408658881E+03  0.00000000000E+00 0. -1.
          6    2    1    2  501    0 -0.29536377293E+02  0.32052411300E+02 -0.21210187482E+03  0.27641217616E+03  0.17180433980E+03 0.  0.
         24    2    3    3    0    0 -0.53082346273E+02  0.87612053895E+01 -0.22248294601E+03  0.24138719126E+03  0.76646073848E+02 0.  0.
         -6    2    1    2    0  502  0.29536377293E+02 -0.32052411300E+02 -0.49458727780E+03  0.52507184885E+03  0.17083359285E+03 0.  0.
        -24    2    5    5    0    0  0.64489313824E+02 -0.68635907778E+02 -0.31814816118E+03  0.34146108702E+03  0.80670081538E+02 0.  0.
          5    1    3    3  501    0  0.23545968980E+02  0.23291205910E+02  0.10381071191E+02  0.35024984897E+02  0.47000000000E+01 0. -1.
        -13    1    4    4    0    0 -0.36448651795E+02 -0.17007885256E+02 -0.41385296590E+02  0.57710615595E+02  0.00000000000E+00 0.  1.
         14    1    4    4    0    0 -0.16633694478E+02  0.25769090646E+02 -0.18109764942E+03  0.18367657567E+03  0.00000000000E+00 0. -1.
         -5    1    5    5    0  502 -0.34952936531E+02  0.36583496478E+02 -0.17643911662E+03  0.18361076183E+03  0.47000000000E+01 0.  1.
         13    1    6    6    0    0  0.65190105641E+02 -0.23188487128E+02 -0.25109968157E+03  0.26045826133E+03  0.00000000000E+00 0. -1.
        -14    1    6    6    0    0 -0.70079181777E+00 -0.45447420650E+02 -0.67048479610E+02  0.81002825697E+02  0.00000000000E+00 0.  1.
<mgrwt>
<rscale>  2 0.17701130E+03</rscale>
<asrwt>0</asrwt>
<pdfrwt beam="1">  1       21 0.72919133E-02 0.17724696E+03</pdfrwt>
<pdfrwt beam="2">  1       21 0.11601332E+00 0.17724696E+03</pdfrwt>
<totfact> 0.81452787E+04</totfact>
</mgrwt>
</event>
<event>
12    1  0.1013215E-001  0.3829723E+03  0.7546771E-02  0.1050142E+00
         21   -1    0    0  501  502  0.00000000000E+00  0.00000000000E+00  0.57119401906E+03  0.57119401906E+03  0.00000000000E+00 0.  1.
         21   -1    0    0  502  503 -0.00000000000E+00 -0.00000000000E+00 -0.41178667377E+03  0.41178667377E+03  0.00000000000E+00 0.  1.
         -6    2    1    2    0  503  0.14348869666E+02 -0.33769858324E+03 -0.22418682620E+03  0.44093616168E+03  0.17297035139E+03 0.  0.
        -24    2    3    3    0    0  0.45955257962E+02 -0.29134804525E+03 -0.13240089144E+03  0.33326033352E+03  0.80851002692E+02 0.  0.
          6    2    1    2  501    0 -0.14348869666E+02  0.33769858324E+03  0.38359417149E+03  0.54204453115E+03  0.18005988494E+03 0.  0.
         24    2    5    5    0    0 -0.63895214719E+02  0.11478394734E+03  0.13335165197E+03  0.20323900613E+03  0.79154769280E+02 0.  0.
          5    1    5    5  501    0  0.49546345053E+02  0.22291463590E+03  0.25024251952E+03  0.33880552502E+03  0.47000000000E+01 0. -1.
        -11    1    6    6    0    0 -0.28707470189E+02  0.34486172581E+02  0.99701597134E+02  0.10933354204E+03  0.00000000000E+00 0.  1.
         12    1    6    6    0    0 -0.35187744531E+02  0.80297774754E+02  0.33650054837E+02  0.93905464091E+02  0.00000000000E+00 0. -1.
         -5    1    3    3    0  503 -0.31606388296E+02 -0.46350537987E+02 -0.91785934750E+02  0.10767582816E+03  0.47000000000E+01 0.  1.
         11    1    4    4    0    0  0.77387924351E+01 -0.11356796621E+03 -0.10445206968E+02  0.11430955431E+03  0.00000000000E+00 0. -1.
        -12    1    4    4    0    0  0.38216465527E+02 -0.17778007904E+03 -0.12195568448E+03  0.21895077921E+03  0.00000000000E+00 0.  1.
<mgrwt>
<rscale>  2 0.38214923E+03</rscale>
<asrwt>0</asrwt>
<pdfrwt beam="1">  1       21 0.87876002E-01 0.38297230E+03</pdfrwt>
<pdfrwt beam="2">  1       21 0.63351796E-01 0.38297230E+03</pdfrwt>
<totfact> 0.22736122E+03</totfact>
</mgrwt>
</event>
<event>
12    1  0.1013215E-001  0.3288674E+03  0.7546771E-02  0.1071697E+00
         21   -1    0    0  501  502  0.00000000000E+00  0.00000000000E+00  0.90241655181E+03  0.90241655181E+03  0.00000000000E+00 0. -1.
         21   -1    0    0  502  503 -0.00000000000E+00 -0.00000000000E+00 -0.21665509920E+03  0.21665509920E+03  0.00000000000E+00 0.  1.
         -6    2    1    2    0  503  0.17842564442E+03 -0.21438137172E+03  0.71741735086E+03  0.78920304319E+03  0.17423749580E+03 0.  0.
        -24    2    3    3    0    0  0.30131795568E+02 -0.12805007464E+03  0.39211635397E+03  0.42138924921E+03  0.80677863031E+02 0.  0.
          6    2    1    2  501    0 -0.17842564442E+03  0.21438137172E+03 -0.31655898247E+02  0.32986860783E+03  0.17325160723E+03 0.  0.
         24    2    5    5    0    0 -0.83145137171E+02  0.13076877012E+03 -0.82090790746E+02  0.19335776361E+03  0.81453924082E+02 0.  0.
          5    1    5    5  501    0 -0.95280507249E+02  0.83612601600E+02  0.50434892498E+02  0.13651084422E+03  0.47000000000E+01 0. -1.
        -13    1    6    6    0    0 -0.95397596507E+02  0.12791869095E+03 -0.65396701934E+02  0.17245469416E+03  0.00000000000E+00 0.  1.
         14    1    6    6    0    0  0.12252459336E+02  0.28500791666E+01 -0.16694088812E+02  0.20903069446E+02  0.00000000000E+00 0. -1.
         -5    1    3    3    0  503  0.14829384885E+03 -0.86331297080E+02  0.32530099689E+03  0.36781379397E+03  0.47000000000E+01 0.  1.
         13    1    4    4    0    0  0.28178429456E+02 -0.66002891815E+02  0.10207296810E+03  0.12477698678E+03  0.00000000000E+00 0. -1.
        -14    1    4    4    0    0  0.19533661115E+01 -0.62047182823E+02  0.29004338587E+03  0.29661226243E+03  0.00000000000E+00 0.  1.
<mgrwt>
<rscale>  2 0.32873704E+03</rscale>
<asrwt>0</asrwt>
<pdfrwt beam="1">  1       21 0.13883331E+00 0.32886743E+03</pdfrwt>
<pdfrwt beam="2">  1       21 0.33331554E-01 0.32886743E+03</pdfrwt>
<totfact> 0.28863939E+03</totfact>
</mgrwt>
</event>
<event>
12    1  0.1013215E-001  0.2331026E+03  0.7546771E-02  0.1124702E+00
         21   -1    0    0  501  502  0.00000000000E+00  0.00000000000E+00  0.29151282793E+03  0.29151282793E+03  0.00000000000E+00 0.  1.
         21   -1    0    0  502  503 -0.00000000000E+00 -0.00000000000E+00 -0.49163732992E+03  0.49163732992E+03  0.00000000000E+00 0. -1.
         -6    2    1    2    0  503 -0.14223568712E+03  0.62488373878E+02 -0.40923797828E+03  0.47096981459E+03  0.17378450973E+03 0.  0.
        -24    2    3    3    0    0 -0.12308955859E+03 -0.18763899841E+02 -0.27702373530E+03  0.31453707419E+03  0.81782013581E+02 0.  0.
          6    2    1    2  501    0  0.14223568712E+03 -0.62488373878E+02  0.20911347630E+03  0.31218034327E+03  0.17202422269E+03 0.  0.
         24    2    5    5    0    0  0.14594588623E+03 -0.84223712350E+02  0.21833289440E+03  0.28782304075E+03  0.82334771400E+02 0.  0.
          5    1    5    5  501    0 -0.37101991066E+01  0.21735338471E+02 -0.92194180968E+01  0.24357302517E+02  0.47000000000E+01 0. -1.
        -11    1    6    6    0    0  0.74567742233E+01 -0.35335758530E+02  0.71739300946E+02  0.80316540096E+02  0.00000000000E+00 0.  1.
         12    1    6    6    0    0  0.13848911201E+03 -0.48887953820E+02  0.14659359345E+03  0.20750650065E+03  0.00000000000E+00 0. -1.
         -5    1    3    3    0  503 -0.19146128531E+02  0.81252273719E+02 -0.13221424298E+03  0.15643274040E+03  0.47000000000E+01 0.  1.
         13    1    4    4    0    0 -0.88573934791E+02  0.22178202162E+02 -0.13716377644E+03  0.16477595741E+03  0.00000000000E+00 0. -1.
        -14    1    4    4    0    0 -0.34515623799E+02 -0.40942102003E+02 -0.13985995886E+03  0.14976111677E+03  0.00000000000E+00 0.  1.
<mgrwt>
<rscale>  2 0.23277461E+03</rscale>
<asrwt>0</asrwt>
<pdfrwt beam="1">  1       21 0.44848128E-01 0.23310265E+03</pdfrwt>
<pdfrwt beam="2">  1       21 0.75636511E-01 0.23310265E+03</pdfrwt>
<totfact> 0.72399847E+03</totfact>
</mgrwt>
</event>
<event>
12    1  0.1013215E-001  0.1763203E+03  0.7546771E-02  0.1171531E+00
         21   -1    0    0  501  502  0.00000000000E+00  0.00000000000E+00  0.37337524743E+02  0.37337524743E+02  0.00000000000E+00 0.  1.
         21   -1    0    0  502  503 -0.00000000000E+00 -0.00000000000E+00 -0.91651208348E+03  0.91651208348E+03  0.00000000000E+00 0.  1.
         -6    2    1    2    0  503  0.30923159652E+02  0.35103855775E+01 -0.58630529482E+03  0.61224401939E+03  0.17355194016E+03 0.  0.
        -24    2    3    3    0    0  0.26972196902E+01  0.27570210832E+02 -0.56076622480E+03  0.56696805474E+03  0.78908964596E+02 0.  0.
          6    2    1    2  501    0 -0.30923159652E+02 -0.35103855775E+01 -0.29286926391E+03  0.34160558883E+03  0.17307052887E+03 0.  0.
         24    2    5    5    0    0  0.22688411777E+02 -0.36244036734E+02 -0.10129359670E+03  0.13993997754E+03  0.86570262525E+02 0.  0.
          5    1    5    5  501    0 -0.53611571429E+02  0.32733651157E+02 -0.19157566721E+03  0.20166561129E+03  0.47000000000E+01 0. -1.
        -13    1    6    6    0    0 -0.32236146343E+02 -0.69155454276E+01 -0.24501477343E+02  0.41076955725E+02  0.00000000000E+00 0.  1.
         14    1    6    6    0    0  0.54924558120E+02 -0.29328491307E+02 -0.76792119360E+02  0.98863021817E+02  0.00000000000E+00 0. -1.
         -5    1    3    3    0  503  0.28225939962E+02 -0.24059825254E+02 -0.25539070022E+02  0.45275964657E+02  0.47000000000E+01 0.  1.
         13    1    4    4    0    0 -0.98464041566E+01  0.34735188718E+02 -0.10613987966E+03  0.11211226099E+03  0.00000000000E+00 0. -1.
        -14    1    4    4    0    0  0.12543623847E+02 -0.71649778862E+01 -0.45462634514E+03  0.45485579375E+03  0.00000000000E+00 0.  1.
<mgrwt>
<rscale>  2 0.17620170E+03</rscale>
<asrwt>0</asrwt>
<pdfrwt beam="1">  1       21 0.57442345E-02 0.17632028E+03</pdfrwt>
<pdfrwt beam="2">  1       21 0.14100186E+00 0.17632028E+03</pdfrwt>
<totfact> 0.75235063E+04</totfact>
</mgrwt>
</event>
<event>
12    1  0.1013215E-001  0.2676501E+03  0.7546771E-02  0.1102986E+00
         21   -1    0    0  503  502  0.00000000000E+00  0.00000000000E+00  0.46461083279E+03  0.46461083279E+03  0.00000000000E+00 0.  1.
         21   -1    0    0  501  503 -0.00000000000E+00 -0.00000000000E+00 -0.22237375287E+03  0.22237375287E+03  0.00000000000E+00 0. -1.
          6    2    1    2  501    0 -0.85945723601E+02  0.18399827091E+03 -0.71407781436E+02  0.27466231959E+03  0.17058220144E+03 0.  0.
         24    2    3    3    0    0 -0.12086805491E+03  0.14929635240E+03 -0.27958483186E+02  0.20883129430E+03  0.77008734305E+02 0.  0.
         -6    2    1    2    0  502  0.85945723601E+02 -0.18399827091E+03  0.31364486136E+03  0.41232226607E+03  0.17434024476E+03 0.  0.
        -24    2    5    5    0    0  0.63061238480E+01 -0.70437468077E+02  0.58089369036E+02  0.12151438887E+03  0.79938525132E+02 0.  0.
          5    1    3    3  501    0  0.34922331308E+02  0.34701918504E+02 -0.43449298249E+02  0.65831025286E+02  0.47000000000E+01 0. -1.
        -11    1    4    4    0    0 -0.70381436414E+02  0.77917910603E+02  0.23204870940E+02  0.10753238312E+03  0.00000000000E+00 0.  1.
         12    1    4    4    0    0 -0.50486618496E+02  0.71378441799E+02 -0.51163354126E+02  0.10129891118E+03  0.00000000000E+00 0. -1.
         -5    1    5    5    0  502  0.79639599753E+02 -0.11356080283E+03  0.25555549232E+03  0.29080787720E+03  0.47000000000E+01 0.  1.
         13    1    6    6    0    0  0.45873510737E+01  0.82486519140E+01 -0.12587531796E+02  0.15733086315E+02  0.00000000000E+00 0. -1.
        -14    1    6    6    0    0  0.17187727743E+01 -0.78686119991E+02  0.70676900832E+02  0.10578130256E+03  0.00000000000E+00 0.  1.
<mgrwt>
<rscale>  2 0.26703983E+03</rscale>
<asrwt>0</asrwt>
<pdfrwt beam="1">  1       21 0.71478590E-01 0.26765006E+03</pdfrwt>
<pdfrwt beam="2">  1       21 0.34211347E-01 0.26765006E+03</pdfrwt>
<totfact> 0.13960367E+04</totfact>
</mgrwt>
</event>
<event>
12    1  0.1013215E-001  0.2046677E+03  0.7546771E-02  0.1145874E+00
         21   -1    0    0  501  502  0.00000000000E+00  0.00000000000E+00  0.55846841165E+03  0.55846841165E+03  0.00000000000E+00 0. -1.
         21   -1    0    0  502  503 -0.00000000000E+00 -0.00000000000E+00 -0.76640740189E+02  0.76640740189E+02  0.00000000000E+00 0.  1.
         -6    2    1    2    0  503 -0.97515603921E+02  0.46689841989E+02  0.19412929796E+03  0.28203803272E+03  0.17369523086E+03 0.  0.
        -24    2    3    3    0    0 -0.11808625370E+03  0.86695776864E+01  0.13816947599E+03  0.21116995948E+03  0.10715606750E+03 0.  0.
          6    2    1    2  501    0  0.97515603921E+02 -0.46689841989E+02  0.28769837350E+03  0.35307111911E+03  0.17378039787E+03 0.  0.
         24    2    5    5    0    0  0.34835603802E+02  0.36950076701E+02  0.97737973132E+02  0.13620373540E+03  0.80124395056E+02 0.  0.
          5    1    5    5  501    0  0.62680000119E+02 -0.83639918691E+02  0.18996040037E+03  0.21686738372E+03  0.47000000000E+01 0. -1.
        -11    1    6    6    0    0  0.60546854746E+02  0.22789338148E+02  0.58651734744E+02  0.87322972587E+02  0.00000000000E+00 0.  1.
         12    1    6    6    0    0 -0.25711250943E+02  0.14160738553E+02  0.39086238388E+02  0.48880762809E+02  0.00000000000E+00 0. -1.
         -5    1    3    3    0  503  0.20570649776E+02  0.38020264303E+02  0.55959821972E+02  0.70868073241E+02  0.47000000000E+01 0.  1.
         13    1    4    4    0    0  0.14574793666E+01  0.25813276976E+02  0.65032656760E+02  0.69983540634E+02  0.00000000000E+00 0. -1.
        -14    1    4    4    0    0 -0.11954373306E+03 -0.17143699289E+02  0.73136819226E+02  0.14118641885E+03  0.00000000000E+00 0.  1.
<mgrwt>
<rscale>  2 0.20464960E+03</rscale>
<asrwt>0</asrwt>
<pdfrwt beam="1">  1       21 0.85918214E-01 0.20466768E+03</pdfrwt>
<pdfrwt beam="2">  1       21 0.11790883E-01 0.20466768E+03</pdfrwt>
<totfact> 0.70405208E+04</totfact>
</mgrwt>
</event>
<event>
12    1  0.1013215E-001  0.2464939E+03  0.7546771E-02  0.1115617E+00
         21   -1    0    0  501  502  0.00000000000E+00  0.00000000000E+00  0.57823065802E+03  0.57823065802E+03  0.00000000000E+00 0. -1.
         21   -1    0    0  502  503 -0.00000000000E+00 -0.00000000000E+00 -0.12668073858E+03  0.12668073858E+03  0.00000000000E+00 0. -1.
         -6    2    1    2    0  503 -0.11812237284E+03 -0.12974845665E+03  0.37182266435E+03  0.44584447627E+03  0.17244606788E+03 0.  0.
        -24    2    3    3    0    0 -0.80568508700E+02 -0.38317216855E+01  0.14172970022E+03  0.18083470475E+03  0.78153156265E+02 0.  0.
          6    2    1    2  501    0  0.11812237284E+03  0.12974845665E+03  0.79727255083E+02  0.25906692033E+03  0.17312330010E+03 0.  0.
         24    2    5    5    0    0  0.12014368846E+03  0.16038787136E+03  0.56893211494E+02  0.22051380117E+03  0.72323743216E+02 0.  0.
          5    1    5    5  501    0 -0.20213156208E+01 -0.30639414713E+02  0.22834043589E+02  0.38553119165E+02  0.47000000000E+01 0. -1.
        -13    1    6    6    0    0 -0.32756876362E+01  0.32434734228E+02  0.22046415710E+02  0.39354625645E+02  0.00000000000E+00 0.  1.
         14    1    6    6    0    0  0.12341937610E+03  0.12795313714E+03  0.34846795784E+02  0.18115917552E+03  0.00000000000E+00 0. -1.
         -5    1    3    3    0  503 -0.37553864141E+02 -0.12591673497E+03  0.23009296413E+03  0.26500977152E+03  0.47000000000E+01 0.  1.
         13    1    4    4    0    0 -0.30685216989E+02  0.99181036219E+01  0.12077986810E+03  0.12501091096E+03  0.00000000000E+00 0. -1.
        -14    1    4    4    0    0 -0.49883291711E+02 -0.13749825307E+02  0.20949832124E+02  0.55823793798E+02  0.00000000000E+00 0.  1.
<mgrwt>
<rscale>  2 0.24637500E+03</rscale>
<asrwt>0</asrwt>
<pdfrwt beam="1">  1       21 0.88958561E-01 0.24649388E+03</pdfrwt>
<pdfrwt beam="2">  1       21 0.19489345E-01 0.24649388E+03</pdfrwt>
<totfact> 0.25400426E+04</totfact>
</mgrwt>
</event>
<event>
12    1  0.1013215E-001  0.1793058E+03  0.7546771E-02  0.1169500E+00
         21   -1    0    0  503  502  0.00000000000E+00  0.00000000000E+00  0.96966664242E+02  0.96966664242E+02  0.00000000000E+00 0. -1.
         21   -1    0    0  501  503 -0.00000000000E+00 -0.00000000000E+00 -0.58055881470E+03  0.58055881470E+03  0.00000000000E+00 0. -1.
          6    2    1    2  501    0  0.10184155962E+02  0.25365216946E+02 -0.46860177848E+03  0.50173519021E+03  0.17721022272E+03 0.  0.
         24    2    3    3    0    0 -0.33686373520E+01 -0.52444619436E+02 -0.20755358073E+03  0.22896000733E+03  0.81132054451E+02 0.  0.
         -6    2    1    2    0  502 -0.10184155962E+02 -0.25365216946E+02 -0.14990371981E+02  0.17579028873E+03  0.17300405515E+03 0.  0.
        -24    2    5    5    0    0 -0.45626949134E+02 -0.54890456619E+01  0.45781741131E+02  0.10253325150E+03  0.79404985562E+02 0.  0.
          5    1    3    3  501    0  0.13552793314E+02  0.77809836382E+02 -0.26104819775E+03  0.27277518288E+03  0.47000000000E+01 0. -1.
        -11    1    4    4    0    0 -0.13433115384E+02 -0.30568615568E+02 -0.20134165749E+03  0.20409152822E+03  0.00000000000E+00 0.  1.
         12    1    4    4    0    0  0.10064478032E+02 -0.21876003867E+02 -0.62119232307E+01  0.24868479115E+02  0.00000000000E+00 0. -1.
         -5    1    5    5    0  502  0.35442793172E+02 -0.19876171284E+02 -0.60772113112E+02  0.73257037238E+02  0.47000000000E+01 0.  1.
         11    1    6    6    0    0 -0.68376225849E+02 -0.78328155621E+01  0.32861379458E+02  0.76266188583E+02  0.00000000000E+00 0. -1.
        -12    1    6    6    0    0  0.22749276715E+02  0.23437699002E+01  0.12920361672E+02  0.26267062914E+02  0.00000000000E+00 0.  1.
<mgrwt>
<rscale>  2 0.17825770E+03</rscale>
<asrwt>0</asrwt>
<pdfrwt beam="1">  1       21 0.14917948E-01 0.17930581E+03</pdfrwt>
<pdfrwt beam="2">  1       21 0.89316741E-01 0.17930581E+03</pdfrwt>
<totfact> 0.42656836E+04</totfact>
</mgrwt>
</event>
<event>
12    1  0.1013215E-001  0.1766594E+03  0.7546771E-02  0.1171606E+00
         21   -1    0    0  501  502  0.00000000000E+00  0.00000000000E+00  0.43759928778E+03  0.43759928778E+03  0.00000000000E+00 0. -1.
         21   -1    0    0  502  503 -0.00000000000E+00 -0.00000000000E+00 -0.21110545792E+03  0.21110545792E+03  0.00000000000E+00 0. -1.
         -6    2    1    2    0  503  0.30542826926E+02 -0.32513921272E+02 -0.15126735509E+03  0.23257334893E+03  0.17093428727E+03 0.  0.
        -24    2    3    3    0    0  0.16941495985E+02 -0.51313565914E+02 -0.17396204740E+03  0.19977758851E+03  0.82025572871E+02 0.  0.
          6    2    1    2  501    0 -0.30542826926E+02  0.32513921272E+02  0.37776118495E+03  0.41613139678E+03  0.16873590958E+03 0.  0.
         24    2    5    5    0    0 -0.86632376261E+01 -0.29862021970E+02  0.30983441175E+03  0.32123349775E+03  0.78910109182E+02 0.  0.
          5    1    5    5  501    0 -0.21879589300E+02  0.62375943242E+02  0.67926773198E+02  0.94897899030E+02  0.47000000000E+01 0. -1.
        -11    1    6    6    0    0 -0.31435686418E+02 -0.73087988717E+01  0.50541039279E+02  0.59966803924E+02  0.00000000000E+00 0.  1.
         12    1    6    6    0    0  0.22772448792E+02 -0.22553223098E+02  0.25929337247E+03  0.26126669383E+03  0.00000000000E+00 0. -1.
         -5    1    3    3    0  503  0.13601330942E+02  0.18799644642E+02  0.22694692310E+02  0.32795760413E+02  0.47000000000E+01 0.  1.
         11    1    4    4    0    0  0.37191864959E+01 -0.62860389017E+02 -0.69229670544E+02  0.93584230184E+02  0.00000000000E+00 0. -1.
        -12    1    4    4    0    0  0.13222309489E+02  0.11546823103E+02 -0.10473237685E+03  0.10619335833E+03  0.00000000000E+00 0.  1.
<mgrwt>
<rscale>  2 0.17612544E+03</rscale>
<asrwt>0</asrwt>
<pdfrwt beam="1">  1       21 0.67322967E-01 0.17665942E+03</pdfrwt>
<pdfrwt beam="2">  1       21 0.32477763E-01 0.17665942E+03</pdfrwt>
<totfact> 0.18597472E+04</totfact>
</mgrwt>
</event>
<event>
12    1  0.1013215E-001  0.1907246E+03  0.7546771E-02  0.1157861E+00
         21   -1    0    0  503  502  0.00000000000E+00  0.00000000000E+00  0.54379901612E+02  0.54379901612E+02  0.00000000000E+00 0. -1.
         21   -1    0    0  501  503 -0.00000000000E+00 -0.00000000000E+00 -0.16672266599E+04  0.16672266599E+04  0.00000000000E+00 0. -1.
          6    2    1    2  501    0 -0.81734370668E+02  0.87149180944E+01 -0.14729846404E+04  0.14852809965E+04  0.17210296474E+03 0.  0.
         24    2    3    3    0    0 -0.10601658458E+03 -0.23557829916E+02 -0.82010656031E+03  0.83113802002E+03  0.80132081601E+02 0.  0.
         -6    2    1    2    0  502  0.81734370668E+02 -0.87149180944E+01 -0.13986211791E+03  0.23632556506E+03  0.17184849004E+03 0.  0.
        -24    2    5    5    0    0  0.99844995555E+01 -0.18598440715E+01 -0.39816226427E+01  0.82440429205E+02  0.81715493006E+02 0.  0.
          5    1    3    3  501    0  0.24282213910E+02  0.32272748011E+02 -0.65287808010E+03  0.65414297646E+03  0.47000000000E+01 0. -1.
        -13    1    4    4    0    0 -0.61609786761E+02 -0.85774266653E+01 -0.20452735099E+03  0.21377739679E+03  0.00000000000E+00 0.  1.
         14    1    4    4    0    0 -0.44406797818E+02 -0.14980403251E+02 -0.61557920932E+03  0.61736062323E+03  0.00000000000E+00 0. -1.
         -5    1    5    5    0  502  0.71749871113E+02 -0.68550740229E+01 -0.13588049526E+03  0.15388513586E+03  0.47000000000E+01 0.  1.
         11    1    6    6    0    0  0.53305650201E+01 -0.10360712013E+02  0.37797165602E+02  0.39552307194E+02  0.00000000000E+00 0. -1.
        -12    1    6    6    0    0  0.46539345354E+01  0.85008679411E+01 -0.41778788244E+02  0.42888122011E+02  0.00000000000E+00 0.  1.
<mgrwt>
<rscale>  2 0.19066721E+03</rscale>
<asrwt>0</asrwt>
<pdfrwt beam="1">  1       21 0.83661392E-02 0.19072464E+03</pdfrwt>
<pdfrwt beam="2">  1       21 0.25649640E+00 0.19072464E+03</pdfrwt>
<totfact> 0.67741596E+03</totfact>
</mgrwt>
</event>
<event>
12    1  0.1013215E-001  0.2549046E+03  0.7546771E-02  0.1110461E+00
         21   -1    0    0  503  502  0.00000000000E+00  0.00000000000E+00  0.56912944931E+02  0.56912944931E+02  0.00000000000E+00 0. -1.
         21   -1    0    0  501  503 -0.00000000000E+00 -0.00000000000E+00 -0.12425586990E+04  0.12425586990E+04  0.00000000000E+00 0. -1.
          6    2    1    2  501    0  0.17376602200E+03  0.69549832596E+02 -0.78511601063E+03  0.82545958072E+03  0.17304496421E+03 0.  0.
         24    2    3    3    0    0  0.84949696214E+02 -0.13424615810E+02 -0.53477454515E+03  0.54713236654E+03  0.77287393401E+02 0.  0.
         -6    2    1    2    0  502 -0.17376602200E+03 -0.69549832596E+02 -0.40052974341E+03  0.47401206319E+03  0.17097236932E+03 0.  0.
        -24    2    5    5    0    0 -0.33548491586E+02  0.16065378701E+02 -0.16183970437E+03  0.18420877649E+03  0.79731961880E+02 0.  0.
          5    1    3    3  501    0  0.88816325785E+02  0.82974448406E+02 -0.25034146548E+03  0.27832721418E+03  0.47000000000E+01 0. -1.
        -13    1    4    4    0    0 -0.72242037090E+01 -0.22609232306E+01 -0.45330016493E+01  0.88232078654E+01  0.00000000000E+00 0.  1.
         14    1    4    4    0    0  0.92173899923E+02 -0.11163692580E+02 -0.53024154350E+03  0.53830915867E+03  0.00000000000E+00 0. -1.
         -5    1    5    5    0  502 -0.14021753041E+03 -0.85615211297E+02 -0.23869003905E+03  0.28980328670E+03  0.47000000000E+01 0.  1.
         13    1    6    6    0    0 -0.56724726865E+02 -0.41717178541E+01 -0.11251807216E+03  0.12607701785E+03  0.00000000000E+00 0. -1.
        -14    1    6    6    0    0  0.23176235279E+02  0.20237096555E+02 -0.49321632212E+02  0.58131758641E+02  0.00000000000E+00 0.  1.
<mgrwt>
<rscale>  2 0.25455329E+03</rscale>
<asrwt>0</asrwt>
<pdfrwt beam="1">  1       21 0.87558376E-02 0.25490463E+03</pdfrwt>
<pdfrwt beam="2">  1       21 0.19116288E+00 0.25490463E+03</pdfrwt>
<totfact> 0.15046068E+04</totfact>
</mgrwt>
</event>
<event>
12    1  0.1013215E-001  0.1896798E+03  0.7546771E-02  0.1159787E+00
         21   -1    0    0  503  502  0.00000000000E+00  0.00000000000E+00  0.99449087507E+03  0.99449087507E+03  0.00000000000E+00 0.  1.
         21   -1    0    0  501  503 -0.00000000000E+00 -0.00000000000E+00 -0.35851397245E+02  0.35851397245E+02  0.00000000000E+00 0.  1.
          6    2    1    2  501    0  0.16197344959E+02 -0.76394179626E+02  0.41086267250E+03  0.45065453546E+03  0.16787778298E+03 0.  0.
         24    2    3    3    0    0  0.60905646706E+02 -0.88183738088E+02  0.35003800385E+03  0.37410679709E+03  0.77093592642E+02 0.  0.
         -6    2    1    2    0  502 -0.16197344959E+02  0.76394179626E+02  0.54777680532E+03  0.57968773685E+03  0.17285837884E+03 0.  0.
        -24    2    5    5    0    0 -0.59408644788E+01  0.11232870595E+03  0.50197170285E+03  0.52038610966E+03  0.78568954567E+02 0.  0.
          5    1    3    3  501    0 -0.44708301747E+02  0.11789558462E+02  0.60824668648E+02  0.76547738373E+02  0.47000000000E+01 0. -1.
        -13    1    4    4    0    0  0.55337816829E+02 -0.20875052064E+02  0.11179882894E+03  0.12647932607E+03  0.00000000000E+00 0.  1.
         14    1    4    4    0    0  0.55678298767E+01 -0.67308686023E+02  0.23823917491E+03  0.24762747102E+03  0.00000000000E+00 0. -1.
         -5    1    5    5    0  502 -0.10256480480E+02 -0.35934526320E+02  0.45805102474E+02  0.59301627181E+02  0.47000000000E+01 0.  1.
         13    1    6    6    0    0  0.13715840865E+02  0.85846403908E+02  0.22097986269E+03  0.23746542710E+03  0.00000000000E+00 0. -1.
        -14    1    6    6    0    0 -0.19656705343E+02  0.26482302039E+02  0.28099184016E+03  0.28292068256E+03  0.00000000000E+00 0.  1.
<mgrwt>
<rscale>  2 0.18853768E+03</rscale>
<asrwt>0</asrwt>
<pdfrwt beam="1">  1       21 0.15299858E+00 0.18967985E+03</pdfrwt>
<pdfrwt beam="2">  1       21 0.55156003E-02 0.18967985E+03</pdfrwt>
<totfact> 0.64687753E+04</totfact>
</mgrwt>
</event>
<event>
12    1  0.1013215E-001  0.2035323E+03  0.7546771E-02  0.1147408E+00
         21   -1    0    0  501  502  0.00000000000E+00  0.00000000000E+00  0.16718695762E+03  0.16718695762E+03  0.00000000000E+00 0.  1.
         21   -1    0    0  502  503 -0.00000000000E+00 -0.00000000000E+00 -0.12197608076E+04  0.12197608076E+04  0.00000000000E+00 0.  1.
         -6    2    1    2    0  503  0.58148481725E+02 -0.80709399405E+02 -0.11456990775E+04  0.11631225683E+04  0.17416222152E+03 0.  0.
        -24    2    3    3    0    0 -0.36104208122E+00 -0.97557434945E+02 -0.55334871951E+03  0.56763263773E+03  0.80587980350E+02 0.  0.
          6    2    1    2  501    0 -0.58148481725E+02  0.80709399405E+02  0.93125227514E+02  0.22382519701E+03  0.17756733297E+03 0.  0.
         24    2    5    5    0    0 -0.74041856437E+02  0.73758792034E+02  0.12847099437E+03  0.18417266195E+03  0.80574295569E+02 0.  0.
          5    1    5    5  501    0  0.15893374712E+02  0.69506073706E+01 -0.35345766857E+02  0.39652535067E+02  0.47000000000E+01 0. -1.
        -13    1    6    6    0    0  0.11455399359E+02  0.37286008073E+02  0.38852752730E+02  0.55054599873E+02  0.00000000000E+00 0.  1.
         14    1    6    6    0    0 -0.85497255796E+02  0.36472783961E+02  0.89618241641E+02  0.12911806207E+03  0.00000000000E+00 0. -1.
         -5    1    3    3    0  503  0.58509523806E+02  0.16848035540E+02 -0.59235035804E+03  0.59548993052E+03  0.47000000000E+01 0.  1.
         13    1    4    4    0    0 -0.35002952787E+02 -0.49060908160E+02 -0.18711530506E+03  0.19658157798E+03  0.00000000000E+00 0. -1.
        -14    1    4    4    0    0  0.34641910706E+02 -0.48496526785E+02 -0.36623341445E+03  0.37105105976E+03  0.00000000000E+00 0.  1.
<mgrwt>
<rscale>  2 0.20278730E+03</rscale>
<asrwt>0</asrwt>
<pdfrwt beam="1">  1       21 0.25721071E-01 0.20353233E+03</pdfrwt>
<pdfrwt beam="2">  1       21 0.18765551E+00 0.20353233E+03</pdfrwt>
<totfact> 0.22939438E+03</totfact>
</mgrwt>
</event>
<event>
12    1  0.1013215E-001  0.1771577E+03  0.7546771E-02  0.1170685E+00
         21   -1    0    0  501  502  0.00000000000E+00  0.00000000000E+00  0.92523741423E+03  0.92523741423E+03  0.00000000000E+00 0. -1.
         21   -1    0    0  502  503 -0.00000000000E+00 -0.00000000000E+00 -0.37008102879E+02  0.37008102879E+02  0.00000000000E+00 0. -1.
         -6    2    1    2    0  503 -0.29695953161E+02 -0.19567119641E+02  0.30289557385E+03  0.35068977749E+03  0.17312674423E+03 0.  0.
        -24    2    3    3    0    0  0.29751559699E+02  0.17749056764E+02  0.24383761671E+03  0.25883970341E+03  0.79630549517E+02 0.  0.
          6    2    1    2  501    0  0.29695953161E+02  0.19567119641E+02  0.58533373750E+03  0.61155573962E+03  0.17355148114E+03 0.  0.
         24    2    5    5    0    0 -0.30168020585E+02  0.22874983160E+01  0.49053940092E+03  0.49802012004E+03  0.80497167643E+02 0.  0.
          5    1    5    5  501    0  0.59863973746E+02  0.17279621325E+02  0.94794336580E+02  0.11353561958E+03  0.47000000000E+01 0. -1.
        -13    1    6    6    0    0 -0.86940087634E+01  0.19149874771E+02  0.44062139173E+03  0.44112301498E+03  0.00000000000E+00 0.  1.
         14    1    6    6    0    0 -0.21474011822E+02 -0.16862376455E+02  0.49918009186E+02  0.56897105063E+02  0.00000000000E+00 0. -1.
         -5    1    3    3    0  503 -0.59447512860E+02 -0.37316176405E+02  0.59057957143E+02  0.91850074081E+02  0.47000000000E+01 0.  1.
         11    1    4    4    0    0 -0.15120370459E+01  0.31460777654E+02  0.20381859547E+03  0.20623793697E+03  0.00000000000E+00 0. -1.
        -12    1    4    4    0    0  0.31263596744E+02 -0.13711720891E+02  0.40019021241E+02  0.52601766437E+02  0.00000000000E+00 0.  1.
<mgrwt>
<rscale>  2 0.17705356E+03</rscale>
<asrwt>0</asrwt>
<pdfrwt beam="1">  1       21 0.14234420E+00 0.17715767E+03</pdfrwt>
<pdfrwt beam="2">  1       21 0.56935550E-02 0.17715767E+03</pdfrwt>
<totfact> 0.74500080E+04</totfact>
</mgrwt>
</event>
<event>
12    1  0.1013215E-001  0.1790747E+03  0.7546771E-02  0.1169226E+00
         21   -1    0    0  501  502  0.00000000000E+00  0.00000000000E+00  0.17234567591E+03  0.17234567591E+03  0.00000000000E+00 0. -1.
         21   -1    0    0  502  503 -0.00000000000E+00 -0.00000000000E+00 -0.25390605816E+03  0.25390605816E+03  0.00000000000E+00 0. -1.
         -6    2    1    2    0  503 -0.39595134298E+02 -0.26367722192E+02 -0.15254953610E+03  0.23361945559E+03  0.17042199867E+03 0.  0.
        -24    2    3    3    0    0 -0.68283007499E+02  0.75963951131E+01 -0.42806198215E+02  0.11511947439E+03  0.81852601956E+02 0.  0.
          6    2    1    2  501    0  0.39595134298E+02  0.26367722192E+02  0.70989153856E+02  0.19263227848E+03  0.17264038726E+03 0.  0.
         24    2    5    5    0    0  0.37769711434E+02 -0.18933050978E+02  0.10252087799E+03  0.13720816959E+03  0.80811755686E+02 0.  0.
          5    1    5    5  501    0  0.18254228638E+01  0.45300773170E+02 -0.31531724138E+02  0.55424108884E+02  0.47000000000E+01 0. -1.
        -13    1    6    6    0    0 -0.71677731017E+01 -0.40059138030E+02  0.37032267139E+02  0.55022725491E+02  0.00000000000E+00 0.  1.
         14    1    6    6    0    0  0.44937484536E+02  0.21126087052E+02  0.65488610855E+02  0.82185444102E+02  0.00000000000E+00 0. -1.
         -5    1    3    3    0  503  0.28687873201E+02 -0.33964117305E+02 -0.10974333789E+03  0.11849998120E+03  0.47000000000E+01 0.  1.
         13    1    4    4    0    0 -0.30734780659E+02 -0.35025487667E+02 -0.33896368464E+02  0.57622697990E+02  0.00000000000E+00 0. -1.
        -14    1    4    4    0    0 -0.37548226840E+02  0.42621882780E+02 -0.89098297508E+01  0.57496776403E+02  0.00000000000E+00 0.  1.
<mgrwt>
<rscale>  2 0.17853783E+03</rscale>
<asrwt>0</asrwt>
<pdfrwt beam="1">  1       21 0.26514720E-01 0.17907466E+03</pdfrwt>
<pdfrwt beam="2">  1       21 0.39062470E-01 0.17907466E+03</pdfrwt>
<totfact> 0.85972876E+04</totfact>
</mgrwt>
</event>
<event>
12    1  0.1013215E-001  0.1817341E+03  0.7546771E-02  0.1166158E+00
         21   -1    0    0  501  502  0.00000000000E+00  0.00000000000E+00  0.26339706696E+03  0.26339706696E+03  0.00000000000E+00 0. -1.
         21   -1    0    0  502  503 -0.00000000000E+00 -0.00000000000E+00 -0.12565189571E+03  0.12565189571E+03  0.00000000000E+00 0. -1.
         -6    2    1    2    0  503 -0.23758666010E+02  0.51893410951E+02  0.58971833496E+02  0.19106275834E+03  0.17253956116E+03 0.  0.
        -24    2    3    3    0    0  0.40834023864E+02  0.66822967887E+02  0.23410049975E+02  0.11568479270E+03  0.81867052476E+02 0.  0.
          6    2    1    2  501    0  0.23758666010E+02 -0.51893410951E+02  0.78773337748E+02  0.19798620433E+03  0.17244099877E+03 0.  0.
         24    2    5    5    0    0  0.14699477034E+02 -0.89698243421E+02  0.13469515468E+02  0.12184191060E+03  0.80013585315E+02 0.  0.
          5    1    5    5  501    0  0.90591889754E+01  0.37804832470E+02  0.65303822280E+02  0.76144293728E+02  0.47000000000E+01 0. -1.
        -11    1    6    6    0    0  0.27568635392E+02 -0.62728498086E+01  0.23594133188E+02  0.36824739279E+02  0.00000000000E+00 0.  1.
         12    1    6    6    0    0 -0.12869158358E+02 -0.83425393612E+02 -0.10124617719E+02  0.85017171325E+02  0.00000000000E+00 0. -1.
         -5    1    3    3    0  503 -0.64592689873E+02 -0.14929556937E+02  0.35561783521E+02  0.75377965631E+02  0.47000000000E+01 0.  1.
         13    1    4    4    0    0  0.49102801818E+02  0.43206295152E+01  0.17723178769E+02  0.52381905764E+02  0.00000000000E+00 0. -1.
        -14    1    4    4    0    0 -0.82687779548E+01  0.62502338372E+02  0.56868712061E+01  0.63302886940E+02  0.00000000000E+00 0.  1.
<mgrwt>
<rscale>  2 0.18171075E+03</rscale>
<asrwt>0</asrwt>
<pdfrwt beam="1">  1       21 0.40522626E-01 0.18173415E+03</pdfrwt>
<pdfrwt beam="2">  1       21 0.19331061E-01 0.18173415E+03</pdfrwt>
<totfact> 0.14482476E+05</totfact>
</mgrwt>
</event>
<event>
12    1  0.1013215E-001  0.2424574E+03  0.7546771E-02  0.1118501E+00
         21   -1    0    0  501  502  0.00000000000E+00  0.00000000000E+00  0.34431524584E+03  0.34431524584E+03  0.00000000000E+00 0. -1.
         21   -1    0    0  502  503 -0.00000000000E+00 -0.00000000000E+00 -0.17763836068E+03  0.17763836068E+03  0.00000000000E+00 0. -1.
         -6    2    1    2    0  503  0.16014701731E+03  0.56219691666E+02  0.27151480935E+02  0.24397293188E+03  0.17314117850E+03 0.  0.
        -24    2    3    3    0    0  0.14179604049E+03 -0.12288036168E+02 -0.10685367126E+02  0.16345098336E+03  0.79655093729E+02 0.  0.
          6    2    1    2  501    0 -0.16014701731E+03 -0.56219691666E+02  0.13952540422E+03  0.27798067465E+03  0.17028856735E+03 0.  0.
         24    2    5    5    0    0 -0.39675301617E+02 -0.21813992789E+02  0.24447962899E+02  0.10779814353E+03  0.94724637861E+02 0.  0.
          5    1    5    5  501    0 -0.12047171569E+03 -0.34405698877E+02  0.11507744132E+03  0.17018253112E+03  0.47000000000E+01 0. -1.
        -11    1    6    6    0    0 -0.53282158742E+02  0.23038131658E+02  0.11581193486E+02  0.59193479312E+02  0.00000000000E+00 0.  1.
         12    1    6    6    0    0  0.13606857124E+02 -0.44852124447E+02  0.12866769413E+02  0.48604664214E+02  0.00000000000E+00 0. -1.
         -5    1    3    3    0  503  0.18350976813E+02  0.68507727835E+02  0.37836848061E+02  0.80521948525E+02  0.47000000000E+01 0.  1.
         11    1    4    4    0    0  0.15159831205E+03 -0.12843309337E+02 -0.52568359985E+01  0.15223216853E+03  0.00000000000E+00 0. -1.
        -12    1    4    4    0    0 -0.98022715542E+01  0.55527316897E+00 -0.54285311273E+01  0.11218814827E+02  0.00000000000E+00 0.  1.
<mgrwt>
<rscale>  2 0.24194860E+03</rscale>
<asrwt>0</asrwt>
<pdfrwt beam="1">  1       21 0.52971576E-01 0.24245740E+03</pdfrwt>
<pdfrwt beam="2">  1       21 0.27328979E-01 0.24245740E+03</pdfrwt>
<totfact> 0.42109829E+04</totfact>
</mgrwt>
</event>
<event>
12    1  0.1013215E-001  0.2103050E+03  0.7546771E-02  0.1143160E+00
         21   -1    0    0  501  502  0.00000000000E+00  0.00000000000E+00  0.23359670421E+02  0.23359670421E+02  0.00000000000E+00 0.  1.
         21   -1    0    0  502  503 -0.00000000000E+00 -0.00000000000E+00 -0.18185680904E+04  0.18185680904E+04  0.00000000000E+00 0.  1.
         -6    2    1    2    0  503 -0.10344981825E+02  0.10255239109E+03 -0.82494857197E+03  0.84913757724E+03  0.17283074703E+03 0.  0.
        -24    2    3    3    0    0 -0.41930164329E+02  0.73237794716E+02 -0.27232091718E+03  0.29481241621E+03  0.75058414327E+02 0.  0.
          6    2    1    2  501    0  0.10344981825E+02 -0.10255239109E+03 -0.97025984800E+03  0.99279018357E+03  0.18331438674E+03 0.  0.
         24    2    5    5    0    0  0.28018887851E+02 -0.39339957456E+02 -0.16860330437E+03  0.18843734889E+03  0.68912044535E+02 0.  0.
          5    1    5    5  501    0 -0.17673906026E+02 -0.63212433638E+02 -0.80165654363E+03  0.80435283469E+03  0.47000000000E+01 0. -1.
        -13    1    6    6    0    0  0.40814152453E+02 -0.66643240188E+01 -0.12927905705E+03  0.13573239425E+03  0.00000000000E+00 0.  1.
         14    1    6    6    0    0 -0.12795264602E+02 -0.32675633437E+02 -0.39324247318E+02  0.52704954643E+02  0.00000000000E+00 0. -1.
         -5    1    3    3    0  503  0.31585182504E+02  0.29314596378E+02 -0.55262765479E+03  0.55432516103E+03  0.47000000000E+01 0.  1.
         13    1    4    4    0    0  0.16003918681E+02  0.45826166146E+02 -0.12825484809E+03  0.13713303385E+03  0.00000000000E+00 0. -1.
        -14    1    4    4    0    0 -0.57934083010E+02  0.27411628570E+02 -0.14406606909E+03  0.15767938235E+03  0.00000000000E+00 0.  1.
<mgrwt>
<rscale>  2 0.20799917E+03</rscale>
<asrwt>0</asrwt>
<pdfrwt beam="1">  1       21 0.35937935E-02 0.21030496E+03</pdfrwt>
<pdfrwt beam="2">  1       21 0.27977986E+00 0.21030496E+03</pdfrwt>
<totfact> 0.20583461E+04</totfact>
</mgrwt>
</event>
<event>
12    1  0.1013215E-001  0.1815313E+03  0.7546771E-02  0.1166734E+00
         21   -1    0    0  503  502  0.00000000000E+00  0.00000000000E+00  0.55090584773E+02  0.55090584773E+02  0.00000000000E+00 0. -1.
         21   -1    0    0  501  503 -0.00000000000E+00 -0.00000000000E+00 -0.60123907986E+03  0.60123907986E+03  0.00000000000E+00 0. -1.
          6    2    1    2  501    0  0.42220277258E+02 -0.28805291877E+02 -0.23257834508E+03  0.29400406057E+03  0.17243376809E+03 0.  0.
         24    2    3    3    0    0  0.10028873947E+02  0.31760334911E+02 -0.19225683550E+03  0.21430214259E+03  0.88619525699E+02 0.  0.
         -6    2    1    2    0  502 -0.42220277258E+02  0.28805291877E+02 -0.31357015000E+03  0.36232560406E+03  0.17418756481E+03 0.  0.
        -24    2    5    5    0    0 -0.72388695794E+02 -0.32738676877E+02 -0.19478392338E+03  0.22510297035E+03  0.80116329239E+02 0.  0.
          5    1    3    3  501    0  0.32191403311E+02 -0.60565626788E+02 -0.40321509584E+02  0.79701917984E+02  0.47000000000E+01 0. -1.
        -11    1    4    4    0    0  0.37425420709E+02  0.35207075528E+02 -0.59104801038E+02  0.78317161518E+02  0.00000000000E+00 0.  1.
         12    1    4    4    0    0 -0.27396546762E+02 -0.34467406171E+01 -0.13315203446E+03  0.13598498107E+03  0.00000000000E+00 0. -1.
         -5    1    5    5    0  502  0.30168418537E+02  0.61543968754E+02 -0.11878622662E+03  0.13722263371E+03  0.47000000000E+01 0.  1.
         13    1    6    6    0    0 -0.51143109907E+02  0.12333695183E+02 -0.14673743289E+03  0.15588332797E+03  0.00000000000E+00 0. -1.
        -14    1    6    6    0    0 -0.21245585888E+02 -0.45072372060E+02 -0.48046490488E+02  0.69219642379E+02  0.00000000000E+00 0.  1.
<mgrwt>
<rscale>  2 0.18110926E+03</rscale>
<asrwt>0</asrwt>
<pdfrwt beam="1">  1       21 0.84754744E-02 0.18153128E+03</pdfrwt>
<pdfrwt beam="2">  1       21 0.92498321E-01 0.18153128E+03</pdfrwt>
<totfact> 0.10744794E+05</totfact>
</mgrwt>
</event>
<event>
12    1  0.1013215E-001  0.2710476E+03  0.7546771E-02  0.1101007E+00
         21   -1    0    0  501  502  0.00000000000E+00  0.00000000000E+00  0.12740538109E+04  0.12740538109E+04  0.00000000000E+00 0.  1.
         21   -1    0    0  502  503 -0.00000000000E+00 -0.00000000000E+00 -0.57271659161E+02  0.57271659161E+02  0.00000000000E+00 0.  1.
         -6    2    1    2    0  503 -0.68645021085E+02  0.19555608248E+03  0.57933975032E+03  0.63864976424E+03  0.17112759786E+03 0.  0.
        -24    2    3    3    0    0 -0.95212895409E+02  0.70359693906E+02  0.30261008750E+03  0.33372127435E+03  0.76033163311E+02 0.  0.
          6    2    1    2  501    0  0.68645021085E+02 -0.19555608248E+03  0.63744240145E+03  0.69267570585E+03  0.17467826997E+03 0.  0.
         24    2    5    5    0    0  0.37456387811E+02 -0.27158844627E+02  0.30428236848E+03  0.31804514366E+03  0.80152166586E+02 0.  0.
          5    1    5    5  501    0  0.31188633274E+02 -0.16839723785E+03  0.33316003297E+03  0.37463056219E+03  0.47000000000E+01 0. -1.
        -13    1    6    6    0    0  0.48190733059E+02 -0.95153396263E+01  0.28683136217E+03  0.29100707683E+03  0.00000000000E+00 0.  1.
         14    1    6    6    0    0 -0.10734345248E+02 -0.17643505001E+02  0.17451006308E+02  0.27038066828E+02  0.00000000000E+00 0. -1.
         -5    1    3    3    0  503  0.26567874324E+02  0.12519638857E+03  0.27672966283E+03  0.30492848989E+03  0.47000000000E+01 0.  1.
         13    1    4    4    0    0 -0.15247666769E+02 -0.15874228349E+02  0.34113598109E+02  0.40598276361E+02  0.00000000000E+00 0. -1.
        -14    1    4    4    0    0 -0.79965228640E+02  0.86233922255E+02  0.26849648939E+03  0.29312299799E+03  0.00000000000E+00 0.  1.
<mgrwt>
<rscale>  2 0.27047720E+03</rscale>
<asrwt>0</asrwt>
<pdfrwt beam="1">  1       21 0.19600826E+00 0.27104763E+03</pdfrwt>
<pdfrwt beam="2">  1       21 0.88110255E-02 0.27104763E+03</pdfrwt>
<totfact> 0.13687505E+04</totfact>
</mgrwt>
</event>
<event>
12    1  0.1013215E-001  0.2755359E+03  0.7546771E-02  0.1098207E+00
         21   -1    0    0  503  502  0.00000000000E+00  0.00000000000E+00  0.61665430157E+03  0.61665430157E+03  0.00000000000E+00 0.  1.
         21   -1    0    0  501  503 -0.00000000000E+00 -0.00000000000E+00 -0.40720138188E+03  0.40720138188E+03  0.00000000000E+00 0. -1.
          6    2    1    2  501    0 -0.18538632817E+03  0.10931833789E+03 -0.32301822485E+03  0.42431789553E+03  0.17142436585E+03 0.  0.
         24    2    3    3    0    0 -0.10763561586E+03  0.17980007693E+01 -0.11097342011E+03  0.17413619081E+03  0.80122745649E+02 0.  0.
         -6    2    1    2    0  502  0.18538632817E+03 -0.10931833789E+03  0.53247114455E+03  0.59953778792E+03  0.17205071837E+03 0.  0.
        -24    2    5    5    0    0  0.10934672514E+03  0.29980380753E+01  0.23059741124E+03  0.26855919283E+03  0.83565420219E+02 0.  0.
          5    1    3    3  501    0 -0.77750712314E+02  0.10752033712E+03 -0.21204480474E+03  0.25018170472E+03  0.47000000000E+01 0. -1.
        -11    1    4    4    0    0 -0.91270790896E+01 -0.22392842924E+02 -0.50631396817E+02  0.56109547589E+02  0.00000000000E+00 0.  1.
         12    1    4    4    0    0 -0.98508536766E+02  0.24190843693E+02 -0.60342023293E+02  0.11802664322E+03  0.00000000000E+00 0. -1.
         -5    1    5    5    0  502  0.76039603034E+02 -0.11231637596E+03  0.30187373332E+03  0.33097859509E+03  0.47000000000E+01 0.  1.
         11    1    6    6    0    0  0.66659719995E+02  0.20824869202E+02  0.60871396980E+02  0.92641893425E+02  0.00000000000E+00 0. -1.
        -12    1    6    6    0    0  0.42687005141E+02 -0.17826831126E+02  0.16972601426E+03  0.17591729941E+03  0.00000000000E+00 0.  1.
<mgrwt>
<rscale>  2 0.27543819E+03</rscale>
<asrwt>0</asrwt>
<pdfrwt beam="1">  1       21 0.94869892E-01 0.27553591E+03</pdfrwt>
<pdfrwt beam="2">  1       21 0.62646367E-01 0.27553591E+03</pdfrwt>
<totfact> 0.20589327E+03</totfact>
</mgrwt>
</event>
<event>
12    1  0.1013215E-001  0.2333504E+03  0.7546771E-02  0.1124445E+00
         21   -1    0    0  503  502  0.00000000000E+00  0.00000000000E+00  0.13880368341E+04  0.13880368341E+04  0.00000000000E+00 0.  1.
         21   -1    0    0  501  503 -0.00000000000E+00 -0.00000000000E+00 -0.58906703140E+02  0.58906703140E+02  0.00000000000E+00 0.  1.
          6    2    1    2  501    0 -0.30690629971E+02  0.15349972188E+03  0.24419651727E+03  0.33719880701E+03  0.17195062378E+03 0.  0.
         24    2    3    3    0    0 -0.52758403169E+02  0.12708303964E+03  0.25683315051E+03  0.30023122373E+03  0.72401467059E+02 0.  0.
         -6    2    1    2    0  502  0.30690629971E+02 -0.15349972188E+03  0.10849336137E+04  0.11097447302E+04  0.17305588914E+03 0.  0.
        -24    2    5    5    0    0  0.21442868741E+02 -0.11762531121E+02  0.28833140471E+03  0.30056482336E+03  0.81277674296E+02 0.  0.
          5    1    3    3  501    0  0.22067773198E+02  0.26416682237E+02 -0.12636633237E+02  0.36967583285E+02  0.47000000000E+01 0. -1.
        -11    1    4    4    0    0 -0.31631107872E+02  0.20880847480E+02  0.28165752535E+02  0.47221249375E+02  0.00000000000E+00 0.  1.
         12    1    4    4    0    0 -0.21127295296E+02  0.10620219216E+03  0.22866739797E+03  0.25300997435E+03  0.00000000000E+00 0. -1.
         -5    1    5    5    0  502  0.92477612296E+01 -0.14173719076E+03  0.79660220894E+03  0.80917990684E+03  0.47000000000E+01 0.  1.
         11    1    6    6    0    0  0.50576842211E+02 -0.14719803915E+02  0.14497284397E+03  0.15424595646E+03  0.00000000000E+00 0. -1.
        -12    1    6    6    0    0 -0.29133973470E+02  0.29572727943E+01  0.14335856074E+03  0.14631886690E+03  0.00000000000E+00 0.  1.
<mgrwt>
<rscale>  2 0.23314553E+03</rscale>
<asrwt>0</asrwt>
<pdfrwt beam="1">  1       21 0.21354410E+00 0.23335042E+03</pdfrwt>
<pdfrwt beam="2">  1       21 0.90625708E-02 0.23335042E+03</pdfrwt>
<totfact> 0.10296355E+04</totfact>
</mgrwt>
</event>
<event>
12    1  0.1013215E-001  0.2422652E+03  0.7546771E-02  0.1118752E+00
         21   -1    0    0  503  502  0.00000000000E+00  0.00000000000E+00  0.99909935170E+03  0.99909935170E+03  0.00000000000E+00 0. -1.
         21   -1    0    0  501  503 -0.00000000000E+00 -0.00000000000E+00 -0.58112864403E+02  0.58112864403E+02  0.00000000000E+00 0.  1.
          6    2    1    2  501    0 -0.17600417906E+02 -0.16682270066E+03  0.48130266239E+03  0.53759537339E+03  0.17092964781E+03 0.  0.
         24    2    3    3    0    0  0.46266177309E+02 -0.75774781714E+02  0.17939163392E+03  0.21581746141E+03  0.80705895826E+02 0.  0.
         -6    2    1    2    0  502  0.17600417906E+02  0.16682270066E+03  0.45968382491E+03  0.51961684271E+03  0.17479375328E+03 0.  0.
        -24    2    5    5    0    0 -0.24370575719E+02  0.22656468550E+02  0.13367525424E+03  0.16066121184E+03  0.82678357907E+02 0.  0.
          5    1    3    3  501    0 -0.63866595215E+02 -0.91047918946E+02  0.30191102847E+03  0.32177791198E+03  0.47000000000E+01 0. -1.
        -13    1    4    4    0    0 -0.37484497483E+00 -0.67031209642E+02  0.13551667300E+03  0.15118892895E+03  0.00000000000E+00 0.  1.
         14    1    4    4    0    0  0.46641022284E+02 -0.87435720718E+01  0.43874960918E+02  0.64628532459E+02  0.00000000000E+00 0. -1.
         -5    1    5    5    0  502  0.41970993625E+02  0.14416623211E+03  0.32600857067E+03  0.35895563087E+03  0.47000000000E+01 0.  1.
         11    1    6    6    0    0  0.29731589112E+02  0.17133943673E+01  0.59084046322E+02  0.66165154282E+02  0.00000000000E+00 0. -1.
        -12    1    6    6    0    0 -0.54102164831E+02  0.20943074183E+02  0.74591207916E+02  0.94496057558E+02  0.00000000000E+00 0.  1.
<mgrwt>
<rscale>  2 0.24156899E+03</rscale>
<asrwt>0</asrwt>
<pdfrwt beam="1">  1       21 0.15370758E+00 0.24226524E+03</pdfrwt>
<pdfrwt beam="2">  1       21 0.89404414E-02 0.24226524E+03</pdfrwt>
<totfact> 0.26887982E+04</totfact>
</mgrwt>
</event>
<event>
12    1  0.1013215E-001  0.2952896E+03  0.7546771E-02  0.1087736E+00
         21   -1    0    0  503  502  0.00000000000E+00  0.00000000000E+00  0.32549511305E+03  0.32549511305E+03  0.00000000000E+00 0.  1.
         21   -1    0    0  501  503 -0.00000000000E+00 -0.00000000000E+00 -0.41286994427E+03  0.41286994427E+03  0.00000000000E+00 0. -1.
          6    2    1    2  501    0  0.23463646767E+03  0.43085136158E+02 -0.26312561587E+03  0.39551361839E+03  0.17402681313E+03 0.  0.
         24    2    3    3    0    0  0.23538137223E+03  0.81670051362E+01 -0.26023766506E+03  0.36015458819E+03  0.80725427929E+02 0.  0.
         -6    2    1    2    0  502 -0.23463646767E+03 -0.43085136158E+02  0.17575078465E+03  0.34285143893E+03  0.17247657799E+03 0.  0.
        -24    2    5    5    0    0 -0.14325451645E+03  0.39965275004E+02  0.12327681698E+03  0.20859929152E+03  0.78723637664E+02 0.  0.
          5    1    3    3  501    0 -0.74490455869E+00  0.34918131022E+02 -0.28879508076E+01  0.35359030201E+02  0.47000000000E+01 0. -1.
        -11    1    4    4    0    0  0.67599177459E+02  0.20721137541E+02 -0.34663968111E+02  0.78743920523E+02  0.00000000000E+00 0.  1.
         12    1    4    4    0    0  0.16778219477E+03 -0.12554132405E+02 -0.22557369695E+03  0.28141066767E+03  0.00000000000E+00 0. -1.
         -5    1    5    5    0  502 -0.91381951220E+02 -0.83050411162E+02  0.52473967672E+02  0.13425214742E+03  0.47000000000E+01 0.  1.
         11    1    6    6    0    0 -0.92177124949E+00 -0.12219080487E+02  0.25258394171E+02  0.28073868032E+02  0.00000000000E+00 0. -1.
        -12    1    6    6    0    0 -0.14233274520E+03  0.52184355491E+02  0.98018422808E+02  0.18052542348E+03  0.00000000000E+00 0.  1.
<mgrwt>
<rscale>  2 0.29506157E+03</rscale>
<asrwt>0</asrwt>
<pdfrwt beam="1">  1       21 0.50076172E-01 0.29528957E+03</pdfrwt>
<pdfrwt beam="2">  1       21 0.63518453E-01 0.29528957E+03</pdfrwt>
<totfact> 0.81939822E+03</totfact>
</mgrwt>
</event>
<event>
12    1  0.1013215E-001  0.2619367E+03  0.7546771E-02  0.1105986E+00
         21   -1    0    0  501  502  0.00000000000E+00  0.00000000000E+00  0.49916035231E+03  0.49916035231E+03  0.00000000000E+00 0. -1.
         21   -1    0    0  502  503 -0.00000000000E+00 -0.00000000000E+00 -0.16642112756E+03  0.16642112756E+03  0.00000000000E+00 0.  1.
         -6    2    1    2    0  503 -0.96205469895E+01  0.19626560245E+03  0.27518598526E+02  0.26337822449E+03  0.17319952149E+03 0.  0.
        -24    2    3    3    0    0  0.17089509074E+02  0.56757973901E+02  0.61506061858E+02  0.11725141935E+03  0.80320487879E+02 0.  0.
          6    2    1    2  501    0  0.96205469895E+01 -0.19626560245E+03  0.30522062623E+03  0.40220325537E+03  0.17319089563E+03 0.  0.
         24    2    5    5    0    0  0.40905838414E+02 -0.19785986204E+03  0.20142607418E+03  0.29368270360E+03  0.69679655619E+02 0.  0.
          5    1    5    5  501    0 -0.31285291424E+02  0.15942595984E+01  0.10379455204E+03  0.10852055177E+03  0.47000000000E+01 0. -1.
        -11    1    6    6    0    0  0.21877925639E+02 -0.78056215880E+02  0.36380767828E+02  0.88853681609E+02  0.00000000000E+00 0.  1.
         12    1    6    6    0    0  0.19027912775E+02 -0.11980364616E+03  0.16504530636E+03  0.20482902199E+03  0.00000000000E+00 0. -1.
         -5    1    3    3    0  503 -0.26710056064E+02  0.13950762854E+03 -0.33987463332E+02  0.14612680514E+03  0.47000000000E+01 0.  1.
         13    1    4    4    0    0  0.16682405737E+02  0.76935014132E+02  0.42188757930E+02  0.89315118297E+02  0.00000000000E+00 0. -1.
        -14    1    4    4    0    0  0.40710333706E+00 -0.20177040231E+02  0.19317303927E+02  0.27936301055E+02  0.00000000000E+00 0.  1.
<mgrwt>
<rscale>  2 0.26193524E+03</rscale>
<asrwt>0</asrwt>
<pdfrwt beam="1">  1       21 0.76793900E-01 0.26193666E+03</pdfrwt>
<pdfrwt beam="2">  1       21 0.25603251E-01 0.26193666E+03</pdfrwt>
<totfact> 0.21033763E+04</totfact>
</mgrwt>
</event>
<event>
12    1  0.1013215E-001  0.2245851E+03  0.7546771E-02  0.1130806E+00
         21   -1    0    0  503  502  0.00000000000E+00  0.00000000000E+00  0.50538196148E+02  0.50538196148E+02  0.00000000000E+00 0.  1.
         21   -1    0    0  501  503 -0.00000000000E+00 -0.00000000000E+00 -0.13884673502E+04  0.13884673502E+04  0.00000000000E+00 0.  1.
          6    2    1    2  501    0  0.14276708020E+03 -0.57614712018E+01 -0.10522766268E+04  0.10756381912E+04  0.17116011603E+03 0.  0.
         24    2    3    3    0    0  0.90617858176E+02  0.45274109319E+02 -0.86725280343E+03  0.87669076837E+03  0.78726978160E+02 0.  0.
         -6    2    1    2    0  502 -0.14276708020E+03  0.57614712018E+01 -0.28565252729E+03  0.36336735519E+03  0.17327098641E+03 0.  0.
        -24    2    5    5    0    0 -0.13325017419E+03 -0.53195904960E+02 -0.19410256786E+03  0.25395972851E+03  0.78957733175E+02 0.  0.
          5    1    3    3  501    0  0.52149222021E+02 -0.51035580521E+02 -0.18502382336E+03  0.19894742282E+03  0.47000000000E+01 0. -1.
        -11    1    4    4    0    0  0.47911960987E+01  0.41994235408E+02 -0.30543921363E+03  0.30834977637E+03  0.00000000000E+00 0.  1.
         12    1    4    4    0    0  0.85826662077E+02  0.32798739114E+01 -0.56181358980E+03  0.56834099199E+03  0.00000000000E+00 0. -1.
         -5    1    5    5    0  502 -0.95169060098E+01  0.58957376162E+02 -0.91549959435E+02  0.10940762668E+03  0.47000000000E+01 0.  1.
         13    1    6    6    0    0 -0.15200506263E+02 -0.25628600805E+02 -0.63409724889E+01  0.30464544998E+02  0.00000000000E+00 0. -1.
        -14    1    6    6    0    0 -0.11804966792E+03 -0.27567304156E+02 -0.18776159537E+03  0.22349518351E+03  0.00000000000E+00 0.  1.
<mgrwt>
<rscale>  2 0.22417787E+03</rscale>
<asrwt>0</asrwt>
<pdfrwt beam="1">  1       21 0.77751063E-02 0.22458510E+03</pdfrwt>
<pdfrwt beam="2">  1       21 0.21361038E+00 0.22458510E+03</pdfrwt>
<totfact> 0.13544673E+04</totfact>
</mgrwt>
</event>
<event>
12    1  0.1013215E-001  0.1794010E+03  0.7546771E-02  0.1169600E+00
         21   -1    0    0  501  502  0.00000000000E+00  0.00000000000E+00  0.20993275274E+04  0.20993275274E+04  0.00000000000E+00 0. -1.
         21   -1    0    0  502  503 -0.00000000000E+00 -0.00000000000E+00 -0.17669953675E+02  0.17669953675E+02  0.00000000000E+00 0. -1.
         -6    2    1    2    0  503 -0.25431844812E+02  0.25142146935E+01  0.61048263297E+03  0.63492446887E+03  0.17258892203E+03 0.  0.
        -24    2    3    3    0    0  0.36846024242E+02 -0.30710921875E+02  0.44194425081E+03  0.45214121216E+03  0.82560067121E+02 0.  0.
          6    2    1    2  501    0  0.25431844812E+02 -0.25142146935E+01  0.14711749408E+04  0.14820730122E+04  0.17757141432E+03 0.  0.
         24    2    5    5    0    0 -0.45949997894E+02  0.34397005583E+02  0.84837959909E+03  0.85409695115E+03  0.80244012344E+02 0.  0.
          5    1    5    5  501    0  0.71381842706E+02 -0.36911220277E+02  0.62279534169E+03  0.62797606107E+03  0.47000000000E+01 0. -1.
        -11    1    6    6    0    0 -0.52467654581E+01 -0.83302888806E+01  0.11496114701E+02  0.15135485253E+02  0.00000000000E+00 0.  1.
         12    1    6    6    0    0 -0.40703232436E+02  0.42727294464E+02  0.83688348439E+03  0.83896146590E+03  0.00000000000E+00 0. -1.
         -5    1    3    3    0  503 -0.62277869054E+02  0.33225136569E+02  0.16853838216E+03  0.18278325671E+03  0.47000000000E+01 0.  1.
         13    1    4    4    0    0 -0.19104230186E+02  0.84021182166E+00  0.22701359540E+03  0.22781758067E+03  0.00000000000E+00 0. -1.
        -14    1    4    4    0    0  0.55950254428E+02 -0.31551133697E+02  0.21493065541E+03  0.22432363149E+03  0.00000000000E+00 0.  1.
<mgrwt>
<rscale>  2 0.17815550E+03</rscale>
<asrwt>0</asrwt>
<pdfrwt beam="1">  1       21 0.32297327E+00 0.17940097E+03</pdfrwt>
<pdfrwt beam="2">  1       21 0.27184561E-02 0.17940097E+03</pdfrwt>
<totfact> 0.19004486E+04</totfact>
</mgrwt>
</event>
<event>
12    1  0.1013215E-001  0.1756248E+03  0.7546771E-02  0.1172855E+00
         21   -1    0    0  503  502  0.00000000000E+00  0.00000000000E+00  0.20789424472E+03  0.20789424472E+03  0.00000000000E+00 0.  1.
         21   -1    0    0  501  503 -0.00000000000E+00 -0.00000000000E+00 -0.32178329175E+03  0.32178329175E+03  0.00000000000E+00 0.  1.
          6    2    1    2  501    0 -0.85721338672E+01 -0.17909575755E+02 -0.25298029496E+03  0.30796605727E+03  0.17449879201E+03 0.  0.
         24    2    3    3    0    0  0.17004301336E+02  0.32018486527E+02 -0.22964764030E+03  0.24702782449E+03  0.83488787488E+02 0.  0.
         -6    2    1    2    0  502  0.85721338672E+01  0.17909575755E+02  0.13909124793E+03  0.22171147920E+03  0.17150909707E+03 0.  0.
        -24    2    5    5    0    0  0.40274745554E+02  0.51687777308E+02  0.14052873671E+03  0.17512630064E+03  0.81407701610E+02 0.  0.
          5    1    3    3  501    0 -0.25576435204E+02 -0.49928062282E+02 -0.23332654665E+02  0.60938232783E+02  0.47000000000E+01 0. -1.
        -11    1    4    4    0    0 -0.29717977275E+01 -0.19254646105E+02 -0.14342589942E+03  0.14474308828E+03  0.00000000000E+00 0.  1.
         12    1    4    4    0    0  0.19976099064E+02  0.51273132631E+02 -0.86221740874E+02  0.10228473622E+03  0.00000000000E+00 0. -1.
         -5    1    5    5    0  502 -0.31702611687E+02 -0.33778201553E+02 -0.14374887795E+01  0.46585178565E+02  0.47000000000E+01 0.  1.
         13    1    6    6    0    0  0.26140033787E+02  0.46040726818E+02  0.24912158490E+02  0.58512097322E+02  0.00000000000E+00 0. -1.
        -14    1    6    6    0    0  0.14134711766E+02  0.56470504906E+01  0.11561657822E+03  0.11661420332E+03  0.00000000000E+00 0.  1.
<mgrwt>
<rscale>  2 0.17487747E+03</rscale>
<asrwt>0</asrwt>
<pdfrwt beam="1">  1       21 0.31983730E-01 0.17562478E+03</pdfrwt>
<pdfrwt beam="2">  1       21 0.49505122E-01 0.17562478E+03</pdfrwt>
<totfact> 0.36898054E+04</totfact>
</mgrwt>
</event>
<event>
12    1  0.1013215E-001  0.1897928E+03  0.7546771E-02  0.1159095E+00
         21   -1    0    0  503  502  0.00000000000E+00  0.00000000000E+00  0.92361175369E+03  0.92361175369E+03  0.00000000000E+00 0. -1.
         21   -1    0    0  501  503 -0.00000000000E+00 -0.00000000000E+00 -0.42035503352E+02  0.42035503352E+02  0.00000000000E+00 0. -1.
          6    2    1    2  501    0  0.34710140191E+02  0.65147099972E+02  0.58098601494E+03  0.61120049424E+03  0.17484952424E+03 0.  0.
         24    2    3    3    0    0  0.27002680386E+02 -0.81339919959E+01  0.13354422646E+03  0.15770764153E+03  0.79008437534E+02 0.  0.
         -6    2    1    2    0  502 -0.34710140191E+02 -0.65147099972E+02  0.30059023540E+03  0.35444676281E+03  0.17271097123E+03 0.  0.
        -24    2    5    5    0    0 -0.50019155033E+02 -0.93312547837E+02  0.29182888825E+03  0.32088324701E+03  0.81196125160E+02 0.  0.
          5    1    3    3  501    0  0.77074598049E+01  0.73281091968E+02  0.44744178848E+03  0.45349285271E+03  0.47000000000E+01 0. -1.
        -11    1    4    4    0    0 -0.10479117748E+01 -0.20831029272E+02  0.12360551233E+03  0.12535291212E+03  0.00000000000E+00 0.  1.
         12    1    4    4    0    0  0.28050592161E+02  0.12697037276E+02  0.99387141277E+01  0.32354729402E+02  0.00000000000E+00 0. -1.
         -5    1    5    5    0  502  0.15309014843E+02  0.28165447865E+02  0.87613471491E+01  0.33563515799E+02  0.47000000000E+01 0.  1.
         11    1    6    6    0    0 -0.44678867752E+02 -0.10150631389E+02  0.67545371987E+02  0.81618709976E+02  0.00000000000E+00 0. -1.
        -12    1    6    6    0    0 -0.53402872812E+01 -0.83161916448E+02  0.22428351626E+03  0.23926453703E+03  0.00000000000E+00 0.  1.
<mgrwt>
<rscale>  2 0.18929876E+03</rscale>
<asrwt>0</asrwt>
<pdfrwt beam="1">  1       21 0.14209410E+00 0.18979277E+03</pdfrwt>
<pdfrwt beam="2">  1       21 0.64670012E-02 0.18979277E+03</pdfrwt>
<totfact> 0.59792665E+04</totfact>
</mgrwt>
</event>
<event>
12    1  0.1013215E-001  0.1799487E+03  0.7546771E-02  0.1170136E+00
         21   -1    0    0  501  502  0.00000000000E+00  0.00000000000E+00  0.19493934961E+02  0.19493934961E+02  0.00000000000E+00 0.  1.
         21   -1    0    0  502  503 -0.00000000000E+00 -0.00000000000E+00 -0.20570429356E+04  0.20570429356E+04  0.00000000000E+00 0.  1.
         -6    2    1    2    0  503 -0.37326906359E+02  0.28967055014E+02 -0.14995047433E+04  0.15091982118E+04  0.16411087408E+03 0.  0.
        -24    2    3    3    0    0  0.37243569443E+02  0.95005643642E+01 -0.96863251512E+03  0.97274027979E+03  0.80606193285E+02 0.  0.
          6    2    1    2  501    0  0.37326906359E+02 -0.28967055014E+02 -0.53804425731E+03  0.56733865878E+03  0.17363508487E+03 0.  0.
         24    2    5    5    0    0 -0.32519559609E+02  0.14932247971E+02 -0.36399527432E+03  0.37467102763E+03  0.81273153189E+02 0.  0.
          5    1    5    5  501    0  0.69846465968E+02 -0.43899302985E+02 -0.17404898299E+03  0.19266763115E+03  0.47000000000E+01 0. -1.
        -11    1    6    6    0    0  0.15236717352E+02  0.33204819168E+02 -0.18191877866E+03  0.18555096228E+03  0.00000000000E+00 0.  1.
         12    1    6    6    0    0 -0.47756276962E+02 -0.18272571197E+02 -0.18207649566E+03  0.18912006535E+03  0.00000000000E+00 0. -1.
         -5    1    3    3    0  503 -0.74570475802E+02  0.19466490650E+02 -0.53087222820E+03  0.53645793199E+03  0.47000000000E+01 0.  1.
         11    1    4    4    0    0  0.59881226926E+01 -0.64698629010E+01 -0.94791653095E+01  0.12944933924E+02  0.00000000000E+00 0. -1.
        -12    1    4    4    0    0  0.31255446750E+02  0.15970427265E+02 -0.95915334981E+03  0.95979534587E+03  0.00000000000E+00 0.  1.
<mgrwt>
<rscale>  2 0.17761058E+03</rscale>
<asrwt>0</asrwt>
<pdfrwt beam="1">  1       21 0.29990684E-02 0.17994869E+03</pdfrwt>
<pdfrwt beam="2">  1       21 0.31646799E+00 0.17994869E+03</pdfrwt>
<totfact> 0.17608691E+04</totfact>
</mgrwt>
</event>
<event>
11    1  0.1013215E-001  0.1950797E+03  0.7546771E-02  0.1153991E+00
         21   -1    0    0  501  502  0.00000000000E+00  0.00000000000E+00  0.16562814030E+03  0.16562814030E+03  0.00000000000E+00 0. -1.
         21   -1    0    0  502  503 -0.00000000000E+00 -0.00000000000E+00 -0.35731003316E+03  0.35731003316E+03  0.00000000000E+00 0. -1.
         -6    2    1    2    0  503 -0.17479427530E+02 -0.90886487009E+02 -0.25218924232E+03  0.31883457767E+03  0.17172708019E+03 0.  0.
        -24    2    3    3    0    0  0.90828318977E+01 -0.77158659548E+02 -0.26495974531E+03  0.28598366263E+03  0.74478400064E+02 0.  0.
          6    2    1    2  501    0  0.17479427530E+02  0.90886487009E+02  0.60507349463E+02  0.20410359579E+03  0.17155539795E+03 0.  0.
          5    1    5    5  501    0 -0.17618231859E+02 -0.13152398224E+02  0.79597368278E+02  0.82711660059E+02  0.47000000000E+01 0. -1.
        -13    1    5    5    0    0  0.30416582853E+02  0.25413463609E+02 -0.15457814695E+02  0.42543585653E+02  0.00000000000E+00 0.  1.
         14    1    5    5    0    0  0.46810765349E+01  0.78625421624E+02 -0.36322041204E+01  0.78848350077E+02  0.00000000000E+00 0. -1.
         -5    1    3    3    0  503 -0.26562259427E+02 -0.13727827461E+02  0.12770502991E+02  0.32850915045E+02  0.47000000000E+01 0.  1.
         11    1    4    4    0    0  0.33951358646E+02 -0.70175315647E+02 -0.16125076138E+03  0.17910633078E+03  0.00000000000E+00 0. -1.
        -12    1    4    4    0    0 -0.24868526748E+02 -0.69833439003E+01 -0.10370898393E+03  0.10687733185E+03  0.00000000000E+00 0.  1.
<mgrwt>
<rscale>  2 0.19504187E+03</rscale>
<asrwt>0</asrwt>
<pdfrwt beam="1">  1       21 0.25481253E-01 0.19507966E+03</pdfrwt>
<pdfrwt beam="2">  1       21 0.54970774E-01 0.19507966E+03</pdfrwt>
<totfact> 0.45552732E+04</totfact>
</mgrwt>
</event>
<event>
12    1  0.1013215E-001  0.2038696E+03  0.7546771E-02  0.1146624E+00
         21   -1    0    0  503  502  0.00000000000E+00  0.00000000000E+00  0.16734496548E+03  0.16734496548E+03  0.00000000000E+00 0.  1.
         21   -1    0    0  501  503 -0.00000000000E+00 -0.00000000000E+00 -0.25719170440E+03  0.25719170440E+03  0.00000000000E+00 0. -1.
          6    2    1    2  501    0 -0.99507060812E+02  0.41021262545E+02 -0.41313865696E+01  0.20338076715E+03  0.17251744538E+03 0.  0.
         24    2    3    3    0    0 -0.10933768845E+03 -0.23005395958E+02  0.42955493493E+01  0.13788910747E+03  0.80690618137E+02 0.  0.
         -6    2    1    2    0  502  0.99507060812E+02 -0.41021262545E+02 -0.85715352350E+02  0.22115590273E+03  0.17314275195E+03 0.  0.
        -24    2    5    5    0    0  0.28760613772E+02 -0.24934573308E+02  0.14090428968E+02  0.97676652150E+02  0.88844146325E+02 0.  0.
          5    1    3    3  501    0  0.98306276411E+01  0.64026658503E+02 -0.84269359189E+01  0.65491659682E+02  0.47000000000E+01 0. -1.
        -13    1    4    4    0    0 -0.61334079684E+02  0.26236772496E+01  0.39571375242E+02  0.73038666140E+02  0.00000000000E+00 0.  1.
         14    1    4    4    0    0 -0.48003608770E+02 -0.25629073208E+02 -0.35275825892E+02  0.64850441331E+02  0.00000000000E+00 0. -1.
         -5    1    5    5    0  502  0.70746447040E+02 -0.16086689237E+02 -0.99805781318E+02  0.12347925058E+03  0.47000000000E+01 0.  1.
         11    1    6    6    0    0  0.16016571898E+02 -0.24906943220E+01 -0.37023408345E+02  0.40416171257E+02  0.00000000000E+00 0. -1.
        -12    1    6    6    0    0  0.12744041874E+02 -0.22443878986E+02  0.51113837313E+02  0.57260480893E+02  0.00000000000E+00 0.  1.
<mgrwt>
<rscale>  2 0.20373677E+03</rscale>
<asrwt>0</asrwt>
<pdfrwt beam="1">  1       21 0.25745379E-01 0.20386959E+03</pdfrwt>
<pdfrwt beam="2">  1       21 0.39567954E-01 0.20386959E+03</pdfrwt>
<totfact> 0.87752190E+04</totfact>
</mgrwt>
</event>
<event>
12    1  0.1013215E-001  0.2944577E+03  0.7546771E-02  0.1088281E+00
         21   -1    0    0  501  502  0.00000000000E+00  0.00000000000E+00  0.36525948117E+03  0.36525948117E+03  0.00000000000E+00 0.  1.
         21   -1    0    0  502  503 -0.00000000000E+00 -0.00000000000E+00 -0.24409234946E+03  0.24409234946E+03  0.00000000000E+00 0.  1.
         -6    2    1    2    0  503  0.18097460202E+02 -0.23580686956E+03  0.11623316892E+03  0.31485281285E+03  0.17230712813E+03 0.  0.
        -24    2    3    3    0    0  0.34465729339E+02 -0.11081340435E+03 -0.36338083296E+01  0.14083709857E+03  0.79714407038E+02 0.  0.
          6    2    1    2  501    0 -0.18097460202E+02  0.23580686956E+03  0.49339627949E+01  0.29449901777E+03  0.17542214707E+03 0.  0.
         24    2    5    5    0    0  0.34447209476E+01  0.29689168588E+02  0.24524448196E+02  0.86281704991E+02  0.77134760147E+02 0.  0.
          5    1    5    5  501    0 -0.21542181150E+02  0.20611770098E+03 -0.19590485401E+02  0.20821731278E+03  0.47000000000E+01 0. -1.
        -13    1    6    6    0    0 -0.34838575849E+02  0.25748150249E+02  0.19364061323E+02  0.47451664663E+02  0.00000000000E+00 0.  1.
         14    1    6    6    0    0  0.38283296796E+02  0.39410183396E+01  0.51603868733E+01  0.38830040327E+02  0.00000000000E+00 0. -1.
         -5    1    3    3    0  503 -0.16368269137E+02 -0.12499346522E+03  0.11986697725E+03  0.17401571428E+03  0.47000000000E+01 0.  1.
         11    1    4    4    0    0 -0.21769656331E+02 -0.81200905205E+01  0.36887204959E+01  0.23525740492E+02  0.00000000000E+00 0. -1.
        -12    1    4    4    0    0  0.56235385670E+02 -0.10269331383E+03 -0.73225288255E+01  0.11731135808E+03  0.00000000000E+00 0.  1.
<mgrwt>
<rscale>  2 0.29399533E+03</rscale>
<asrwt>0</asrwt>
<pdfrwt beam="1">  1       21 0.56193766E-01 0.29445768E+03</pdfrwt>
<pdfrwt beam="2">  1       21 0.37552669E-01 0.29445768E+03</pdfrwt>
<totfact> 0.19368239E+04</totfact>
</mgrwt>
</event>
<event>
12    1  0.1013215E-001  0.1787665E+03  0.7546771E-02  0.1169417E+00
         21   -1    0    0  503  502  0.00000000000E+00  0.00000000000E+00  0.13061144696E+03  0.13061144696E+03  0.00000000000E+00 0.  1.
         21   -1    0    0  501  503 -0.00000000000E+00 -0.00000000000E+00 -0.24248184408E+03  0.24248184408E+03  0.00000000000E+00 0.  1.
          6    2    1    2  501    0 -0.31283480145E+02  0.26303462526E+02 -0.59712912788E+02  0.18687338454E+03  0.17229481021E+03 0.  0.
         24    2    3    3    0    0 -0.50303269187E+02  0.73040154626E+02 -0.18306720612E+02  0.12143155148E+03  0.80902426394E+02 0.  0.
         -6    2    1    2    0  502  0.31283480145E+02 -0.26303462526E+02 -0.52157484333E+02  0.18621990651E+03  0.17403138262E+03 0.  0.
        -24    2    5    5    0    0  0.54731785069E+02  0.42373101881E+02 -0.26261838444E+02  0.10902555452E+03  0.80036487434E+02 0.  0.
          5    1    3    3  501    0  0.19019789042E+02 -0.46736692100E+02 -0.41406192176E+02  0.65441833059E+02  0.47000000000E+01 0. -1.
        -13    1    4    4    0    0 -0.68588717851E+02  0.53888509750E+02 -0.30332471545E+02  0.92349567024E+02  0.00000000000E+00 0.  1.
         14    1    4    4    0    0  0.18285448665E+02  0.19151644876E+02  0.12025750933E+02  0.29081984455E+02  0.00000000000E+00 0. -1.
         -5    1    5    5    0  502 -0.23448304924E+02 -0.68676564407E+02 -0.25895645889E+02  0.77194351986E+02  0.47000000000E+01 0.  1.
         13    1    6    6    0    0  0.26246786566E+02 -0.74155490612E+00  0.24987534665E+02  0.36246663258E+02  0.00000000000E+00 0. -1.
        -14    1    6    6    0    0  0.28484998503E+02  0.43114656787E+02 -0.51249373110E+02  0.72778891265E+02  0.00000000000E+00 0.  1.
<mgrwt>
<rscale>  2 0.17834243E+03</rscale>
<asrwt>0</asrwt>
<pdfrwt beam="1">  1       21 0.20094069E-01 0.17876647E+03</pdfrwt>
<pdfrwt beam="2">  1       21 0.37304899E-01 0.17876647E+03</pdfrwt>
<totfact> 0.15926746E+05</totfact>
</mgrwt>
</event>
<event>
12    1  0.1013215E-001  0.3948083E+03  0.7546771E-02  0.1045702E+00
         21   -1    0    0  501  502  0.00000000000E+00  0.00000000000E+00  0.12087004734E+03  0.12087004734E+03  0.00000000000E+00 0.  1.
         21   -1    0    0  502  503 -0.00000000000E+00 -0.00000000000E+00 -0.13381867208E+04  0.13381867208E+04  0.00000000000E+00 0. -1.
         -6    2    1    2    0  503 -0.29786860955E+03  0.19318447782E+03 -0.46487411750E+03  0.60990290130E+03  0.17270684081E+03 0.  0.
        -24    2    3    3    0    0 -0.26841674109E+03  0.16684880575E+03 -0.46754962952E+03  0.57002523156E+03  0.80249845314E+02 0.  0.
          6    2    1    2  501    0  0.29786860955E+03 -0.19318447782E+03 -0.75244255598E+03  0.84915386686E+03  0.16984268760E+03 0.  0.
         24    2    5    5    0    0  0.28157961354E+03 -0.16000256418E+03 -0.73696595853E+03  0.80880556018E+03  0.78483825297E+02 0.  0.
          5    1    5    5  501    0  0.16288996010E+02 -0.33181913634E+02 -0.15476597441E+02  0.40348306678E+02  0.47000000000E+01 0. -1.
        -13    1    6    6    0    0  0.28318803465E+03 -0.15249490328E+03 -0.69082012629E+03  0.76202533119E+03  0.00000000000E+00 0.  1.
         14    1    6    6    0    0 -0.16084211021E+01 -0.75076609061E+01 -0.46145832242E+02  0.46780228987E+02  0.00000000000E+00 0. -1.
         -5    1    3    3    0  503 -0.29451868461E+02  0.26335672069E+02  0.26755120194E+01  0.39877669738E+02  0.47000000000E+01 0.  1.
         13    1    4    4    0    0 -0.12188024184E+03  0.10718291322E+03 -0.18428124436E+03  0.24556576972E+03  0.00000000000E+00 0. -1.
        -14    1    4    4    0    0 -0.14653649925E+03  0.59665892532E+02 -0.28326838516E+03  0.32445946184E+03  0.00000000000E+00 0.  1.
<mgrwt>
<rscale>  2 0.39449682E+03</rscale>
<asrwt>0</asrwt>
<pdfrwt beam="1">  1       21 0.18595391E-01 0.39480831E+03</pdfrwt>
<pdfrwt beam="2">  1       21 0.20587489E+00 0.39480831E+03</pdfrwt>
<totfact> 0.28341661E+03</totfact>
</mgrwt>
</event>
<event>
12    1  0.1013215E-001  0.1950009E+03  0.7546771E-02  0.1154336E+00
         21   -1    0    0  501  502  0.00000000000E+00  0.00000000000E+00  0.10979757473E+04  0.10979757473E+04  0.00000000000E+00 0.  1.
         21   -1    0    0  502  503 -0.00000000000E+00 -0.00000000000E+00 -0.34716260965E+02  0.34716260965E+02  0.00000000000E+00 0.  1.
         -6    2    1    2    0  503 -0.84212348257E+02 -0.30417544665E+02  0.47796690959E+03  0.51621478269E+03  0.17322929482E+03 0.  0.
        -24    2    3    3    0    0 -0.28094857702E+02  0.40007010252E+02  0.15701771955E+03  0.18283922380E+03  0.79910797817E+02 0.  0.
          6    2    1    2  501    0  0.84212348257E+02  0.30417544665E+02  0.58529257678E+03  0.61647722561E+03  0.17163863969E+03 0.  0.
         24    2    5    5    0    0  0.10516548440E+03  0.95915568250E+01  0.28583228520E+03  0.31552654540E+03  0.81884849132E+02 0.  0.
          5    1    5    5  501    0 -0.20953136145E+02  0.20825987840E+02  0.29946029158E+03  0.30095068021E+03  0.47000000000E+01 0. -1.
        -11    1    6    6    0    0  0.59390938284E+02 -0.32594587394E+02  0.18514278802E+03  0.19714852937E+03  0.00000000000E+00 0.  1.
         12    1    6    6    0    0  0.45774546117E+02  0.42186144219E+02  0.10068949718E+03  0.11837801603E+03  0.00000000000E+00 0. -1.
         -5    1    3    3    0  503 -0.56117490555E+02 -0.70424554917E+02  0.32094919004E+03  0.33337555889E+03  0.47000000000E+01 0.  1.
         13    1    4    4    0    0 -0.46628970995E+02 -0.31197339851E+01  0.77454326539E+02  0.90460855489E+02  0.00000000000E+00 0. -1.
        -14    1    4    4    0    0  0.18534113293E+02  0.43126744237E+02  0.79563393011E+02  0.92378368309E+02  0.00000000000E+00 0.  1.
<mgrwt>
<rscale>  2 0.19464698E+03</rscale>
<asrwt>0</asrwt>
<pdfrwt beam="1">  1       21 0.16891932E+00 0.19500086E+03</pdfrwt>
<pdfrwt beam="2">  1       21 0.53409641E-02 0.19500086E+03</pdfrwt>
<totfact> 0.52149593E+04</totfact>
</mgrwt>
</event>
<event>
12    1  0.1013215E-001  0.2581118E+03  0.7546771E-02  0.1108985E+00
         21   -1    0    0  503  502  0.00000000000E+00  0.00000000000E+00  0.30888586066E+03  0.30888586066E+03  0.00000000000E+00 0.  1.
         21   -1    0    0  501  503 -0.00000000000E+00 -0.00000000000E+00 -0.28436749113E+03  0.28436749113E+03  0.00000000000E+00 0.  1.
          6    2    1    2  501    0  0.18379210303E+03  0.25119057844E+01  0.16194600423E+03  0.30083574694E+03  0.17461326278E+03 0.  0.
         24    2    3    3    0    0  0.16082380833E+03 -0.27253712431E+02  0.18361875505E+03  0.25718562990E+03  0.76299009504E+02 0.  0.
         -6    2    1    2    0  502 -0.18379210303E+03 -0.25119057844E+01 -0.13742763470E+03  0.29241760486E+03  0.18120666115E+03 0.  0.
        -24    2    5    5    0    0 -0.16937565435E+03  0.41412778823E+02 -0.14932326731E+03  0.24445086654E+03  0.83997961019E+02 0.  0.
          5    1    3    3  501    0  0.22968294704E+02  0.29765618215E+02 -0.21672750821E+02  0.43650117039E+02  0.47000000000E+01 0. -1.
        -13    1    4    4    0    0  0.25114346725E+02 -0.34575456769E+02  0.58568709722E+02  0.72501630193E+02  0.00000000000E+00 0.  1.
         14    1    4    4    0    0  0.13570946161E+03  0.73217443379E+01  0.12505004533E+03  0.18468399970E+03  0.00000000000E+00 0. -1.
         -5    1    5    5    0  502 -0.14416448684E+02 -0.43924684608E+02  0.11895632603E+02  0.47966738325E+02  0.47000000000E+01 0.  1.
         11    1    6    6    0    0 -0.47175854051E+02  0.40547854428E+02 -0.17334059118E+02  0.64576770666E+02  0.00000000000E+00 0. -1.
        -12    1    6    6    0    0 -0.12219980030E+03  0.86492439545E+00 -0.13198920819E+03  0.17987409587E+03  0.00000000000E+00 0.  1.
<mgrwt>
<rscale>  2 0.25695773E+03</rscale>
<asrwt>0</asrwt>
<pdfrwt beam="1">  1       21 0.47520902E-01 0.25811180E+03</pdfrwt>
<pdfrwt beam="2">  1       21 0.43748844E-01 0.25811180E+03</pdfrwt>
<totfact> 0.20533710E+04</totfact>
</mgrwt>
</event>
<event>
12    1  0.1013215E-001  0.2872503E+03  0.7546771E-02  0.1092040E+00
         21   -1    0    0  501  502  0.00000000000E+00  0.00000000000E+00  0.17310303188E+03  0.17310303188E+03  0.00000000000E+00 0. -1.
         21   -1    0    0  502  503 -0.00000000000E+00 -0.00000000000E+00 -0.49026499347E+03  0.49026499347E+03  0.00000000000E+00 0.  1.
         -6    2    1    2    0  503 -0.16381156037E+03 -0.15713656125E+03 -0.97912336623E+02  0.30347913042E+03  0.17603019838E+03 0.  0.
        -24    2    3    3    0    0 -0.16236876712E+03 -0.89119052297E+02 -0.24727906387E+02  0.20344656569E+03  0.80456284525E+02 0.  0.
          6    2    1    2  501    0  0.16381156037E+03  0.15713656125E+03 -0.21924962497E+03  0.35988889493E+03  0.17298408150E+03 0.  0.
         24    2    5    5    0    0  0.13461771279E+03  0.11624075054E+03 -0.23591871323E+03  0.30674102033E+03  0.82453463358E+02 0.  0.
          5    1    5    5  501    0  0.29193847588E+02  0.40895810717E+02  0.16669088262E+02  0.53147874602E+02  0.47000000000E+01 0. -1.
        -11    1    6    6    0    0  0.20530025815E+02  0.69068833544E+02 -0.98003951005E+02  0.12164193413E+03  0.00000000000E+00 0.  1.
         12    1    6    6    0    0  0.11408768697E+03  0.47171916993E+02 -0.13791476223E+03  0.18509908620E+03  0.00000000000E+00 0. -1.
         -5    1    3    3    0  503 -0.14427932550E+01 -0.68017508957E+02 -0.73184430236E+02  0.10003256473E+03  0.47000000000E+01 0.  1.
         13    1    4    4    0    0 -0.71250452430E+02 -0.82102175420E+02 -0.27073302288E+02  0.11202837978E+03  0.00000000000E+00 0. -1.
        -14    1    4    4    0    0 -0.91118314689E+02 -0.70168768773E+01  0.23453959011E+01  0.91418185909E+02  0.00000000000E+00 0.  1.
<mgrwt>
<rscale>  2 0.28678507E+03</rscale>
<asrwt>0</asrwt>
<pdfrwt beam="1">  1       21 0.26631236E-01 0.28725034E+03</pdfrwt>
<pdfrwt beam="2">  1       21 0.75425383E-01 0.28725034E+03</pdfrwt>
<totfact> 0.20075550E+04</totfact>
</mgrwt>
</event>
<event>
12    1  0.1013215E-001  0.2616606E+03  0.7546771E-02  0.1106578E+00
         21   -1    0    0  503  502  0.00000000000E+00  0.00000000000E+00  0.38252860202E+02  0.38252860202E+02  0.00000000000E+00 0. -1.
         21   -1    0    0  501  503 -0.00000000000E+00 -0.00000000000E+00 -0.20962964033E+04  0.20962964033E+04  0.00000000000E+00 0. -1.
          6    2    1    2  501    0  0.13465667169E+03  0.14080615581E+03 -0.14450968403E+04  0.14680885190E+04  0.17035324722E+03 0.  0.
         24    2    3    3    0    0  0.57446685141E+02  0.26716912285E+02 -0.89675435869E+03  0.90268662236E+03  0.81613989763E+02 0.  0.
         -6    2    1    2    0  502 -0.13465667169E+03 -0.14080615581E+03 -0.61294670277E+03  0.66646074454E+03  0.17466387959E+03 0.  0.
        -24    2    5    5    0    0 -0.23754165115E+02 -0.12347192824E+03 -0.34874927553E+03  0.37936805573E+03  0.80526313089E+02 0.  0.
          5    1    3    3  501    0  0.77209986547E+02  0.11408924352E+03 -0.54834248164E+03  0.56540189660E+03  0.47000000000E+01 0. -1.
        -13    1    4    4    0    0  0.49322151171E+02  0.45410665474E+01 -0.21943285734E+03  0.22495349466E+03  0.00000000000E+00 0.  1.
         14    1    4    4    0    0  0.81245339699E+01  0.22175845738E+02 -0.67732150135E+03  0.67773312770E+03  0.00000000000E+00 0. -1.
         -5    1    5    5    0  502 -0.11090250657E+03 -0.17334227565E+02 -0.26419742725E+03  0.28709268882E+03  0.47000000000E+01 0.  1.
         13    1    6    6    0    0 -0.33230686526E+02 -0.38070148710E+02 -0.61801864227E+02  0.79831605093E+02  0.00000000000E+00 0. -1.
        -14    1    6    6    0    0  0.94765214111E+01 -0.85401779533E+02 -0.28694741130E+03  0.29953645063E+03  0.00000000000E+00 0.  1.
<mgrwt>
<rscale>  2 0.26094326E+03</rscale>
<asrwt>0</asrwt>
<pdfrwt beam="1">  1       21 0.58850546E-02 0.26166059E+03</pdfrwt>
<pdfrwt beam="2">  1       21 0.32250719E+00 0.26166059E+03</pdfrwt>
<totfact> 0.48008447E+03</totfact>
</mgrwt>
</event>
<event>
12    1  0.1013215E-001  0.1903965E+03  0.7546771E-02  0.1159452E+00
         21   -1    0    0  501  502  0.00000000000E+00  0.00000000000E+00  0.89832575941E+03  0.89832575941E+03  0.00000000000E+00 0. -1.
         21   -1    0    0  502  503 -0.00000000000E+00 -0.00000000000E+00 -0.50635654496E+02  0.50635654496E+02  0.00000000000E+00 0. -1.
         -6    2    1    2    0  503  0.63573107951E+02 -0.23099227908E+02  0.19238555876E+03  0.26655766130E+03  0.17165567045E+03 0.  0.
        -24    2    3    3    0    0  0.15201622139E+02 -0.47965314549E+02  0.45726393301E+02  0.11006764975E+03  0.86557632601E+02 0.  0.
          6    2    1    2  501    0 -0.63573107951E+02  0.23099227908E+02  0.65530454616E+03  0.68240375261E+03  0.17797673715E+03 0.  0.
         24    2    5    5    0    0 -0.11128591217E+03  0.30894818669E+02  0.49720985218E+03  0.51701540602E+03  0.82147726014E+02 0.  0.
          5    1    5    5  501    0  0.47712804216E+02 -0.77955907614E+01  0.15809469398E+03  0.16538834659E+03  0.47000000000E+01 0. -1.
        -13    1    6    6    0    0  0.84366610843E+01 -0.98045583584E+01  0.24749134092E+02  0.27925369347E+02  0.00000000000E+00 0.  1.
         14    1    6    6    0    0 -0.11972257325E+03  0.40699377027E+02  0.47246071809E+03  0.48909003667E+03  0.00000000000E+00 0. -1.
         -5    1    3    3    0  503  0.48371485812E+02  0.24866086641E+02  0.14665916545E+03  0.15649001155E+03  0.47000000000E+01 0.  1.
         13    1    4    4    0    0  0.43861832033E+02 -0.30431451702E+02  0.53503025789E+02  0.75581130783E+02  0.00000000000E+00 0. -1.
        -14    1    4    4    0    0 -0.28660209894E+02 -0.17533862847E+02 -0.77766324876E+01  0.34486518966E+02  0.00000000000E+00 0.  1.
<mgrwt>
<rscale>  2 0.18890532E+03</rscale>
<asrwt>0</asrwt>
<pdfrwt beam="1">  1       21 0.13820395E+00 0.19039652E+03</pdfrwt>
<pdfrwt beam="2">  1       21 0.77901013E-02 0.19039652E+03</pdfrwt>
<totfact> 0.46554683E+04</totfact>
</mgrwt>
</event>
<event>
12    1  0.1013215E-001  0.2181439E+03  0.7546771E-02  0.1135354E+00
         21   -1    0    0  501  502  0.00000000000E+00  0.00000000000E+00  0.30283880261E+03  0.30283880261E+03  0.00000000000E+00 0.  1.
         21   -1    0    0  502  503 -0.00000000000E+00 -0.00000000000E+00 -0.16243442083E+03  0.16243442083E+03  0.00000000000E+00 0.  1.
         -6    2    1    2    0  503 -0.93175232630E+02  0.93029900322E+02  0.27058501866E+02  0.21981566935E+03  0.17392693764E+03 0.  0.
        -24    2    3    3    0    0 -0.39647434795E+02  0.52296146558E+01  0.62382687403E+02  0.11098551090E+03  0.82625153474E+02 0.  0.
          6    2    1    2  501    0  0.93175232630E+02 -0.93029900322E+02  0.11334587991E+03  0.24545755410E+03  0.17339531724E+03 0.  0.
         24    2    5    5    0    0 -0.15460353711E+01 -0.51004382872E+02  0.17565128017E+01  0.93100934352E+02  0.77851533976E+02 0.  0.
          5    1    5    5  501    0  0.94721268001E+02 -0.42025517450E+02  0.11158936711E+03  0.15235661975E+03  0.47000000000E+01 0. -1.
        -11    1    6    6    0    0 -0.10184450925E+02 -0.51816895810E+02  0.31925806861E+02  0.61708758502E+02  0.00000000000E+00 0.  1.
         12    1    6    6    0    0  0.86384155542E+01  0.81251293867E+00 -0.30169294059E+02  0.31392175850E+02  0.00000000000E+00 0. -1.
         -5    1    3    3    0  503 -0.53527797834E+02  0.87800285666E+02 -0.35324185537E+02  0.10883015845E+03  0.47000000000E+01 0.  1.
         13    1    4    4    0    0 -0.85458176046E+01  0.32321805328E+02  0.61182725225E+02  0.69721273398E+02  0.00000000000E+00 0. -1.
        -14    1    4    4    0    0 -0.31101617191E+02 -0.27092190672E+02  0.11999621774E+01  0.41264237501E+02  0.00000000000E+00 0.  1.
<mgrwt>
<rscale>  2 0.21803793E+03</rscale>
<asrwt>0</asrwt>
<pdfrwt beam="1">  1       21 0.46590585E-01 0.21814391E+03</pdfrwt>
<pdfrwt beam="2">  1       21 0.24989911E-01 0.21814391E+03</pdfrwt>
<totfact> 0.66122267E+04</totfact>
</mgrwt>
</event>
<event>
12    1  0.1013215E-001  0.1835798E+03  0.7546771E-02  0.1164711E+00
         21   -1    0    0  501  502  0.00000000000E+00  0.00000000000E+00  0.60083264933E+03  0.60083264933E+03  0.00000000000E+00 0.  1.
         21   -1    0    0  502  503 -0.00000000000E+00 -0.00000000000E+00 -0.11984404589E+03  0.11984404589E+03  0.00000000000E+00 0. -1.
         -6    2    1    2    0  503 -0.50520393208E+02  0.24381269196E+02 -0.22766738042E+02  0.18498615116E+03  0.17479930018E+03 0.  0.
        -24    2    3    3    0    0  0.39079095396E+01  0.60617975510E+02 -0.56281251715E+02  0.11135971806E+03  0.74455334259E+02 0.  0.
          6    2    1    2  501    0  0.50520393208E+02 -0.24381269196E+02  0.50375534148E+03  0.53569054406E+03  0.17334404665E+03 0.  0.
         24    2    5    5    0    0 -0.28971941531E+02 -0.38304126965E+02  0.22714500304E+03  0.24750961724E+03  0.85787986816E+02 0.  0.
          5    1    5    5  501    0  0.79492334739E+02  0.13922857769E+02  0.27661033844E+03  0.28818092682E+03  0.47000000000E+01 0. -1.
        -11    1    6    6    0    0  0.37259420520E+01  0.13399514418E+02  0.14192888394E+03  0.14260868742E+03  0.00000000000E+00 0.  1.
         12    1    6    6    0    0 -0.32697883583E+02 -0.51703641384E+02  0.85216119102E+02  0.10490092982E+03  0.00000000000E+00 0. -1.
         -5    1    3    3    0  503 -0.54428302748E+02 -0.36236706315E+02  0.33514513673E+02  0.73626433101E+02  0.47000000000E+01 0.  1.
         13    1    4    4    0    0 -0.32161933443E+02  0.13535570886E+02 -0.31746239402E+02  0.47174414232E+02  0.00000000000E+00 0. -1.
        -14    1    4    4    0    0  0.36069842983E+02  0.47082404625E+02 -0.24535012313E+02  0.64185303826E+02  0.00000000000E+00 0.  1.
<mgrwt>
<rscale>  2 0.18323256E+03</rscale>
<asrwt>0</asrwt>
<pdfrwt beam="1">  1       21 0.92435790E-01 0.18357982E+03</pdfrwt>
<pdfrwt beam="2">  1       21 0.18437546E-01 0.18357982E+03</pdfrwt>
<totfact> 0.26655797E+04</totfact>
</mgrwt>
</event>
<event>
12    1  0.1013215E-001  0.1734982E+03  0.7546771E-02  0.1174447E+00
         21   -1    0    0  501  502  0.00000000000E+00  0.00000000000E+00  0.19525763274E+03  0.19525763274E+03  0.00000000000E+00 0. -1.
         21   -1    0    0  502  503 -0.00000000000E+00 -0.00000000000E+00 -0.18749945314E+03  0.18749945314E+03  0.00000000000E+00 0. -1.
         -6    2    1    2    0  503  0.11653507001E+02  0.59539628914E+01 -0.77658395601E+02  0.18937242046E+03  0.17222030462E+03 0.  0.
        -24    2    3    3    0    0  0.48042356778E+02  0.52273611901E+02 -0.46631117904E+02  0.12263082748E+03  0.88449195277E+02 0.  0.
          6    2    1    2  501    0 -0.11653507001E+02 -0.59539628914E+01  0.85416575206E+02  0.19338466542E+03  0.17300399879E+03 0.  0.
         24    2    5    5    0    0  0.31722961244E+02  0.36426537303E+02  0.93634996833E+02  0.13200667874E+03  0.79529942230E+02 0.  0.
          5    1    5    5  501    0 -0.43376468245E+02 -0.42380500194E+02 -0.82184216269E+01  0.61377986674E+02  0.47000000000E+01 0. -1.
        -11    1    6    6    0    0 -0.18517616211E+02  0.62361846768E+01 -0.22054917403E+01  0.19663578089E+02  0.00000000000E+00 0.  1.
         12    1    6    6    0    0  0.50240577454E+02  0.30190352626E+02  0.95840488573E+02  0.11234310065E+03  0.00000000000E+00 0. -1.
         -5    1    3    3    0  503 -0.36388849777E+02 -0.46319649009E+02 -0.31027277697E+02  0.66741592981E+02  0.47000000000E+01 0.  1.
         13    1    4    4    0    0 -0.18816600009E+02  0.27759231658E+02 -0.38341788590E+02  0.50938513234E+02  0.00000000000E+00 0. -1.
        -14    1    4    4    0    0  0.66858956787E+02  0.24514380242E+02 -0.82893293136E+01  0.71692314245E+02  0.00000000000E+00 0.  1.
<mgrwt>
<rscale>  2 0.17330254E+03</rscale>
<asrwt>0</asrwt>
<pdfrwt beam="1">  1       21 0.30039636E-01 0.17349823E+03</pdfrwt>
<pdfrwt beam="2">  1       21 0.28846070E-01 0.17349823E+03</pdfrwt>
<totfact> 0.12306645E+05</totfact>
</mgrwt>
</event>
<event>
12    1  0.1013215E-001  0.2296913E+03  0.7546771E-02  0.1126957E+00
         21   -1    0    0  503  502  0.00000000000E+00  0.00000000000E+00  0.22539014743E+03  0.22539014743E+03  0.00000000000E+00 0. -1.
         21   -1    0    0  501  503 -0.00000000000E+00 -0.00000000000E+00 -0.51069655319E+03  0.51069655319E+03  0.00000000000E+00 0.  1.
          6    2    1    2  501    0  0.10841361149E+03 -0.10474231002E+03 -0.41388683320E+03  0.47335018553E+03  0.17330211997E+03 0.  0.
         24    2    3    3    0    0  0.95062820538E+02 -0.58244076609E+02 -0.39943505824E+03  0.42264246296E+03  0.81541237656E+02 0.  0.
         -6    2    1    2    0  502 -0.10841361149E+03  0.10474231002E+03  0.12858042744E+03  0.26273651509E+03  0.17254879710E+03 0.  0.
        -24    2    5    5    0    0  0.33682283231E+01  0.60234965934E+02  0.94957670937E+02  0.13772186338E+03  0.79440268753E+02 0.  0.
          5    1    3    3  501    0  0.13350790948E+02 -0.46498233407E+02 -0.14451774962E+02  0.50707722573E+02  0.47000000000E+01 0. -1.
        -11    1    4    4    0    0  0.21162416057E+02 -0.59690570925E+02 -0.16078398973E+03  0.17280712793E+03  0.00000000000E+00 0.  1.
         12    1    4    4    0    0  0.73900404481E+02  0.14464943162E+01 -0.23865106851E+03  0.24983533503E+03  0.00000000000E+00 0. -1.
         -5    1    5    5    0  502 -0.11178183981E+03  0.44507344082E+02  0.33622756503E+02  0.12501465171E+03  0.47000000000E+01 0.  1.
         13    1    6    6    0    0  0.33483467331E+02  0.18389463438E+01  0.25640504824E+02  0.42213265638E+02  0.00000000000E+00 0. -1.
        -14    1    6    6    0    0 -0.30115239008E+02  0.58396019590E+02  0.69317166112E+02  0.95508597740E+02  0.00000000000E+00 0.  1.
<mgrwt>
<rscale>  2 0.22954919E+03</rscale>
<asrwt>0</asrwt>
<pdfrwt beam="1">  1       21 0.34675407E-01 0.22969129E+03</pdfrwt>
<pdfrwt beam="2">  1       21 0.78568700E-01 0.22969129E+03</pdfrwt>
<totfact> 0.11212688E+04</totfact>
</mgrwt>
</event>
<event>
12    1  0.1013215E-001  0.1940657E+03  0.7546771E-02  0.1154960E+00
         21   -1    0    0  503  502  0.00000000000E+00  0.00000000000E+00  0.21961304295E+03  0.21961304295E+03  0.00000000000E+00 0.  1.
         21   -1    0    0  501  503 -0.00000000000E+00 -0.00000000000E+00 -0.21636440502E+03  0.21636440502E+03  0.00000000000E+00 0.  1.
          6    2    1    2  501    0 -0.52991588997E+02  0.65108701892E+02 -0.98165268183E+02  0.21701108659E+03  0.17438503450E+03 0.  0.
         24    2    3    3    0    0  0.14730937363E+02  0.77858353004E+02 -0.22652044275E+02  0.11467228083E+03  0.79735144271E+02 0.  0.
         -6    2    1    2    0  502  0.52991588997E+02 -0.65108701892E+02  0.10141390611E+03  0.21896636138E+03  0.17496924158E+03 0.  0.
        -24    2    5    5    0    0  0.40498206519E+02  0.44532235080E+01 -0.63681939631E+01  0.89993429464E+02  0.79989546326E+02 0.  0.
          5    1    3    3  501    0 -0.67722526361E+02 -0.12749651111E+02 -0.75513223908E+02  0.10233880576E+03  0.47000000000E+01 0. -1.
        -11    1    4    4    0    0  0.47105679917E+02  0.40416649272E+02 -0.56016096029E+01  0.62320371059E+02  0.00000000000E+00 0.  1.
         12    1    4    4    0    0 -0.32374742554E+02  0.37441703732E+02 -0.17050434672E+02  0.52351909767E+02  0.00000000000E+00 0. -1.
         -5    1    5    5    0  502  0.12493382478E+02 -0.69561925400E+02  0.10778210007E+03  0.12897293192E+03  0.47000000000E+01 0.  1.
         13    1    6    6    0    0  0.63749752071E+02  0.11710816109E+02  0.14630351654E-02  0.64816464770E+02  0.00000000000E+00 0. -1.
        -14    1    6    6    0    0 -0.23251545553E+02 -0.72575926012E+01 -0.63696569983E+01  0.25176964694E+02  0.00000000000E+00 0.  1.
<mgrwt>
<rscale>  2 0.19393390E+03</rscale>
<asrwt>0</asrwt>
<pdfrwt beam="1">  1       21 0.33786622E-01 0.19406568E+03</pdfrwt>
<pdfrwt beam="2">  1       21 0.33286832E-01 0.19406568E+03</pdfrwt>
<totfact> 0.73302452E+04</totfact>
</mgrwt>
</event>
<event>
12    1  0.1013215E-001  0.1853339E+03  0.7546771E-02  0.1163558E+00
         21   -1    0    0  501  502  0.00000000000E+00  0.00000000000E+00  0.16117325709E+03  0.16117325709E+03  0.00000000000E+00 0. -1.
         21   -1    0    0  502  503 -0.00000000000E+00 -0.00000000000E+00 -0.32533019161E+03  0.32533019161E+03  0.00000000000E+00 0. -1.
         -6    2    1    2    0  503 -0.65082624098E+02 -0.18761860498E+02 -0.22795408450E+03  0.29378857922E+03  0.17251350461E+03 0.  0.
        -24    2    3    3    0    0 -0.10514018544E+03 -0.39942373865E+02 -0.14442170466E+03  0.19864147811E+03  0.77142441151E+02 0.  0.
          6    2    1    2  501    0  0.65082624098E+02  0.18761860498E+02  0.63797149977E+02  0.19271486948E+03  0.16876370820E+03 0.  0.
         24    2    5    5    0    0 -0.89533791409E+01 -0.44783855840E+01  0.79516831648E+02  0.11340133214E+03  0.80229151068E+02 0.  0.
          5    1    5    5  501    0  0.74036003239E+02  0.23240246082E+02 -0.15719681672E+02  0.79313537340E+02  0.47000000000E+01 0. -1.
        -11    1    6    6    0    0 -0.10479817649E+02  0.51764307659E+01  0.94659189267E+02  0.95378111357E+02  0.00000000000E+00 0.  1.
         12    1    6    6    0    0  0.15264385085E+01 -0.96548163498E+01 -0.15142357619E+02  0.18023220786E+02  0.00000000000E+00 0. -1.
         -5    1    3    3    0  503  0.40057561342E+02  0.21180513367E+02 -0.83532379839E+02  0.95147101105E+02  0.47000000000E+01 0.  1.
         11    1    4    4    0    0 -0.73287537537E+02 -0.11281785729E+02 -0.13610463765E+03  0.15499294899E+03  0.00000000000E+00 0. -1.
        -12    1    4    4    0    0 -0.31852647903E+02 -0.28660588136E+02 -0.83170670063E+01  0.43648529120E+02  0.00000000000E+00 0.  1.
<mgrwt>
<rscale>  2 0.18445640E+03</rscale>
<asrwt>0</asrwt>
<pdfrwt beam="1">  1       21 0.24795886E-01 0.18533393E+03</pdfrwt>
<pdfrwt beam="2">  1       21 0.50050798E-01 0.18533393E+03</pdfrwt>
<totfact> 0.58693348E+04</totfact>
</mgrwt>
</event>
<event>
12    1  0.1013215E-001  0.2007503E+03  0.7546771E-02  0.1149618E+00
         21   -1    0    0  503  502  0.00000000000E+00  0.00000000000E+00  0.76711893666E+02  0.76711893666E+02  0.00000000000E+00 0. -1.
         21   -1    0    0  501  503 -0.00000000000E+00 -0.00000000000E+00 -0.85365164553E+03  0.85365164553E+03  0.00000000000E+00 0. -1.
          6    2    1    2  501    0 -0.67264403236E+01  0.99853664437E+02 -0.67827378590E+03  0.70667698906E+03  0.17123387203E+03 0.  0.
         24    2    3    3    0    0 -0.33299477994E+02  0.10048570958E+03 -0.66201741515E+03  0.67516690493E+03  0.79856486815E+02 0.  0.
         -6    2    1    2    0  502  0.67264403236E+01 -0.99853664437E+02 -0.98665965961E+02  0.22368655013E+03  0.17402499984E+03 0.  0.
        -24    2    5    5    0    0  0.65527764071E+02 -0.74607140896E+02 -0.27241580256E+02  0.12767344947E+03  0.75487036421E+02 0.  0.
          5    1    3    3  501    0  0.26573037670E+02 -0.63204513962E+00 -0.16256370749E+02  0.31510084132E+02  0.47000000000E+01 0. -1.
        -11    1    4    4    0    0 -0.24763129867E+02  0.10247959773E+02 -0.52479018274E+02  0.58926060782E+02  0.00000000000E+00 0.  1.
         12    1    4    4    0    0 -0.85363481264E+01  0.90237749803E+02 -0.60953839688E+03  0.61624084415E+03  0.00000000000E+00 0. -1.
         -5    1    5    5    0  502 -0.58801323747E+02 -0.25246523541E+02 -0.71424385705E+02  0.96013100662E+02  0.47000000000E+01 0.  1.
         13    1    6    6    0    0  0.51420409206E+02 -0.41270305816E+02 -0.51869351197E+02  0.83891156975E+02  0.00000000000E+00 0. -1.
        -14    1    6    6    0    0  0.14107354865E+02 -0.33336835080E+02  0.24627770941E+02  0.43782292494E+02  0.00000000000E+00 0.  1.
<mgrwt>
<rscale>  2 0.20014393E+03</rscale>
<asrwt>0</asrwt>
<pdfrwt beam="1">  1       21 0.11801829E-01 0.20075034E+03</pdfrwt>
<pdfrwt beam="2">  1       21 0.13133103E+00 0.20075034E+03</pdfrwt>
<totfact> 0.25339827E+04</totfact>
</mgrwt>
</event>
<event>
12    1  0.1013215E-001  0.2784702E+03  0.7546771E-02  0.1096687E+00
         21   -1    0    0  501  502  0.00000000000E+00  0.00000000000E+00  0.20050589355E+04  0.20050589355E+04  0.00000000000E+00 0. -1.
         21   -1    0    0  502  503 -0.00000000000E+00 -0.00000000000E+00 -0.47505531547E+02  0.47505531547E+02  0.00000000000E+00 0.  1.
         -6    2    1    2    0  503 -0.14252016138E+03  0.16343928016E+03  0.53064079221E+03  0.59873324054E+03  0.17285094234E+03 0.  0.
        -24    2    3    3    0    0 -0.49740040540E+02  0.69093183384E+02  0.34338427300E+03  0.36939412310E+03  0.10626062119E+03 0.  0.
          6    2    1    2  501    0  0.14252016138E+03 -0.16343928016E+03  0.14269126118E+04  0.14538312265E+04  0.17470328824E+03 0.  0.
         24    2    5    5    0    0  0.12884945598E+03 -0.15725634430E+03  0.88529804190E+03  0.91198849181E+03  0.81477886974E+02 0.  0.
          5    1    5    5  501    0  0.13670705398E+02 -0.61829358596E+01  0.54161456988E+03  0.54184273474E+03  0.47000000000E+01 0. -1.
        -11    1    6    6    0    0 -0.10047154136E+02 -0.15040412143E+02  0.45056986465E+02  0.48551944688E+02  0.00000000000E+00 0.  1.
         12    1    6    6    0    0  0.13889661012E+03 -0.14221593216E+03  0.84024105544E+03  0.86343654712E+03  0.00000000000E+00 0. -1.
         -5    1    3    3    0  503 -0.92780120841E+02  0.94346096780E+02  0.18725651922E+03  0.22933911745E+03  0.47000000000E+01 0.  1.
         11    1    4    4    0    0 -0.51304883563E+02 -0.13714368832E+02  0.12380439792E+03  0.13471378524E+03  0.00000000000E+00 0. -1.
        -12    1    4    4    0    0  0.15648430223E+01  0.82807552216E+02  0.21957987508E+03  0.23468033786E+03  0.00000000000E+00 0.  1.
<mgrwt>
<rscale>  2 0.27818013E+03</rscale>
<asrwt>0</asrwt>
<pdfrwt beam="1">  1       21 0.30847054E+00 0.27847017E+03</pdfrwt>
<pdfrwt beam="2">  1       21 0.73085449E-02 0.27847017E+03</pdfrwt>
<totfact> 0.39302156E+03</totfact>
</mgrwt>
</event>
<event>
12    1  0.1013215E-001  0.2324365E+03  0.7546771E-02  0.1125962E+00
         21   -1    0    0  501  502  0.00000000000E+00  0.00000000000E+00  0.47762991688E+03  0.47762991688E+03  0.00000000000E+00 0.  1.
         21   -1    0    0  502  503 -0.00000000000E+00 -0.00000000000E+00 -0.24626948239E+03  0.24626948239E+03  0.00000000000E+00 0.  1.
         -6    2    1    2    0  503  0.95099140913E+02  0.12309039581E+03 -0.15391656039E+03  0.27393819049E+03  0.16479299895E+03 0.  0.
        -24    2    3    3    0    0  0.94887830597E+02  0.95144066849E+02 -0.46252849895E+02  0.16260712334E+03  0.79029466568E+02 0.  0.
          6    2    1    2  501    0 -0.95099140913E+02 -0.12309039581E+03  0.38527699488E+03  0.44996120877E+03  0.17271836751E+03 0.  0.
         24    2    5    5    0    0 -0.29684300466E+02 -0.10261109887E+02  0.23931464063E+03  0.25416374206E+03  0.79632044359E+02 0.  0.
          5    1    5    5  501    0 -0.65414840447E+02 -0.11282928592E+03  0.14596235425E+03  0.19579746671E+03  0.47000000000E+01 0. -1.
        -13    1    6    6    0    0 -0.63174741855E+01 -0.22349711474E+02  0.22074069309E+03  0.22195917118E+03  0.00000000000E+00 0.  1.
         14    1    6    6    0    0 -0.23366826280E+02  0.12088601586E+02  0.18573947538E+02  0.32204570885E+02  0.00000000000E+00 0. -1.
         -5    1    3    3    0  503  0.21131031600E+00  0.27946328959E+02 -0.10766371050E+03  0.11133106715E+03  0.47000000000E+01 0.  1.
         11    1    4    4    0    0  0.98025805755E+02  0.49199288041E+02 -0.29207672717E+02  0.11350205585E+03  0.00000000000E+00 0. -1.
        -12    1    4    4    0    0 -0.31379751589E+01  0.45944778809E+02 -0.17045177177E+02  0.49105067487E+02  0.00000000000E+00 0.  1.
<mgrwt>
<rscale>  2 0.23096583E+03</rscale>
<asrwt>0</asrwt>
<pdfrwt beam="1">  1       21 0.73481526E-01 0.23243650E+03</pdfrwt>
<pdfrwt beam="2">  1       21 0.37887613E-01 0.23243650E+03</pdfrwt>
<totfact> 0.10897931E+04</totfact>
</mgrwt>
</event>
<event>
12    1  0.1013215E-001  0.2106356E+03  0.7546771E-02  0.1141256E+00
         21   -1    0    0  501  502  0.00000000000E+00  0.00000000000E+00  0.66644607943E+03  0.66644607943E+03  0.00000000000E+00 0.  1.
         21   -1    0    0  502  503 -0.00000000000E+00 -0.00000000000E+00 -0.84316295695E+02  0.84316295695E+02  0.00000000000E+00 0.  1.
         -6    2    1    2    0  503 -0.10947796261E+03 -0.45337455045E+02  0.11684876908E+03  0.24002389570E+03  0.17296510210E+03 0.  0.
        -24    2    3    3    0    0 -0.71859763253E+02 -0.45566730868E+02  0.10735972502E+01  0.11819958818E+03  0.82035586778E+02 0.  0.
          6    2    1    2  501    0  0.10947796261E+03  0.45337455045E+02  0.46528101466E+03  0.51073847943E+03  0.17414494722E+03 0.  0.
         24    2    5    5    0    0  0.10749154230E+03 -0.86123742994E+01  0.20638132022E+03  0.24622823061E+03  0.80040536946E+02 0.  0.
          5    1    5    5  501    0  0.19864203092E+01  0.53949829344E+02  0.25889969444E+03  0.26451024882E+03  0.47000000000E+01 0. -1.
        -11    1    6    6    0    0  0.97531566609E+02  0.18919490323E+02  0.12457286003E+03  0.15933847952E+03  0.00000000000E+00 0.  1.
         12    1    6    6    0    0  0.99599756916E+01 -0.27531864622E+02  0.81808460195E+02  0.86889751092E+02  0.00000000000E+00 0. -1.
         -5    1    3    3    0  503 -0.37618199357E+02  0.22927582317E+00  0.11577517183E+03  0.12182430752E+03  0.47000000000E+01 0.  1.
         11    1    4    4    0    0 -0.30539739113E+02  0.70808948316E+01 -0.30908400142E+02  0.44024356168E+02  0.00000000000E+00 0. -1.
        -12    1    4    4    0    0 -0.41320024140E+02 -0.52647625700E+02  0.31981997392E+02  0.74175232011E+02  0.00000000000E+00 0.  1.
<mgrwt>
<rscale>  2 0.21039161E+03</rscale>
<asrwt>0</asrwt>
<pdfrwt beam="1">  1       21 0.10253016E+00 0.21063564E+03</pdfrwt>
<pdfrwt beam="2">  1       21 0.12971738E-01 0.21063564E+03</pdfrwt>
<totfact> 0.39091570E+04</totfact>
</mgrwt>
</event>
<event>
12    1  0.1013215E-001  0.2279931E+03  0.7546771E-02  0.1128077E+00
         21   -1    0    0  503  502  0.00000000000E+00  0.00000000000E+00  0.33659287079E+03  0.33659287079E+03  0.00000000000E+00 0. -1.
         21   -1    0    0  501  503 -0.00000000000E+00 -0.00000000000E+00 -0.15441985690E+03  0.15441985690E+03  0.00000000000E+00 0. -1.
          6    2    1    2  501    0 -0.14765852361E+03 -0.67345643860E+01  0.86735066391E+02  0.24393403016E+03  0.17358699657E+03 0.  0.
         24    2    3    3    0    0 -0.90250638550E+02  0.43308228789E+02  0.96670070518E-01  0.12848599799E+03  0.80547264969E+02 0.  0.
         -6    2    1    2    0  502  0.14765852361E+03  0.67345643860E+01  0.95437947492E+02  0.24707869753E+03  0.17346782699E+03 0.  0.
        -24    2    5    5    0    0  0.10835299732E+03 -0.25376520252E+01  0.13466006216E+03  0.19058655053E+03  0.80268855702E+02 0.  0.
          5    1    3    3  501    0 -0.57407885057E+02 -0.50042793175E+02  0.86638396320E+02  0.11544803217E+03  0.47000000000E+01 0. -1.
        -11    1    4    4    0    0 -0.23768506898E+02  0.54292668360E+02  0.10842415739E+02  0.60251089093E+02  0.00000000000E+00 0.  1.
         12    1    4    4    0    0 -0.66482131653E+02 -0.10984439572E+02 -0.10745745669E+02  0.68234908894E+02  0.00000000000E+00 0. -1.
         -5    1    5    5    0  502  0.39305526284E+02  0.92722164112E+01 -0.39222114667E+02  0.56492146999E+02  0.47000000000E+01 0.  1.
         13    1    6    6    0    0  0.91193141632E+02 -0.77121835437E+01  0.50475648559E+02  0.10451534793E+03  0.00000000000E+00 0. -1.
        -14    1    6    6    0    0  0.17159855691E+02  0.51745315185E+01  0.84184413600E+02  0.86071202600E+02  0.00000000000E+00 0.  1.
<mgrwt>
<rscale>  2 0.22797039E+03</rscale>
<asrwt>0</asrwt>
<pdfrwt beam="1">  1       21 0.51783519E-01 0.22799307E+03</pdfrwt>
<pdfrwt beam="2">  1       21 0.23756901E-01 0.22799307E+03</pdfrwt>
<totfact> 0.58176165E+04</totfact>
</mgrwt>
</event>
<event>
12    1  0.1013215E-001  0.1780660E+03  0.7546771E-02  0.1170002E+00
         21   -1    0    0  503  502  0.00000000000E+00  0.00000000000E+00  0.32867758061E+03  0.32867758061E+03  0.00000000000E+00 0.  1.
         21   -1    0    0  501  503 -0.00000000000E+00 -0.00000000000E+00 -0.15603050399E+03  0.15603050399E+03  0.00000000000E+00 0.  1.
          6    2    1    2  501    0  0.23800722498E+02 -0.36997753386E+02 -0.64084621877E+02  0.18924672512E+03  0.17254615632E+03 0.  0.
         24    2    3    3    0    0  0.98970013829E+01 -0.89920132340E+02 -0.60234377224E+02  0.13419215184E+03  0.78713230013E+02 0.  0.
         -6    2    1    2    0  502 -0.23800722498E+02  0.36997753386E+02  0.23673169850E+03  0.29546135948E+03  0.17123145075E+03 0.  0.
        -24    2    5    5    0    0 -0.32510489745E+01 -0.26035621694E+02  0.20541946545E+03  0.22198999503E+03  0.79962354836E+02 0.  0.
          5    1    3    3  501    0  0.13903721115E+02  0.52922378955E+02 -0.38502446522E+01  0.55054573279E+02  0.47000000000E+01 0. -1.
        -13    1    4    4    0    0 -0.11123853379E+02 -0.62083200677E+02 -0.73518476502E+02  0.96866043108E+02  0.00000000000E+00 0.  1.
         14    1    4    4    0    0  0.21020854762E+02 -0.27836931664E+02  0.13284099277E+02  0.37326108731E+02  0.00000000000E+00 0. -1.
         -5    1    5    5    0  502 -0.20549673523E+02  0.63033375080E+02  0.31312233045E+02  0.73471364450E+02  0.47000000000E+01 0.  1.
         13    1    6    6    0    0 -0.33654003935E+02 -0.38635608928E+02  0.12664368127E+03  0.13661597367E+03  0.00000000000E+00 0. -1.
        -14    1    6    6    0    0  0.30402954961E+02  0.12599987234E+02  0.78775784185E+02  0.85374021356E+02  0.00000000000E+00 0.  1.
<mgrwt>
<rscale>  2 0.17774668E+03</rscale>
<asrwt>0</asrwt>
<pdfrwt beam="1">  1       21 0.50565781E-01 0.17806595E+03</pdfrwt>
<pdfrwt beam="2">  1       21 0.24004693E-01 0.17806595E+03</pdfrwt>
<totfact> 0.61310286E+04</totfact>
</mgrwt>
</event>
<event>
12    1  0.1013215E-001  0.2546203E+03  0.7546771E-02  0.1110881E+00
         21   -1    0    0  501  502  0.00000000000E+00  0.00000000000E+00  0.19164363069E+04  0.19164363069E+04  0.00000000000E+00 0.  1.
         21   -1    0    0  502  503 -0.00000000000E+00 -0.00000000000E+00 -0.40824506373E+02  0.40824506373E+02  0.00000000000E+00 0. -1.
         -6    2    1    2    0  503  0.10111227128E+03  0.15247429806E+03  0.51695489094E+03  0.57495111101E+03  0.17278402071E+03 0.  0.
        -24    2    3    3    0    0  0.10827229491E+03  0.72396990357E+02  0.23097853372E+03  0.27785145091E+03  0.82982719122E+02 0.  0.
          6    2    1    2  501    0 -0.10111227128E+03 -0.15247429806E+03  0.13586569096E+04  0.13823097022E+04  0.17708588885E+03 0.  0.
         24    2    5    5    0    0 -0.12725479110E+02 -0.13890780419E+03  0.95955775497E+03  0.97328830918E+03  0.84153025925E+02 0.  0.
          5    1    5    5  501    0 -0.88386792174E+02 -0.13566493866E+02  0.39909915458E+03  0.40902139305E+03  0.47000000000E+01 0. -1.
        -13    1    6    6    0    0  0.36016128591E+01 -0.50665271384E+02  0.61983363251E+03  0.62191130664E+03  0.00000000000E+00 0.  1.
         14    1    6    6    0    0 -0.16327091969E+02 -0.88242532806E+02  0.33972412247E+03  0.35137700254E+03  0.00000000000E+00 0. -1.
         -5    1    3    3    0  503 -0.71600236223E+01  0.80077307699E+02  0.28597635722E+03  0.29709966010E+03  0.47000000000E+01 0.  1.
         13    1    4    4    0    0  0.10870854542E+03  0.83330828188E+02  0.18267363910E+03  0.22832265152E+03  0.00000000000E+00 0. -1.
        -14    1    4    4    0    0 -0.43625051515E+00 -0.10933837832E+02  0.48304894625E+02  0.49528799389E+02  0.00000000000E+00 0.  1.
<mgrwt>
<rscale>  2 0.25387383E+03</rscale>
<asrwt>0</asrwt>
<pdfrwt beam="1">  1       21 0.29483629E+00 0.25462034E+03</pdfrwt>
<pdfrwt beam="2">  1       21 0.62806948E-02 0.25462034E+03</pdfrwt>
<totfact> 0.62721187E+03</totfact>
</mgrwt>
</event>
<event>
12    1  0.1013215E-001  0.1961458E+03  0.7546771E-02  0.1153246E+00
         21   -1    0    0  503  502  0.00000000000E+00  0.00000000000E+00  0.45258990280E+02  0.45258990280E+02  0.00000000000E+00 0. -1.
         21   -1    0    0  501  503 -0.00000000000E+00 -0.00000000000E+00 -0.13622011492E+04  0.13622011492E+04  0.00000000000E+00 0.  1.
          6    2    1    2  501    0 -0.91491180215E+02 -0.55561994683E+01 -0.10927902249E+04  0.11102538604E+04  0.17341179721E+03 0.  0.
         24    2    3    3    0    0 -0.53738224448E+02  0.34946567218E+02 -0.98065099939E+03  0.98510173023E+03  0.68117376493E+02 0.  0.
         -6    2    1    2    0  502  0.91491180215E+02  0.55561994683E+01 -0.22415193400E+03  0.29720627909E+03  0.17229618512E+03 0.  0.
        -24    2    5    5    0    0  0.44980207518E+02  0.63960164719E+02 -0.17506286857E+03  0.20772935423E+03  0.79939695499E+02 0.  0.
          5    1    3    3  501    0 -0.37752955767E+02 -0.40502766686E+02 -0.11213922551E+03  0.12515213013E+03  0.47000000000E+01 0. -1.
        -11    1    4    4    0    0 -0.24175454913E+02 -0.57386696603E+01 -0.66545898319E+03  0.66592270067E+03  0.00000000000E+00 0.  1.
         12    1    4    4    0    0 -0.29562769535E+02  0.40685236878E+02 -0.31519201619E+03  0.31917902957E+03  0.00000000000E+00 0. -1.
         -5    1    5    5    0  502  0.46510972697E+02 -0.58403965251E+02 -0.49089065425E+02  0.89476924861E+02  0.47000000000E+01 0.  1.
         13    1    6    6    0    0  0.51407811487E+02  0.54125220126E+02 -0.18009153045E+03  0.19494938286E+03  0.00000000000E+00 0. -1.
        -14    1    6    6    0    0 -0.64276039687E+01  0.98349445936E+01  0.50286618816E+01  0.12779971372E+02  0.00000000000E+00 0.  1.
<mgrwt>
<rscale>  2 0.19589889E+03</rscale>
<asrwt>0</asrwt>
<pdfrwt beam="1">  1       21 0.69629232E-02 0.19614576E+03</pdfrwt>
<pdfrwt beam="2">  1       21 0.20956936E+00 0.19614576E+03</pdfrwt>
<totfact> 0.17775775E+04</totfact>
</mgrwt>
</event>
<event>
12    1  0.1013215E-001  0.2449822E+03  0.7546771E-02  0.1116565E+00
         21   -1    0    0  503  502  0.00000000000E+00  0.00000000000E+00  0.14084554804E+03  0.14084554804E+03  0.00000000000E+00 0.  1.
         21   -1    0    0  501  503 -0.00000000000E+00 -0.00000000000E+00 -0.44289646253E+03  0.44289646253E+03  0.00000000000E+00 0.  1.
          6    2    1    2  501    0 -0.36943437898E+02 -0.17037719614E+03 -0.93267538746E+02  0.26186192426E+03  0.17169632211E+03 0.  0.
         24    2    3    3    0    0  0.49722508769E+01 -0.19641578413E+02 -0.58763507584E+02  0.10157852031E+03  0.80340096361E+02 0.  0.
         -6    2    1    2    0  502  0.36943437898E+02  0.17037719614E+03 -0.20878337574E+03  0.32188008630E+03  0.17211358286E+03 0.  0.
        -24    2    5    5    0    0  0.33476653830E+02  0.77700729085E+02 -0.28260032898E+02  0.11887340304E+03  0.78575866776E+02 0.  0.
          5    1    3    3  501    0 -0.41915688775E+02 -0.15073561772E+03 -0.34504031162E+02  0.16028340395E+03  0.47000000000E+01 0. -1.
        -11    1    4    4    0    0 -0.24943058628E+02 -0.38164338680E+02 -0.21766815070E+02  0.50521947299E+02  0.00000000000E+00 0.  1.
         12    1    4    4    0    0  0.29915309504E+02  0.18522760266E+02 -0.36996692514E+02  0.51056573011E+02  0.00000000000E+00 0. -1.
         -5    1    5    5    0  502  0.34667840685E+01  0.92676467051E+02 -0.18052334285E+03  0.20300668326E+03  0.47000000000E+01 0.  1.
         11    1    6    6    0    0  0.50993363284E+02  0.30994636173E+02  0.34351395380E+01  0.59772826218E+02  0.00000000000E+00 0. -1.
        -12    1    6    6    0    0 -0.17516709454E+02  0.46706092913E+02 -0.31695172436E+02  0.59100576825E+02  0.00000000000E+00 0.  1.
<mgrwt>
<rscale>  2 0.24490895E+03</rscale>
<asrwt>0</asrwt>
<pdfrwt beam="1">  1       21 0.21668546E-01 0.24498223E+03</pdfrwt>
<pdfrwt beam="2">  1       21 0.68137917E-01 0.24498223E+03</pdfrwt>
<totfact> 0.38075724E+04</totfact>
</mgrwt>
</event>
<event>
12    1  0.1013215E-001  0.2256424E+03  0.7546771E-02  0.1129756E+00
         21   -1    0    0  501  502  0.00000000000E+00  0.00000000000E+00  0.60639241821E+02  0.60639241821E+02  0.00000000000E+00 0. -1.
         21   -1    0    0  502  503 -0.00000000000E+00 -0.00000000000E+00 -0.83962195871E+03  0.83962195871E+03  0.00000000000E+00 0.  1.
         -6    2    1    2    0  503  0.56588825516E+02 -0.13331938120E+03 -0.38225026606E+03  0.44388032115E+03  0.17302635933E+03 0.  0.
        -24    2    3    3    0    0  0.10292634406E+03 -0.78225905662E+02 -0.24583946309E+03  0.28956747710E+03  0.81848381547E+02 0.  0.
          6    2    1    2  501    0 -0.56588825516E+02  0.13331938120E+03 -0.39673245082E+03  0.45638087938E+03  0.17294657253E+03 0.  0.
         24    2    5    5    0    0 -0.45273762985E+02  0.16654155051E+03 -0.33062800717E+03  0.38139000897E+03  0.79734924319E+02 0.  0.
          5    1    5    5  501    0 -0.11315062532E+02 -0.33222169310E+02 -0.66104443650E+02  0.74990870405E+02  0.47000000000E+01 0. -1.
        -13    1    6    6    0    0 -0.18652938186E+01  0.12450623171E+03 -0.26110941828E+03  0.28928084860E+03  0.00000000000E+00 0.  1.
         14    1    6    6    0    0 -0.43408469166E+02  0.42035318804E+02 -0.69518588898E+02  0.92109160374E+02  0.00000000000E+00 0. -1.
         -5    1    3    3    0  503 -0.46337518548E+02 -0.55093475537E+02 -0.13641080297E+03  0.15431284405E+03  0.47000000000E+01 0.  1.
         13    1    4    4    0    0  0.80243137008E+02 -0.44856365806E+02 -0.90230068475E+02  0.12881195537E+03  0.00000000000E+00 0. -1.
        -14    1    4    4    0    0  0.22683207056E+02 -0.33369539856E+02 -0.15560939462E+03  0.16075552173E+03  0.00000000000E+00 0.  1.
<mgrwt>
<rscale>  2 0.22562706E+03</rscale>
<asrwt>0</asrwt>
<pdfrwt beam="1">  1       21 0.93291142E-02 0.22564236E+03</pdfrwt>
<pdfrwt beam="2">  1       21 0.12917261E+00 0.22564236E+03</pdfrwt>
<totfact> 0.39566795E+04</totfact>
</mgrwt>
</event>
<event>
12    1  0.1013215E-001  0.1835150E+03  0.7546771E-02  0.1165798E+00
         21   -1    0    0  503  502  0.00000000000E+00  0.00000000000E+00  0.14566542367E+03  0.14566542367E+03  0.00000000000E+00 0. -1.
         21   -1    0    0  501  503 -0.00000000000E+00 -0.00000000000E+00 -0.23886252543E+03  0.23886252543E+03  0.00000000000E+00 0. -1.
          6    2    1    2  501    0 -0.16742220715E+02 -0.40389479518E+02  0.44040586392E+00  0.18351554202E+03  0.17823060398E+03 0.  0.
         24    2    3    3    0    0  0.88829008221E+01  0.40873759802E+02 -0.22978078822E+02  0.95023303130E+02  0.82169738129E+02 0.  0.
         -6    2    1    2    0  502  0.16742220715E+02  0.40389479518E+02 -0.93637507627E+02  0.20101240708E+03  0.17241343612E+03 0.  0.
        -24    2    5    5    0    0  0.60623470589E+02  0.68919992625E+01 -0.10611411812E+02  0.10119723859E+03  0.80034831157E+02 0.  0.
          5    1    3    3  501    0 -0.25625121537E+02 -0.81263239320E+02  0.23418484686E+02  0.88492238888E+02  0.47000000000E+01 0. -1.
        -11    1    4    4    0    0  0.35151111399E+02  0.51338009473E+02 -0.71754583211E+01  0.62631294505E+02  0.00000000000E+00 0.  1.
         12    1    4    4    0    0 -0.26268210577E+02 -0.10464249672E+02 -0.15802620501E+02  0.32392008625E+02  0.00000000000E+00 0. -1.
         -5    1    5    5    0  502 -0.43881249874E+02  0.33497480255E+02 -0.83026095815E+02  0.99815168487E+02  0.47000000000E+01 0.  1.
         13    1    6    6    0    0  0.74745371840E+02  0.20967964684E+02 -0.18416144680E+02  0.79785215042E+02  0.00000000000E+00 0. -1.
        -14    1    6    6    0    0 -0.14121901251E+02 -0.14075965421E+02  0.78047328673E+01  0.21412023552E+02  0.00000000000E+00 0.  1.
<mgrwt>
<rscale>  2 0.18208738E+03</rscale>
<asrwt>0</asrwt>
<pdfrwt beam="1">  1       21 0.22410065E-01 0.18351501E+03</pdfrwt>
<pdfrwt beam="2">  1       21 0.36748081E-01 0.18351501E+03</pdfrwt>
<totfact> 0.13354557E+05</totfact>
</mgrwt>
</event>
<event>
12    1  0.1013215E-001  0.1976151E+03  0.7546771E-02  0.1152212E+00
         21   -1    0    0  503  502  0.00000000000E+00  0.00000000000E+00  0.31667541265E+03  0.31667541265E+03  0.00000000000E+00 0. -1.
         21   -1    0    0  501  503 -0.00000000000E+00 -0.00000000000E+00 -0.12295481946E+03  0.12295481946E+03  0.00000000000E+00 0. -1.
          6    2    1    2  501    0  0.89772095066E+02  0.20944656012E+02  0.77306992829E+02  0.21027488883E+03  0.17245709630E+03 0.  0.
         24    2    3    3    0    0  0.11349467749E+03  0.46576873247E+02  0.30379897997E+02  0.15158916905E+03  0.83701200895E+02 0.  0.
         -6    2    1    2    0  502 -0.89772095066E+02 -0.20944656012E+02  0.11641360036E+03  0.22935534327E+03  0.17479713805E+03 0.  0.
        -24    2    5    5    0    0 -0.89435176641E+02  0.46505224257E+02  0.64739357969E+02  0.14425588858E+03  0.80356643876E+02 0.  0.
          5    1    3    3  501    0 -0.23722582421E+02 -0.25632217235E+02  0.46927094832E+02  0.58685719784E+02  0.47000000000E+01 0. -1.
        -13    1    4    4    0    0 -0.84106173399E+00  0.32753215956E+02  0.12206522174E+01  0.32786743238E+02  0.00000000000E+00 0.  1.
         14    1    4    4    0    0  0.11433573922E+03  0.13823657291E+02  0.29159245780E+02  0.11880242581E+03  0.00000000000E+00 0. -1.
         -5    1    5    5    0  502 -0.33691842484E+00 -0.67449880268E+02  0.51674242393E+02  0.85099454694E+02  0.47000000000E+01 0.  1.
         11    1    6    6    0    0 -0.40093253708E+02  0.15278163771E+02 -0.14973614582E+02  0.45443375917E+02  0.00000000000E+00 0. -1.
        -12    1    6    6    0    0 -0.49341922933E+02  0.31227060486E+02  0.79712972551E+02  0.98812512660E+02  0.00000000000E+00 0.  1.
<mgrwt>
<rscale>  2 0.19709641E+03</rscale>
<asrwt>0</asrwt>
<pdfrwt beam="1">  1       21 0.48719294E-01 0.19761515E+03</pdfrwt>
<pdfrwt beam="2">  1       21 0.18916126E-01 0.19761515E+03</pdfrwt>
<totfact> 0.10278841E+05</totfact>
</mgrwt>
</event>
<event>
12    1  0.1013215E-001  0.2684516E+03  0.7546771E-02  0.1102212E+00
         21   -1    0    0  503  502  0.00000000000E+00  0.00000000000E+00  0.65056592549E+03  0.65056592549E+03  0.00000000000E+00 0.  1.
         21   -1    0    0  501  503 -0.00000000000E+00 -0.00000000000E+00 -0.29676427314E+03  0.29676427314E+03  0.00000000000E+00 0.  1.
          6    2    1    2  501    0  0.13666708567E+02 -0.20463681470E+03 -0.19816776705E+03  0.33367159382E+03  0.17321450221E+03 0.  0.
         24    2    3    3    0    0 -0.73420665663E+01 -0.22476967890E+03 -0.17319573519E+03  0.29504008818E+03  0.80477179696E+02 0.  0.
         -6    2    1    2    0  502 -0.13666708567E+02  0.20463681470E+03  0.55196941939E+03  0.61365860480E+03  0.17275311415E+03 0.  0.
        -24    2    5    5    0    0  0.27609205447E+02  0.83091681507E+02  0.38542560283E+03  0.40333539326E+03  0.80374426115E+02 0.  0.
          5    1    3    3  501    0  0.21008775134E+02  0.20132864197E+02 -0.24972031855E+02  0.38631505644E+02  0.47000000000E+01 0. -1.
        -11    1    4    4    0    0 -0.12461298131E+02 -0.21711388638E+03 -0.13548799403E+03  0.25622396479E+03  0.00000000000E+00 0.  1.
         12    1    4    4    0    0  0.51192315650E+01 -0.76557925169E+01 -0.37707741164E+02  0.38816123384E+02  0.00000000000E+00 0. -1.
         -5    1    5    5    0  502 -0.41275914014E+02  0.12154513319E+03  0.16654381656E+03  0.21032321155E+03  0.47000000000E+01 0.  1.
         11    1    6    6    0    0  0.38871844719E+02  0.16810598762E+02  0.79157076665E+02  0.89774491526E+02  0.00000000000E+00 0. -1.
        -12    1    6    6    0    0 -0.11262639272E+02  0.66281082745E+02  0.30626852617E+03  0.31356090173E+03  0.00000000000E+00 0.  1.
<mgrwt>
<rscale>  2 0.26837721E+03</rscale>
<asrwt>0</asrwt>
<pdfrwt beam="1">  1       21 0.10008706E+00 0.26845161E+03</pdfrwt>
<pdfrwt beam="2">  1       21 0.45656042E-01 0.26845161E+03</pdfrwt>
<totfact> 0.35678920E+03</totfact>
</mgrwt>
</event>
<event>
12    1  0.1013215E-001  0.1810433E+03  0.7546771E-02  0.1167186E+00
         21   -1    0    0  503  502  0.00000000000E+00  0.00000000000E+00  0.11656623872E+03  0.11656623872E+03  0.00000000000E+00 0. -1.
         21   -1    0    0  501  503 -0.00000000000E+00 -0.00000000000E+00 -0.30030664913E+03  0.30030664913E+03  0.00000000000E+00 0. -1.
          6    2    1    2  501    0 -0.16189741407E+02  0.43421754068E+02 -0.14817368724E+03  0.23394893785E+03  0.17501173525E+03 0.  0.
         24    2    3    3    0    0  0.17556944246E+02 -0.34341750198E+02 -0.10875690561E+03  0.14034458932E+03  0.79880768258E+02 0.  0.
         -6    2    1    2    0  502  0.16189741407E+02 -0.43421754068E+02 -0.35566723164E+02  0.18292395001E+03  0.17334538712E+03 0.  0.
        -24    2    5    5    0    0  0.46429386293E+02 -0.63282211117E+02 -0.69877925654E+02  0.13284179257E+03  0.81263098663E+02 0.  0.
          5    1    3    3  501    0 -0.33746685653E+02  0.77763504266E+02 -0.39416781635E+02  0.93604348525E+02  0.47000000000E+01 0. -1.
        -11    1    4    4    0    0  0.45601526574E+02 -0.37970348605E+02 -0.62931599346E+02  0.86496432269E+02  0.00000000000E+00 0.  1.
         12    1    4    4    0    0 -0.28044582327E+02  0.36285984073E+01 -0.45825306260E+02  0.53848157054E+02  0.00000000000E+00 0. -1.
         -5    1    5    5    0  502 -0.30239644886E+02  0.19860457049E+02  0.34311202490E+02  0.50082157435E+02  0.47000000000E+01 0.  1.
         13    1    6    6    0    0  0.87735082928E+01 -0.34290701412E+02  0.12667343163E+02  0.37593725992E+02  0.00000000000E+00 0. -1.
        -14    1    6    6    0    0  0.37655878000E+02 -0.28991509704E+02 -0.82545268817E+02  0.95248066579E+02  0.00000000000E+00 0.  1.
<mgrwt>
<rscale>  2 0.18063933E+03</rscale>
<asrwt>0</asrwt>
<pdfrwt beam="1">  1       21 0.17933267E-01 0.18104327E+03</pdfrwt>
<pdfrwt beam="2">  1       21 0.46201023E-01 0.18104327E+03</pdfrwt>
<totfact> 0.12740076E+05</totfact>
</mgrwt>
</event>
<event>
12    1  0.1013215E-001  0.1782566E+03  0.7546771E-02  0.1169740E+00
         21   -1    0    0  503  502  0.00000000000E+00  0.00000000000E+00  0.27641029287E+02  0.27641029287E+02  0.00000000000E+00 0. -1.
         21   -1    0    0  501  503 -0.00000000000E+00 -0.00000000000E+00 -0.12969248568E+04  0.12969248568E+04  0.00000000000E+00 0. -1.
          6    2    1    2  501    0  0.27121405530E+02 -0.26573603455E+02 -0.86103563829E+03  0.87909757625E+03  0.17317173878E+03 0.  0.
         24    2    3    3    0    0  0.29938976168E+02 -0.63360978524E+02 -0.32789968696E+03  0.34466583854E+03  0.79783329410E+02 0.  0.
         -6    2    1    2    0  502 -0.27121405530E+02  0.26573603455E+02 -0.40824818918E+03  0.44546830980E+03  0.17416573724E+03 0.  0.
        -24    2    5    5    0    0 -0.13709243099E+02  0.17895101903E+02 -0.83202494428E+02  0.11999635069E+03  0.83476290535E+02 0.  0.
          5    1    3    3  501    0 -0.28175706377E+01  0.36787375068E+02 -0.53313595133E+03  0.53443173771E+03  0.47000000000E+01 0. -1.
        -13    1    4    4    0    0  0.37083552256E+02  0.50321326747E+01 -0.11471490687E+03  0.12066491647E+03  0.00000000000E+00 0.  1.
         14    1    4    4    0    0 -0.71445760878E+01 -0.68393111198E+02 -0.21318478009E+03  0.22400092207E+03  0.00000000000E+00 0. -1.
         -5    1    5    5    0  502 -0.13412162431E+02  0.86785015526E+01 -0.32504569476E+03  0.32547195911E+03  0.47000000000E+01 0.  1.
         13    1    6    6    0    0 -0.15601346492E+02 -0.24176348469E+02 -0.23944660000E+01  0.28872674020E+02  0.00000000000E+00 0. -1.
        -14    1    6    6    0    0  0.18921033925E+01  0.42071450371E+02 -0.80808028428E+02  0.91123676671E+02  0.00000000000E+00 0.  1.
<mgrwt>
<rscale>  2 0.17801338E+03</rscale>
<asrwt>0</asrwt>
<pdfrwt beam="1">  1       21 0.42524662E-02 0.17825664E+03</pdfrwt>
<pdfrwt beam="2">  1       21 0.19952689E+00 0.17825664E+03</pdfrwt>
<totfact> 0.48269081E+04</totfact>
</mgrwt>
</event>
<event>
12    1  0.1013215E-001  0.1767816E+03  0.7546771E-02  0.1171506E+00
         21   -1    0    0  501  502  0.00000000000E+00  0.00000000000E+00  0.13331560656E+03  0.13331560656E+03  0.00000000000E+00 0. -1.
         21   -1    0    0  502  503 -0.00000000000E+00 -0.00000000000E+00 -0.82067471439E+03  0.82067471439E+03  0.00000000000E+00 0. -1.
         -6    2    1    2    0  503  0.25912564113E+02  0.14052807520E+02 -0.74722601233E+03  0.76734686148E+03  0.17206263378E+03 0.  0.
        -24    2    3    3    0    0  0.81274207504E+02 -0.67508143093E+01 -0.46982914502E+03  0.48367660531E+03  0.80947901255E+02 0.  0.
          6    2    1    2  501    0 -0.25912564113E+02 -0.14052807520E+02  0.59866904497E+02  0.18664345947E+03  0.17430660438E+03 0.  0.
         24    2    5    5    0    0  0.21740004845E+02 -0.64815060069E+02  0.49183522593E+02  0.11604743790E+03  0.79839646327E+02 0.  0.
          5    1    5    5  501    0 -0.47652568959E+02  0.50762252549E+02  0.10683381904E+02  0.70596021567E+02  0.47000000000E+01 0. -1.
        -11    1    6    6    0    0  0.36184175770E+02  0.20650651372E+01  0.12021649945E+02  0.38184802443E+02  0.00000000000E+00 0.  1.
         12    1    6    6    0    0 -0.14444170925E+02 -0.66880125206E+02  0.37161872649E+02  0.77862635456E+02  0.00000000000E+00 0. -1.
         -5    1    3    3    0  503 -0.55361643391E+02  0.20803621830E+02 -0.27739686731E+03  0.28367025617E+03  0.47000000000E+01 0.  1.
         13    1    4    4    0    0  0.19832857104E+02  0.34829705525E+02 -0.14127455105E+03  0.14685009153E+03  0.00000000000E+00 0. -1.
        -14    1    4    4    0    0  0.61441350400E+02 -0.41580519834E+02 -0.32855459397E+03  0.33682651379E+03  0.00000000000E+00 0.  1.
<mgrwt>
<rscale>  2 0.17622595E+03</rscale>
<asrwt>0</asrwt>
<pdfrwt beam="1">  1       21 0.20510094E-01 0.17678160E+03</pdfrwt>
<pdfrwt beam="2">  1       21 0.12625765E+00 0.17678160E+03</pdfrwt>
<totfact> 0.10364975E+04</totfact>
</mgrwt>
</event>
<event>
12    1  0.1013215E-001  0.2009680E+03  0.7546771E-02  0.1148955E+00
         21   -1    0    0  501  502  0.00000000000E+00  0.00000000000E+00  0.67757899634E+03  0.67757899634E+03  0.00000000000E+00 0.  1.
         21   -1    0    0  502  503 -0.00000000000E+00 -0.00000000000E+00 -0.15232042491E+03  0.15232042491E+03  0.00000000000E+00 0.  1.
         -6    2    1    2    0  503 -0.83715514212E+02 -0.58833459560E+02 -0.61217240807E+02  0.20994618168E+03  0.17280099927E+03 0.  0.
        -24    2    3    3    0    0 -0.26965834654E+02  0.24880820269E+01  0.25510998317E+02  0.89427572936E+02  0.81321171753E+02 0.  0.
          6    2    1    2  501    0  0.83715514212E+02  0.58833459560E+02  0.58647581224E+03  0.61995323957E+03  0.17296958583E+03 0.  0.
         24    2    5    5    0    0  0.11342442321E+03  0.66883840453E+02  0.55385963459E+03  0.57486074628E+03  0.79786182350E+02 0.  0.
          5    1    5    5  501    0 -0.29708908995E+02 -0.80503808930E+01  0.32616177653E+02  0.45092493288E+02  0.47000000000E+01 0. -1.
        -11    1    6    6    0    0  0.64474108598E+02 -0.34667654201E+00  0.32562827968E+03  0.33195000737E+03  0.00000000000E+00 0.  1.
         12    1    6    6    0    0  0.48950314609E+02  0.67230516995E+02  0.22823135491E+03  0.24291073891E+03  0.00000000000E+00 0. -1.
         -5    1    3    3    0  503 -0.56749679557E+02 -0.61321541587E+02 -0.86728239124E+02  0.12051860875E+03  0.47000000000E+01 0.  1.
         11    1    4    4    0    0  0.94892588922E+01 -0.17014000448E+02 -0.20014705141E+02  0.27930461283E+02  0.00000000000E+00 0. -1.
        -12    1    4    4    0    0 -0.36455093547E+02  0.19502082475E+02  0.45525703459E+02  0.61497111654E+02  0.00000000000E+00 0.  1.
<mgrwt>
<rscale>  2 0.20093173E+03</rscale>
<asrwt>0</asrwt>
<pdfrwt beam="1">  1       21 0.10424292E+00 0.20096801E+03</pdfrwt>
<pdfrwt beam="2">  1       21 0.23433912E-01 0.20096801E+03</pdfrwt>
<totfact> 0.12663338E+04</totfact>
</mgrwt>
</event>
<event>
12    1  0.1013215E-001  0.2520273E+03  0.7546771E-02  0.1112430E+00
         21   -1    0    0  501  502  0.00000000000E+00  0.00000000000E+00  0.20569040016E+03  0.20569040016E+03  0.00000000000E+00 0. -1.
         21   -1    0    0  502  503 -0.00000000000E+00 -0.00000000000E+00 -0.40548633819E+03  0.40548633819E+03  0.00000000000E+00 0.  1.
         -6    2    1    2    0  503  0.17980029119E+03 -0.27195726894E+02 -0.25187356747E+03  0.35631173363E+03  0.17449929874E+03 0.  0.
        -24    2    3    3    0    0  0.34007517854E+02 -0.19606925226E+02 -0.38713591146E+02  0.97908196167E+02  0.80909393458E+02 0.  0.
          6    2    1    2  501    0 -0.17980029119E+03  0.27195726894E+02  0.52077629439E+02  0.25486500471E+03  0.17081082771E+03 0.  0.
         24    2    5    5    0    0 -0.60458848773E+02  0.84303202818E+01 -0.34018386047E+02  0.10644285594E+03  0.80290026130E+02 0.  0.
          5    1    5    5  501    0 -0.11934144242E+03  0.18765406612E+02  0.86096015486E+02  0.14842214877E+03  0.47000000000E+01 0. -1.
        -11    1    6    6    0    0 -0.80233660187E+01 -0.32432471323E+02 -0.45198475486E+01  0.33714516462E+02  0.00000000000E+00 0.  1.
         12    1    6    6    0    0 -0.52435482754E+02  0.40862791605E+02 -0.29498538498E+02  0.72728339476E+02  0.00000000000E+00 0. -1.
         -5    1    3    3    0  503  0.14579277334E+03 -0.75888016674E+01 -0.21315997632E+03  0.25840353747E+03  0.47000000000E+01 0.  1.
         11    1    4    4    0    0  0.46185701328E+02  0.11525873693E+02 -0.11401226367E+01  0.47615802536E+02  0.00000000000E+00 0. -1.
        -12    1    4    4    0    0 -0.12178183474E+02 -0.31132798919E+02 -0.37573468509E+02  0.50292393631E+02  0.00000000000E+00 0.  1.
<mgrwt>
<rscale>  2 0.25138997E+03</rscale>
<asrwt>0</asrwt>
<pdfrwt beam="1">  1       21 0.31644677E-01 0.25202730E+03</pdfrwt>
<pdfrwt beam="2">  1       21 0.62382513E-01 0.25202730E+03</pdfrwt>
<totfact> 0.22161834E+04</totfact>
</mgrwt>
</event>
<event>
12    1  0.1013215E-001  0.1869357E+03  0.7546771E-02  0.1161729E+00
         21   -1    0    0  503  502  0.00000000000E+00  0.00000000000E+00  0.71482365592E+02  0.71482365592E+02  0.00000000000E+00 0. -1.
         21   -1    0    0  501  503 -0.00000000000E+00 -0.00000000000E+00 -0.22073783009E+04  0.22073783009E+04  0.00000000000E+00 0.  1.
          6    2    1    2  501    0  0.55125959850E+02  0.35135050539E+02 -0.20761661227E+04  0.20845648743E+04  0.17513310049E+03 0.  0.
         24    2    3    3    0    0  0.17627032806E+02 -0.46798063655E+02 -0.92242587428E+03  0.92730178599E+03  0.80736223082E+02 0.  0.
         -6    2    1    2    0  502 -0.55125959850E+02 -0.35135050539E+02 -0.59729812577E+02  0.19429579216E+03  0.17294467646E+03 0.  0.
        -24    2    5    5    0    0 -0.10731088045E+03 -0.41073439097E+02 -0.22496802222E+02  0.12974412715E+03  0.55899731282E+02 0.  0.
          5    1    3    3  501    0  0.37498927044E+02  0.81933114194E+02 -0.11537402484E+04  0.11572630883E+04  0.47000000000E+01 0. -1.
        -11    1    4    4    0    0 -0.16426769742E+02 -0.22907855579E+02 -0.72467571680E+03  0.72522376073E+03  0.00000000000E+00 0.  1.
         12    1    4    4    0    0  0.34053802548E+02 -0.23890208076E+02 -0.19775015748E+03  0.20207802526E+03  0.00000000000E+00 0. -1.
         -5    1    5    5    0  502  0.52184920596E+02  0.59383885576E+01 -0.37233010354E+02  0.64551665016E+02  0.47000000000E+01 0.  1.
         11    1    6    6    0    0 -0.86392261451E+02 -0.55721490546E+01 -0.15495982232E+02  0.87947695530E+02  0.00000000000E+00 0. -1.
        -12    1    6    6    0    0 -0.20918618995E+02 -0.35501290042E+02 -0.70008199903E+01  0.41796431616E+02  0.00000000000E+00 0.  1.
<mgrwt>
<rscale>  2 0.18642139E+03</rscale>
<asrwt>0</asrwt>
<pdfrwt beam="1">  1       21 0.10997288E-01 0.18693567E+03</pdfrwt>
<pdfrwt beam="2">  1       21 0.33959663E+00 0.18693567E+03</pdfrwt>
<totfact> 0.13915866E+03</totfact>
</mgrwt>
</event>
<event>
12    1  0.1013215E-001  0.1812933E+03  0.7546771E-02  0.1167966E+00
         21   -1    0    0  501  502  0.00000000000E+00  0.00000000000E+00  0.13038785165E+03  0.13038785165E+03  0.00000000000E+00 0. -1.
         21   -1    0    0  502  503 -0.00000000000E+00 -0.00000000000E+00 -0.59781245225E+03  0.59781245225E+03  0.00000000000E+00 0. -1.
         -6    2    1    2    0  503  0.24463848302E+01 -0.24745428040E+02 -0.51530884146E+03  0.54626960245E+03  0.17957994171E+03 0.  0.
        -24    2    3    3    0    0  0.61792521270E+02 -0.23586188797E+01 -0.41773168214E+03  0.42979417519E+03  0.79996224867E+02 0.  0.
          6    2    1    2  501    0 -0.24463848302E+01  0.24745428040E+02  0.47884240863E+02  0.18193070146E+03  0.17374567218E+03 0.  0.
         24    2    5    5    0    0 -0.12409074989E+02  0.69355553389E+02  0.72875578436E+02  0.12962414897E+03  0.80792277706E+02 0.  0.
          5    1    5    5  501    0  0.99626901590E+01 -0.44610125350E+02 -0.24991337573E+02  0.52306552483E+02  0.47000000000E+01 0. -1.
        -13    1    6    6    0    0  0.29697994320E+02  0.24103954463E+02  0.62757542054E+01  0.38760244817E+02  0.00000000000E+00 0.  1.
         14    1    6    6    0    0 -0.42107069309E+02  0.45251598926E+02  0.66599824231E+02  0.90863904157E+02  0.00000000000E+00 0. -1.
         -5    1    3    3    0  503 -0.59346136440E+02 -0.22386809160E+02 -0.97577159314E+02  0.11647542726E+03  0.47000000000E+01 0.  1.
         11    1    4    4    0    0  0.18690376873E+02 -0.38262511644E+02 -0.22802806398E+03  0.23197014452E+03  0.00000000000E+00 0. -1.
        -12    1    4    4    0    0  0.43102144398E+02  0.35903892764E+02 -0.18970361816E+03  0.19782403067E+03  0.00000000000E+00 0.  1.
<mgrwt>
<rscale>  2 0.17983143E+03</rscale>
<asrwt>0</asrwt>
<pdfrwt beam="1">  1       21 0.20059670E-01 0.18129334E+03</pdfrwt>
<pdfrwt beam="2">  1       21 0.91971145E-01 0.18129334E+03</pdfrwt>
<totfact> 0.23088952E+04</totfact>
</mgrwt>
</event>
<event>
12    1  0.1013215E-001  0.2634880E+03  0.7546771E-02  0.1105140E+00
         21   -1    0    0  503  502  0.00000000000E+00  0.00000000000E+00  0.86254327116E+02  0.86254327116E+02  0.00000000000E+00 0. -1.
         21   -1    0    0  501  503 -0.00000000000E+00 -0.00000000000E+00 -0.85960002750E+03  0.85960002750E+03  0.00000000000E+00 0. -1.
          6    2    1    2  501    0  0.18674815898E+03  0.68525358829E+02 -0.50799180538E+03  0.57226007387E+03  0.17278691536E+03 0.  0.
         24    2    3    3    0    0  0.10273221621E+03  0.75276716156E+01 -0.40940902318E+03  0.42901185771E+03  0.76320716110E+02 0.  0.
         -6    2    1    2    0  502 -0.18674815898E+03 -0.68525358829E+02 -0.26535389501E+03  0.37359428075E+03  0.17201568919E+03 0.  0.
        -24    2    5    5    0    0 -0.11820073640E+03 -0.11145098841E+03 -0.17261754460E+03  0.25045419993E+03  0.80856370538E+02 0.  0.
          5    1    3    3  501    0  0.84015942774E+02  0.60997687214E+02 -0.98582782202E+02  0.14324821616E+03  0.47000000000E+01 0. -1.
        -13    1    4    4    0    0  0.97665077807E+02 -0.16680723669E+02 -0.27402240956E+03  0.29138461680E+03  0.00000000000E+00 0.  1.
         14    1    4    4    0    0  0.50671384034E+01  0.24208395284E+02 -0.13538661362E+03  0.13762724091E+03  0.00000000000E+00 0. -1.
         -5    1    5    5    0  502 -0.68547422583E+02  0.42925629580E+02 -0.92736350406E+02  0.12314008082E+03  0.47000000000E+01 0.  1.
         13    1    6    6    0    0 -0.82029059743E+02 -0.26652396136E+02 -0.60768231572E+02  0.10550779512E+03  0.00000000000E+00 0. -1.
        -14    1    6    6    0    0 -0.36171676658E+02 -0.84798592273E+02 -0.11184931303E+03  0.14494640481E+03  0.00000000000E+00 0.  1.
<mgrwt>
<rscale>  2 0.26336162E+03</rscale>
<asrwt>0</asrwt>
<pdfrwt beam="1">  1       21 0.13269896E-01 0.26348798E+03</pdfrwt>
<pdfrwt beam="2">  1       21 0.13224616E+00 0.26348798E+03</pdfrwt>
<totfact> 0.19463649E+04</totfact>
</mgrwt>
</event>
<event>
12    1  0.1013215E-001  0.1820615E+03  0.7546771E-02  0.1166238E+00
         21   -1    0    0  501  502  0.00000000000E+00  0.00000000000E+00  0.61139824388E+03  0.61139824388E+03  0.00000000000E+00 0. -1.
         21   -1    0    0  502  503 -0.00000000000E+00 -0.00000000000E+00 -0.76424115397E+02  0.76424115397E+02  0.00000000000E+00 0. -1.
         -6    2    1    2    0  503  0.49717710470E+01  0.54107754869E+02  0.80852546882E+02  0.19920724881E+03  0.17376428286E+03 0.  0.
        -24    2    3    3    0    0  0.47327448825E+02  0.82441704423E+02  0.35816203331E+02  0.13103703260E+03  0.82773072019E+02 0.  0.
          6    2    1    2  501    0 -0.49717710470E+01 -0.54107754869E+02  0.45412158160E+03  0.48861511047E+03  0.17194751425E+03 0.  0.
         24    2    5    5    0    0  0.46877353160E+02 -0.65344378411E+02  0.21015721091E+03  0.23890468306E+03  0.80262196959E+02 0.  0.
          5    1    5    5  501    0 -0.51849124207E+02  0.11236623542E+02  0.24396437070E+03  0.24971042741E+03  0.47000000000E+01 0. -1.
        -13    1    6    6    0    0  0.36760003383E+02 -0.11284571266E+02  0.15971011221E+03  0.16427403733E+03  0.00000000000E+00 0.  1.
         14    1    6    6    0    0  0.10117349777E+02 -0.54059807145E+02  0.50447098696E+02  0.74630645729E+02  0.00000000000E+00 0. -1.
         -5    1    3    3    0  503 -0.42355677778E+02 -0.28333949554E+02  0.45036343551E+02  0.68170216207E+02  0.47000000000E+01 0.  1.
         13    1    4    4    0    0  0.57894074568E+02  0.63000839782E+02 -0.38154210348E+01  0.85646874555E+02  0.00000000000E+00 0. -1.
        -14    1    4    4    0    0 -0.10566625744E+02  0.19440864641E+02  0.39631624366E+02  0.45390158047E+02  0.00000000000E+00 0.  1.
<mgrwt>
<rscale>  2 0.18162667E+03</rscale>
<asrwt>0</asrwt>
<pdfrwt beam="1">  1       21 0.94061265E-01 0.18206151E+03</pdfrwt>
<pdfrwt beam="2">  1       21 0.11757557E-01 0.18206151E+03</pdfrwt>
<totfact> 0.57994919E+04</totfact>
</mgrwt>
</event>
<event>
12    1  0.1013215E-001  0.1848520E+03  0.7546771E-02  0.1164114E+00
         21   -1    0    0  501  502  0.00000000000E+00  0.00000000000E+00  0.10723137098E+03  0.10723137098E+03  0.00000000000E+00 0.  1.
         21   -1    0    0  502  503 -0.00000000000E+00 -0.00000000000E+00 -0.35609077324E+03  0.35609077324E+03  0.00000000000E+00 0.  1.
         -6    2    1    2    0  503 -0.17751656328E+02 -0.61568478924E+02 -0.20482593776E+03  0.27329791903E+03  0.16921078237E+03 0.  0.
        -24    2    3    3    0    0 -0.52914542099E+01 -0.10680487230E+03 -0.14151796329E+03  0.19435757730E+03  0.79449692797E+02 0.  0.
          6    2    1    2  501    0  0.17751656328E+02  0.61568478924E+02 -0.44033464501E+02  0.19002422518E+03  0.17339106453E+03 0.  0.
         24    2    5    5    0    0 -0.53730749158E+02  0.49890100708E+02 -0.44812979991E+02  0.11743761170E+03  0.80046073690E+02 0.  0.
          5    1    5    5  501    0  0.71482405486E+02  0.11678378216E+02  0.77951548930E+00  0.72586613478E+02  0.47000000000E+01 0. -1.
        -11    1    6    6    0    0  0.12741038579E+02  0.12206683833E+02  0.12751772548E+02  0.21770275547E+02  0.00000000000E+00 0.  1.
         12    1    6    6    0    0 -0.66471787737E+02  0.37683416875E+02 -0.57564752539E+02  0.95667336156E+02  0.00000000000E+00 0. -1.
         -5    1    3    3    0  503 -0.12460202118E+02  0.45236393373E+02 -0.63307974464E+02  0.78940341733E+02  0.47000000000E+01 0.  1.
         11    1    4    4    0    0 -0.16656432468E+02 -0.46852090974E+02 -0.11951269563E+02  0.51140864437E+02  0.00000000000E+00 0. -1.
        -12    1    4    4    0    0  0.11364978258E+02 -0.59952781323E+02 -0.12956669373E+03  0.14321671286E+03  0.00000000000E+00 0.  1.
<mgrwt>
<rscale>  2 0.18386530E+03</rscale>
<asrwt>0</asrwt>
<pdfrwt beam="1">  1       21 0.16497134E-01 0.18485200E+03</pdfrwt>
<pdfrwt beam="2">  1       21 0.54783197E-01 0.18485200E+03</pdfrwt>
<totfact> 0.10399402E+05</totfact>
</mgrwt>
</event>
<event>
12    1  0.1013215E-001  0.2092535E+03  0.7546771E-02  0.1142193E+00
         21   -1    0    0  503  502  0.00000000000E+00  0.00000000000E+00  0.26966777125E+03  0.26966777125E+03  0.00000000000E+00 0. -1.
         21   -1    0    0  501  503 -0.00000000000E+00 -0.00000000000E+00 -0.18547867617E+03  0.18547867617E+03  0.00000000000E+00 0. -1.
          6    2    1    2  501    0 -0.50959705403E+02  0.10665838136E+03 -0.38470942526E+02  0.21259230915E+03  0.17246035660E+03 0.  0.
         24    2    3    3    0    0 -0.29648828675E+02  0.18051159682E+02  0.35967242533E+02  0.94827600530E+02  0.80583707281E+02 0.  0.
         -6    2    1    2    0  502  0.50959705403E+02 -0.10665838136E+03  0.12266003761E+03  0.24255413828E+03  0.17266766716E+03 0.  0.
        -24    2    5    5    0    0  0.40343888866E+02 -0.14010429638E+03  0.12460782522E+03  0.20709699981E+03  0.78135868767E+02 0.  0.
          5    1    3    3  501    0 -0.21310876728E+02  0.88607221683E+02 -0.74438185059E+02  0.11776470862E+03  0.47000000000E+01 0. -1.
        -11    1    4    4    0    0 -0.26402030184E+02 -0.26438912932E+02 -0.25477437618E+00  0.37365066905E+02  0.00000000000E+00 0.  1.
         12    1    4    4    0    0 -0.32467984909E+01  0.44490072614E+02  0.36222016909E+02  0.57462533625E+02  0.00000000000E+00 0. -1.
         -5    1    5    5    0  502  0.10615816537E+02  0.33445915019E+02 -0.19477876155E+01  0.35457138474E+02  0.47000000000E+01 0.  1.
         11    1    6    6    0    0  0.66002847000E+01 -0.61679686809E+02  0.10098112869E+03  0.11851217606E+03  0.00000000000E+00 0. -1.
        -12    1    6    6    0    0  0.33743604166E+02 -0.78424609574E+02  0.23626696532E+02  0.88584823745E+02  0.00000000000E+00 0.  1.
<mgrwt>
<rscale>  2 0.20921072E+03</rscale>
<asrwt>0</asrwt>
<pdfrwt beam="1">  1       21 0.41487350E-01 0.20925350E+03</pdfrwt>
<pdfrwt beam="2">  1       21 0.28535181E-01 0.20925350E+03</pdfrwt>
<totfact> 0.65212766E+04</totfact>
</mgrwt>
</event>
<event>
12    1  0.1013215E-001  0.2802753E+03  0.7546771E-02  0.1095598E+00
         21   -1    0    0  503  502  0.00000000000E+00  0.00000000000E+00  0.27207711234E+03  0.27207711234E+03  0.00000000000E+00 0. -1.
         21   -1    0    0  501  503 -0.00000000000E+00 -0.00000000000E+00 -0.33785521207E+03  0.33785521207E+03  0.00000000000E+00 0. -1.
          6    2    1    2  501    0 -0.47926777453E+02 -0.21512652715E+03 -0.14969813547E+03  0.31736295826E+03  0.17243351424E+03 0.  0.
         24    2    3    3    0    0 -0.52671131106E+01 -0.17785877017E+03 -0.41338067642E+02  0.19499986345E+03  0.68224821743E+02 0.  0.
         -6    2    1    2    0  502  0.47926777453E+02  0.21512652715E+03  0.83920035743E+02  0.29256936614E+03  0.17314116473E+03 0.  0.
        -24    2    5    5    0    0  0.34066540673E+02  0.17909856448E+03 -0.83414123052E+00  0.19931980436E+03  0.80565896183E+02 0.  0.
          5    1    3    3  501    0 -0.42659664342E+02 -0.37267756979E+02 -0.10836006783E+03  0.12236309481E+03  0.47000000000E+01 0. -1.
        -13    1    4    4    0    0  0.21209492229E+02 -0.16429704701E+02 -0.85709887716E+01  0.28164509683E+02  0.00000000000E+00 0.  1.
         14    1    4    4    0    0 -0.26476605340E+02 -0.16142906547E+03 -0.32767078870E+02  0.16683535377E+03  0.00000000000E+00 0. -1.
         -5    1    5    5    0  502  0.13860236779E+02  0.36027962671E+02  0.84754176973E+02  0.93249561780E+02  0.47000000000E+01 0.  1.
         13    1    6    6    0    0  0.92238392883E+01  0.10110152810E+03  0.38405381794E+02  0.10854294793E+03  0.00000000000E+00 0. -1.
        -14    1    6    6    0    0  0.24842701385E+02  0.77997036378E+02 -0.39239523024E+02  0.90776856428E+02  0.00000000000E+00 0.  1.
<mgrwt>
<rscale>  2 0.28016612E+03</rscale>
<asrwt>0</asrwt>
<pdfrwt beam="1">  1       21 0.41858017E-01 0.28027533E+03</pdfrwt>
<pdfrwt beam="2">  1       21 0.51977725E-01 0.28027533E+03</pdfrwt>
<totfact> 0.18442206E+04</totfact>
</mgrwt>
</event>
<event>
12    1  0.1013215E-001  0.1996468E+03  0.7546771E-02  0.1151233E+00
         21   -1    0    0  503  502  0.00000000000E+00  0.00000000000E+00  0.24542399168E+03  0.24542399168E+03  0.00000000000E+00 0.  1.
         21   -1    0    0  501  503 -0.00000000000E+00 -0.00000000000E+00 -0.25706802245E+03  0.25706802245E+03  0.00000000000E+00 0.  1.
          6    2    1    2  501    0 -0.36768375108E+02 -0.80610693276E+02 -0.16180510376E+03  0.25267770703E+03  0.17267059608E+03 0.  0.
         24    2    3    3    0    0 -0.77214731210E+02 -0.35360526699E+02 -0.53233707059E+02  0.12820552750E+03  0.79939653170E+02 0.  0.
         -6    2    1    2    0  502  0.36768375108E+02  0.80610693276E+02  0.15016107300E+03  0.24981430710E+03  0.17891015317E+03 0.  0.
        -24    2    5    5    0    0  0.71385724420E+02  0.98641130560E+02  0.15144435189E+03  0.21047991570E+03  0.80872794576E+02 0.  0.
          5    1    3    3  501    0  0.40446356102E+02 -0.45250166577E+02 -0.10857139670E+03  0.12447217954E+03  0.47000000000E+01 0. -1.
        -11    1    4    4    0    0 -0.51869965180E+02 -0.28109657533E+02 -0.74005350043E+02  0.94643742368E+02  0.00000000000E+00 0.  1.
         12    1    4    4    0    0 -0.25344766030E+02 -0.72508691662E+01  0.20771642983E+02  0.33561785128E+02  0.00000000000E+00 0. -1.
         -5    1    5    5    0  502 -0.34617349311E+02 -0.18030437284E+02 -0.12832788992E+01  0.39334391399E+02  0.47000000000E+01 0.  1.
         13    1    6    6    0    0  0.70482061490E+02  0.29123212578E+02  0.71560773302E+02  0.10457928465E+03  0.00000000000E+00 0. -1.
        -14    1    6    6    0    0  0.90366292934E+00  0.69517917982E+02  0.79883578593E+02  0.10590063105E+03  0.00000000000E+00 0.  1.
<mgrwt>
<rscale>  2 0.19823904E+03</rscale>
<asrwt>0</asrwt>
<pdfrwt beam="1">  1       21 0.37757537E-01 0.19964679E+03</pdfrwt>
<pdfrwt beam="2">  1       21 0.39548927E-01 0.19964679E+03</pdfrwt>
<totfact> 0.41543568E+04</totfact>
</mgrwt>
</event>
<event>
12    1  0.1013215E-001  0.2072037E+03  0.7546771E-02  0.1143823E+00
         21   -1    0    0  501  502  0.00000000000E+00  0.00000000000E+00  0.80217040176E+03  0.80217040176E+03  0.00000000000E+00 0. -1.
         21   -1    0    0  502  503 -0.00000000000E+00 -0.00000000000E+00 -0.53719902124E+02  0.53719902124E+02  0.00000000000E+00 0. -1.
         -6    2    1    2    0  503  0.39551209489E+02  0.10843631311E+03  0.40218536427E+03  0.45242284364E+03  0.17207739549E+03 0.  0.
        -24    2    3    3    0    0 -0.24638056541E+02  0.45060815173E+01  0.14617974602E+03  0.16872807547E+03  0.80456862373E+02 0.  0.
          6    2    1    2  501    0 -0.39551209489E+02 -0.10843631311E+03  0.34626513537E+03  0.40346746025E+03  0.17194102284E+03 0.  0.
         24    2    5    5    0    0 -0.74166441856E+02 -0.20828110495E+02  0.16558298707E+03  0.19965004149E+03  0.80671817721E+02 0.  0.
          5    1    5    5  501    0  0.34615232367E+02 -0.87608202614E+02  0.18068214830E+03  0.20381741876E+03  0.47000000000E+01 0. -1.
        -11    1    6    6    0    0 -0.32792761145E+02  0.23147420991E+02  0.11181241263E+03  0.11879892213E+03  0.00000000000E+00 0.  1.
         12    1    6    6    0    0 -0.41373680711E+02 -0.43975531486E+02  0.53770574438E+02  0.80851119352E+02  0.00000000000E+00 0. -1.
         -5    1    3    3    0  503  0.64189266030E+02  0.10393023159E+03  0.25600561825E+03  0.28369476817E+03  0.47000000000E+01 0.  1.
         11    1    4    4    0    0 -0.12860099329E+00  0.18593893867E+02  0.13807227282E+03  0.13931870639E+03  0.00000000000E+00 0. -1.
        -12    1    4    4    0    0 -0.24509455548E+02 -0.14087812350E+02  0.81074732027E+01  0.29409369082E+02  0.00000000000E+00 0.  1.
<mgrwt>
<rscale>  2 0.20717536E+03</rscale>
<asrwt>0</asrwt>
<pdfrwt beam="1">  1       21 0.12341082E+00 0.20720367E+03</pdfrwt>
<pdfrwt beam="2">  1       21 0.82646009E-02 0.20720367E+03</pdfrwt>
<totfact> 0.55424933E+04</totfact>
</mgrwt>
</event>
<event>
12    1  0.1013215E-001  0.1889875E+03  0.7546771E-02  0.1159867E+00
         21   -1    0    0  501  502  0.00000000000E+00  0.00000000000E+00  0.14785652785E+03  0.14785652785E+03  0.00000000000E+00 0.  1.
         21   -1    0    0  502  503 -0.00000000000E+00 -0.00000000000E+00 -0.23953003853E+03  0.23953003853E+03  0.00000000000E+00 0.  1.
         -6    2    1    2    0  503  0.74284559268E+02 -0.52313364883E+01 -0.56025743227E+02  0.19506645248E+03  0.17136649133E+03 0.  0.
        -24    2    3    3    0    0  0.62970736822E+02  0.91019229736E+01  0.30057857738E+02  0.10694198788E+03  0.80529219927E+02 0.  0.
          6    2    1    2  501    0 -0.74284559268E+02  0.52313364883E+01 -0.35647767456E+02  0.19232011391E+03  0.17369715099E+03 0.  0.
         24    2    5    5    0    0 -0.52999786748E+02 -0.12026768959E+01  0.48645862081E+02  0.10501636799E+03  0.76495711135E+02 0.  0.
          5    1    5    5  501    0 -0.21284772519E+02  0.64340133842E+01 -0.84293629537E+02  0.87303745910E+02  0.47000000000E+01 0. -1.
        -13    1    6    6    0    0  0.94774003570E+00 -0.20215089058E+02  0.43017983486E+02  0.47540455824E+02  0.00000000000E+00 0.  1.
         14    1    6    6    0    0 -0.53947526784E+02  0.19012412162E+02  0.56278785952E+01  0.57475912170E+02  0.00000000000E+00 0. -1.
         -5    1    3    3    0  503  0.11313822446E+02 -0.14333259462E+02 -0.86083600965E+02  0.88124464595E+02  0.47000000000E+01 0.  1.
         11    1    4    4    0    0  0.16664874810E+02 -0.28112491252E+02  0.34309729883E+02  0.47383412514E+02  0.00000000000E+00 0. -1.
        -12    1    4    4    0    0  0.46305862012E+02  0.37214414225E+02 -0.42518721455E+01  0.59558575366E+02  0.00000000000E+00 0.  1.
<mgrwt>
<rscale>  2 0.18845022E+03</rscale>
<asrwt>0</asrwt>
<pdfrwt beam="1">  1       21 0.22747158E-01 0.18898747E+03</pdfrwt>
<pdfrwt beam="2">  1       21 0.36850775E-01 0.18898747E+03</pdfrwt>
<totfact> 0.12887684E+05</totfact>
</mgrwt>
</event>
<event>
12    1  0.1013215E-001  0.2333103E+03  0.7546771E-02  0.1124376E+00
         21   -1    0    0  501  502  0.00000000000E+00  0.00000000000E+00  0.19442790945E+03  0.19442790945E+03  0.00000000000E+00 0. -1.
         21   -1    0    0  502  503 -0.00000000000E+00 -0.00000000000E+00 -0.33594781203E+03  0.33594781203E+03  0.00000000000E+00 0.  1.
         -6    2    1    2    0  503 -0.15255771797E+03 -0.30829131424E+02 -0.17927868884E+03  0.29402977269E+03  0.17345998472E+03 0.  0.
        -24    2    3    3    0    0 -0.12763930001E+03 -0.82368306975E+02 -0.11109559034E+03  0.20487687543E+03  0.80968975470E+02 0.  0.
          6    2    1    2  501    0  0.15255771797E+03  0.30829131424E+02  0.37758786262E+02  0.23634594880E+03  0.17380848344E+03 0.  0.
         24    2    5    5    0    0  0.91561212999E+02  0.71605353986E+02 -0.19363824585E+02  0.14324193914E+03  0.81440241772E+02 0.  0.
          5    1    5    5  501    0  0.60996504971E+02 -0.40776222562E+02  0.57122610846E+02  0.93104009661E+02  0.47000000000E+01 0. -1.
        -11    1    6    6    0    0  0.54902636203E+02  0.77375485701E+01 -0.38076913998E+02  0.67260839271E+02  0.00000000000E+00 0.  1.
         12    1    6    6    0    0  0.36658576796E+02  0.63867805416E+02  0.18713089414E+02  0.75981099865E+02  0.00000000000E+00 0. -1.
         -5    1    3    3    0  503 -0.24918417958E+02  0.51539175551E+02 -0.68183098491E+02  0.89152897260E+02  0.47000000000E+01 0.  1.
         13    1    4    4    0    0  0.74890395464E+01 -0.22703750365E+01  0.52286051536E+01  0.94116219636E+01  0.00000000000E+00 0. -1.
        -14    1    4    4    0    0 -0.13512833956E+03 -0.80097931939E+02 -0.11632419550E+03  0.19546525346E+03  0.00000000000E+00 0.  1.
<mgrwt>
<rscale>  2 0.23324537E+03</rscale>
<asrwt>0</asrwt>
<pdfrwt beam="1">  1       21 0.29911986E-01 0.23331027E+03</pdfrwt>
<pdfrwt beam="2">  1       21 0.51684279E-01 0.23331027E+03</pdfrwt>
<totfact> 0.37346497E+04</totfact>
</mgrwt>
</event>
<event>
12    1  0.1013215E-001  0.1949123E+03  0.7546771E-02  0.1154267E+00
         21   -1    0    0  503  502  0.00000000000E+00  0.00000000000E+00  0.48464622258E+02  0.48464622258E+02  0.00000000000E+00 0. -1.
         21   -1    0    0  501  503 -0.00000000000E+00 -0.00000000000E+00 -0.79085250271E+03  0.79085250271E+03  0.00000000000E+00 0. -1.
          6    2    1    2  501    0 -0.86800746471E+02 -0.14306093628E+01 -0.32339574085E+03  0.37720758286E+03  0.17367883906E+03 0.  0.
         24    2    3    3    0    0 -0.84368026286E+02  0.60314824032E+02 -0.18526784071E+03  0.22581463894E+03  0.76891069051E+02 0.  0.
         -6    2    1    2    0  502  0.86800746471E+02  0.14306093628E+01 -0.41899213961E+03  0.46210954211E+03  0.17451188964E+03 0.  0.
        -24    2    5    5    0    0  0.36833951086E+02  0.20184295947E+02 -0.88879364110E+02  0.12767731288E+03  0.81472750687E+02 0.  0.
          5    1    3    3  501    0 -0.24327201844E+01 -0.61745433395E+02 -0.13812790014E+03  0.15139294392E+03  0.47000000000E+01 0. -1.
        -13    1    4    4    0    0 -0.70650417192E+02  0.42634261611E+02 -0.69447640488E+02  0.10785238283E+03  0.00000000000E+00 0.  1.
         14    1    4    4    0    0 -0.13717609094E+02  0.17680562422E+02 -0.11582020022E+03  0.11796225611E+03  0.00000000000E+00 0. -1.
         -5    1    5    5    0  502  0.49966795385E+02 -0.18753686585E+02 -0.33011277550E+03  0.33443222923E+03  0.47000000000E+01 0.  1.
         11    1    6    6    0    0  0.35800980990E+02  0.42122119283E+02 -0.90071536167E+02  0.10568285008E+03  0.00000000000E+00 0. -1.
        -12    1    6    6    0    0  0.10329700957E+01 -0.21937823335E+02  0.11921720563E+01  0.21994462806E+02  0.00000000000E+00 0.  1.
<mgrwt>
<rscale>  2 0.19472568E+03</rscale>
<asrwt>0</asrwt>
<pdfrwt beam="1">  1       21 0.74560960E-02 0.19491233E+03</pdfrwt>
<pdfrwt beam="2">  1       21 0.12166961E+00 0.19491233E+03</pdfrwt>
<totfact> 0.69126307E+04</totfact>
</mgrwt>
</event>
<event>
11    1  0.1013215E-001  0.1866691E+03  0.7546771E-02  0.1161669E+00
         21   -1    0    0  501  502  0.00000000000E+00  0.00000000000E+00  0.14387837087E+03  0.14387837087E+03  0.00000000000E+00 0.  1.
         21   -1    0    0  502  503 -0.00000000000E+00 -0.00000000000E+00 -0.25470452527E+03  0.25470452527E+03  0.00000000000E+00 0.  1.
         -6    2    1    2    0  503  0.39996258662E+01 -0.69097105831E+02 -0.10133264947E+03  0.21239972978E+03  0.17336358418E+03 0.  0.
        -24    2    3    3    0    0  0.44792971388E+02 -0.35580169633E+02 -0.12033261529E+03  0.15609190837E+03  0.81316583785E+02 0.  0.
          6    2    1    2  501    0 -0.39996258662E+01  0.69097105831E+02 -0.94935049257E+01  0.18618316636E+03  0.17257936655E+03 0.  0.
          5    1    5    5  501    0 -0.13948536746E+01  0.67992112140E+01  0.36649257145E+02  0.37595650536E+02  0.47000000000E+01 0. -1.
        -11    1    5    5    0    0  0.21070162988E+02  0.37725758725E+02  0.38155238102E+02  0.57645527444E+02  0.00000000000E+00 0.  1.
         12    1    5    5    0    0 -0.23674935180E+02  0.24572135892E+02 -0.84298000172E+02  0.90941988383E+02  0.00000000000E+00 0. -1.
         -5    1    3    3    0  503 -0.40793345522E+02 -0.33516936199E+02  0.18999965817E+02  0.56307821411E+02  0.47000000000E+01 0.  1.
         13    1    4    4    0    0  0.86024513298E+00  0.11404036249E+02  0.70181167912E+01  0.13418123109E+02  0.00000000000E+00 0. -1.
        -14    1    4    4    0    0  0.43932726255E+02 -0.46984205882E+02 -0.12735073208E+03  0.14267378526E+03  0.00000000000E+00 0.  1.
<mgrwt>
<rscale>  2 0.18648677E+03</rscale>
<asrwt>0</asrwt>
<pdfrwt beam="1">  1       21 0.22135134E-01 0.18666906E+03</pdfrwt>
<pdfrwt beam="2">  1       21 0.39185311E-01 0.18666906E+03</pdfrwt>
<totfact> 0.12006176E+05</totfact>
</mgrwt>
</event>
<event>
12    1  0.1013215E-001  0.2416355E+03  0.7546771E-02  0.1118836E+00
         21   -1    0    0  501  502  0.00000000000E+00  0.00000000000E+00  0.20194208465E+04  0.20194208465E+04  0.00000000000E+00 0. -1.
         21   -1    0    0  502  503 -0.00000000000E+00 -0.00000000000E+00 -0.12272265122E+03  0.12272265122E+03  0.00000000000E+00 0. -1.
         -6    2    1    2    0  503  0.32108441994E+01 -0.16692708496E+03  0.11805783462E+02  0.24192369083E+03  0.17467894677E+03 0.  0.
        -24    2    3    3    0    0 -0.64264317041E+02 -0.11718339678E+03  0.28945173773E+02  0.15623133062E+03  0.75554977702E+02 0.  0.
          6    2    1    2  501    0 -0.32108441994E+01  0.16692708496E+03  0.18848924118E+04  0.19002198069E+04  0.17361148921E+03 0.  0.
         24    2    5    5    0    0 -0.63461402337E+02  0.89834045851E+02  0.13094119523E+04  0.13164618813E+04  0.80091938769E+02 0.  0.
          5    1    5    5  501    0  0.60250558138E+02  0.77093039109E+02  0.57548045951E+03  0.58375792561E+03  0.47000000000E+01 0. -1.
        -11    1    6    6    0    0 -0.51151122758E+02  0.10479606669E+03  0.11074894840E+04  0.11136119657E+04  0.00000000000E+00 0.  1.
         12    1    6    6    0    0 -0.12310279580E+02 -0.14962020843E+02  0.20192246829E+03  0.20284991558E+03  0.00000000000E+00 0. -1.
         -5    1    3    3    0  503  0.67475161240E+02 -0.49743688180E+02 -0.17139390312E+02  0.85692360210E+02  0.47000000000E+01 0.  1.
         11    1    4    4    0    0 -0.43092118587E+02 -0.10454478330E+02  0.34532991174E+01  0.44476421577E+02  0.00000000000E+00 0. -1.
        -12    1    4    4    0    0 -0.21172198454E+02 -0.10672891845E+03  0.25491874656E+02  0.11175490904E+03  0.00000000000E+00 0.  1.
<mgrwt>
<rscale>  2 0.24144259E+03</rscale>
<asrwt>0</asrwt>
<pdfrwt beam="1">  1       21 0.31068011E+00 0.24163546E+03</pdfrwt>
<pdfrwt beam="2">  1       21 0.18880409E-01 0.24163546E+03</pdfrwt>
<totfact> 0.71539512E+02</totfact>
</mgrwt>
</event>
<event>
12    1  0.1013215E-001  0.2484998E+03  0.7546771E-02  0.1115785E+00
         21   -1    0    0  503  502  0.00000000000E+00  0.00000000000E+00  0.18554123576E+03  0.18554123576E+03  0.00000000000E+00 0. -1.
         21   -1    0    0  501  503 -0.00000000000E+00 -0.00000000000E+00 -0.54878194006E+03  0.54878194006E+03  0.00000000000E+00 0.  1.
          6    2    1    2  501    0 -0.13635953355E+03 -0.91229690268E+02 -0.41643665763E+03  0.48019339501E+03  0.17392362697E+03 0.  0.
         24    2    3    3    0    0 -0.15945425805E+03 -0.56606799765E+02 -0.27579541998E+03  0.33344817848E+03  0.80588981014E+02 0.  0.
         -6    2    1    2    0  502  0.13635953355E+03  0.91229690268E+02  0.53195953317E+02  0.25412978081E+03  0.18664232443E+03 0.  0.
        -24    2    5    5    0    0  0.15510793697E+03  0.92428923028E+02  0.86723962072E+02  0.21541081697E+03  0.79241381523E+02 0.  0.
          5    1    3    3  501    0  0.23094724498E+02 -0.34622890503E+02 -0.14064123765E+03  0.14674521653E+03  0.47000000000E+01 0. -1.
        -11    1    4    4    0    0 -0.14144307706E+02  0.13659951603E+02 -0.89953197751E+01  0.21623401586E+02  0.00000000000E+00 0.  1.
         12    1    4    4    0    0 -0.14530995035E+03 -0.70266751368E+02 -0.26680010020E+03  0.31182477690E+03  0.00000000000E+00 0. -1.
         -5    1    5    5    0  502 -0.18748403419E+02 -0.11992327598E+01 -0.33528008755E+02  0.38718963843E+02  0.47000000000E+01 0.  1.
         11    1    6    6    0    0  0.93104756338E+02  0.95447693054E+02  0.72312042499E+02  0.15168318711E+03  0.00000000000E+00 0. -1.
        -12    1    6    6    0    0  0.62003180636E+02 -0.30187700266E+01  0.14411919573E+02  0.63727629857E+02  0.00000000000E+00 0.  1.
<mgrwt>
<rscale>  2 0.24611434E+03</rscale>
<asrwt>0</asrwt>
<pdfrwt beam="1">  1       21 0.28544806E-01 0.24849977E+03</pdfrwt>
<pdfrwt beam="2">  1       21 0.84427990E-01 0.24849977E+03</pdfrwt>
<totfact> 0.13815280E+04</totfact>
</mgrwt>
</event>
<event>
12    1  0.1013215E-001  0.1841112E+03  0.7546771E-02  0.1164057E+00
         21   -1    0    0  501  502  0.00000000000E+00  0.00000000000E+00  0.11165507071E+04  0.11165507071E+04  0.00000000000E+00 0. -1.
         21   -1    0    0  502  503 -0.00000000000E+00 -0.00000000000E+00 -0.32186922991E+02  0.32186922991E+02  0.00000000000E+00 0. -1.
         -6    2    1    2    0  503 -0.32130940930E+02 -0.52698445054E+02  0.39976860920E+03  0.43981769784E+03  0.17267061983E+03 0.  0.
        -24    2    3    3    0    0  0.31207600655E+02 -0.63885070726E+02  0.31708274787E+03  0.33495610760E+03  0.81233665550E+02 0.  0.
          6    2    1    2  501    0  0.32130940930E+02  0.52698445054E+02  0.68459517494E+03  0.70891993229E+03  0.17345718020E+03 0.  0.
         24    2    5    5    0    0  0.60131809337E+02 -0.17271090885E+02  0.28750936305E+03  0.30471822943E+03  0.79230299929E+02 0.  0.
          5    1    5    5  501    0 -0.28000868408E+02  0.69969535939E+02  0.39708581189E+03  0.40420170286E+03  0.47000000000E+01 0. -1.
        -13    1    6    6    0    0 -0.14672511962E+02 -0.21327874458E+02  0.66751066919E+02  0.71595151868E+02  0.00000000000E+00 0.  1.
         14    1    6    6    0    0  0.74804321300E+02  0.40567835734E+01  0.22075829614E+03  0.23312307756E+03  0.00000000000E+00 0. -1.
         -5    1    3    3    0  503 -0.63338541585E+02  0.11186625671E+02  0.82685861326E+02  0.10486159024E+03  0.47000000000E+01 0.  1.
         11    1    4    4    0    0  0.80273452818E+00 -0.49088044783E+02  0.69594458108E+02  0.85168474935E+02  0.00000000000E+00 0. -1.
        -12    1    4    4    0    0  0.30404866127E+02 -0.14797025942E+02  0.24748828977E+03  0.24978763266E+03  0.00000000000E+00 0.  1.
<mgrwt>
<rscale>  2 0.18392566E+03</rscale>
<asrwt>0</asrwt>
<pdfrwt beam="1">  1       21 0.17177700E+00 0.18411115E+03</pdfrwt>
<pdfrwt beam="2">  1       21 0.49518352E-02 0.18411115E+03</pdfrwt>
<totfact> 0.56979952E+04</totfact>
</mgrwt>
</event>
<event>
12    1  0.1013215E-001  0.2131934E+03  0.7546771E-02  0.1139782E+00
         21   -1    0    0  501  502  0.00000000000E+00  0.00000000000E+00  0.12803793446E+03  0.12803793446E+03  0.00000000000E+00 0. -1.
         21   -1    0    0  502  503 -0.00000000000E+00 -0.00000000000E+00 -0.38088569388E+03  0.38088569388E+03  0.00000000000E+00 0. -1.
         -6    2    1    2    0  503 -0.11488387060E+03  0.42780022791E+02 -0.51670232111E+02  0.21579598976E+03  0.16991074785E+03 0.  0.
        -24    2    3    3    0    0 -0.13649277234E+03  0.65078466630E+02 -0.23883677998E+02  0.17386333158E+03  0.82416893132E+02 0.  0.
          6    2    1    2  501    0  0.11488387060E+03 -0.42780022791E+02 -0.20117752731E+03  0.29312763857E+03  0.17442184762E+03 0.  0.
         24    2    5    5    0    0  0.83976960286E+02  0.29543480307E+02 -0.17021179376E+03  0.20847013530E+03  0.81011082520E+02 0.  0.
          5    1    5    5  501    0  0.30906910313E+02 -0.72323503098E+02 -0.30965733550E+02  0.84657503269E+02  0.47000000000E+01 0. -1.
        -11    1    6    6    0    0  0.63457362048E+01  0.34960388525E+02 -0.89773321214E+02  0.96549191273E+02  0.00000000000E+00 0.  1.
         12    1    6    6    0    0  0.77631224082E+02 -0.54169082186E+01 -0.80438472546E+02  0.11192094403E+03  0.00000000000E+00 0. -1.
         -5    1    3    3    0  503  0.21608901744E+02 -0.22298443839E+02 -0.27786554113E+02  0.41932658176E+02  0.47000000000E+01 0.  1.
         11    1    4    4    0    0 -0.68689059615E+02  0.64526116458E+02  0.15409714869E+02  0.95494847653E+02  0.00000000000E+00 0. -1.
        -12    1    4    4    0    0 -0.67803712728E+02  0.55235017191E+00 -0.39293392867E+02  0.78368483930E+02  0.00000000000E+00 0.  1.
<mgrwt>
<rscale>  2 0.21226871E+03</rscale>
<asrwt>0</asrwt>
<pdfrwt beam="1">  1       21 0.19698144E-01 0.21319337E+03</pdfrwt>
<pdfrwt beam="2">  1       21 0.58597798E-01 0.21319337E+03</pdfrwt>
<totfact> 0.64133120E+04</totfact>
</mgrwt>
</event>
<event>
12    1  0.1013215E-001  0.2178216E+03  0.7546771E-02  0.1135817E+00
         21   -1    0    0  503  502  0.00000000000E+00  0.00000000000E+00  0.21637035237E+04  0.21637035237E+04  0.00000000000E+00 0. -1.
         21   -1    0    0  501  503 -0.00000000000E+00 -0.00000000000E+00 -0.13116725857E+03  0.13116725857E+03  0.00000000000E+00 0. -1.
          6    2    1    2  501    0 -0.34927997213E+02 -0.12801062604E+03 -0.32245467825E+02  0.21863142848E+03  0.17074321643E+03 0.  0.
         24    2    3    3    0    0  0.37868779459E+02 -0.10343099636E+03 -0.31758095620E+02  0.14165184405E+03  0.83214498841E+02 0.  0.
         -6    2    1    2    0  502  0.34927997213E+02  0.12801062604E+03  0.20647817329E+04  0.20762393538E+04  0.17274132141E+03 0.  0.
        -24    2    5    5    0    0  0.18043172676E+01  0.32837067961E+02  0.15034798128E+04  0.15059437113E+04  0.79582569504E+02 0.  0.
          5    1    3    3  501    0 -0.72796776672E+02 -0.24579629677E+02 -0.48737220497E+00  0.76979584440E+02  0.47000000000E+01 0. -1.
        -11    1    4    4    0    0  0.44668891037E+02 -0.53118878626E+02  0.16789985801E+02  0.71406083187E+02  0.00000000000E+00 0.  1.
         12    1    4    4    0    0 -0.68001115780E+01 -0.50312117738E+02 -0.48548081421E+02  0.70245760858E+02  0.00000000000E+00 0. -1.
         -5    1    5    5    0  502  0.33123679945E+02  0.95173558080E+02  0.56130192012E+03  0.57029564251E+03  0.47000000000E+01 0.  1.
         11    1    6    6    0    0  0.39409085343E+02  0.67882854711E+01  0.63168220017E+03  0.63294672670E+03  0.00000000000E+00 0. -1.
        -12    1    6    6    0    0 -0.37604768076E+02  0.26048782490E+02  0.87179761263E+03  0.87299698456E+03  0.00000000000E+00 0.  1.
<mgrwt>
<rscale>  2 0.21742523E+03</rscale>
<asrwt>0</asrwt>
<pdfrwt beam="1">  1       21 0.33287744E+00 0.21782160E+03</pdfrwt>
<pdfrwt beam="2">  1       21 0.20179580E-01 0.21782160E+03</pdfrwt>
<totfact> 0.48249111E+02</totfact>
</mgrwt>
</event>
<event>
12    1  0.1013215E-001  0.1944762E+03  0.7546771E-02  0.1154662E+00
         21   -1    0    0  501  502  0.00000000000E+00  0.00000000000E+00  0.32641748611E+03  0.32641748611E+03  0.00000000000E+00 0.  1.
         21   -1    0    0  502  503 -0.00000000000E+00 -0.00000000000E+00 -0.11722352964E+03  0.11722352964E+03  0.00000000000E+00 0.  1.
         -6    2    1    2    0  503  0.68575100674E+02 -0.61298679023E+02  0.76606284051E+02  0.20826793166E+03  0.17043161714E+03 0.  0.
        -24    2    3    3    0    0 -0.23652132855E+02 -0.12252008108E+02  0.15610557439E+02  0.87214194844E+02  0.81566483236E+02 0.  0.
          6    2    1    2  501    0 -0.68575100674E+02  0.61298679023E+02  0.13258767242E+03  0.23537308410E+03  0.17135030013E+03 0.  0.
         24    2    5    5    0    0 -0.67854358042E+02  0.80593370618E+02  0.15807338535E+03  0.20305565603E+03  0.71727951283E+02 0.  0.
          5    1    5    5  501    0 -0.72074263233E+00 -0.19294691596E+02 -0.25485712926E+02  0.32317428070E+02  0.47000000000E+01 0. -1.
        -11    1    6    6    0    0 -0.54720786004E+01  0.59838110272E+02  0.91700171527E+02  0.10963331858E+03  0.00000000000E+00 0.  1.
         12    1    6    6    0    0 -0.62382279441E+02  0.20755260346E+02  0.66373213823E+02  0.93422337444E+02  0.00000000000E+00 0. -1.
         -5    1    3    3    0  503  0.92227233529E+02 -0.49046670915E+02  0.60995726612E+02  0.12105373682E+03  0.47000000000E+01 0.  1.
         13    1    4    4    0    0 -0.16828008522E+01 -0.11385498568E+02 -0.32413660898E+02  0.34396319704E+02  0.00000000000E+00 0. -1.
        -14    1    4    4    0    0 -0.21969332003E+02 -0.86650953946E+00  0.48024218337E+02  0.52817875140E+02  0.00000000000E+00 0.  1.
<mgrwt>
<rscale>  2 0.19427366E+03</rscale>
<asrwt>0</asrwt>
<pdfrwt beam="1">  1       21 0.50218075E-01 0.19447621E+03</pdfrwt>
<pdfrwt beam="2">  1       21 0.18034389E-01 0.19447621E+03</pdfrwt>
<totfact> 0.10556935E+05</totfact>
</mgrwt>
</event>
<event>
12    1  0.1013215E-001  0.1749572E+03  0.7546771E-02  0.1172961E+00
         21   -1    0    0  501  502  0.00000000000E+00  0.00000000000E+00  0.87776179225E+03  0.87776179225E+03  0.00000000000E+00 0.  1.
         21   -1    0    0  502  503 -0.00000000000E+00 -0.00000000000E+00 -0.41428610827E+02  0.41428610827E+02  0.00000000000E+00 0.  1.
         -6    2    1    2    0  503 -0.23019428348E+01 -0.19432143793E+02  0.23255944696E+03  0.29057865089E+03  0.17311599819E+03 0.  0.
        -24    2    3    3    0    0  0.17236960604E+02 -0.76536598413E+02  0.13349449747E+03  0.17448109836E+03  0.80423312069E+02 0.  0.
          6    2    1    2  501    0  0.23019428348E+01  0.19432143793E+02  0.60377373447E+03  0.62861175219E+03  0.17385944152E+03 0.  0.
         24    2    5    5    0    0 -0.46811039578E+02  0.12798521089E+02  0.53835744078E+03  0.54640791122E+03  0.79861103327E+02 0.  0.
          5    1    5    5  501    0  0.49112982413E+02  0.66336227036E+01  0.65416293687E+02  0.82203840977E+02  0.47000000000E+01 0. -1.
        -11    1    6    6    0    0 -0.46683672744E+02 -0.15239938581E+02  0.16907175767E+03  0.17605930896E+03  0.00000000000E+00 0.  1.
         12    1    6    6    0    0 -0.12736683402E+00  0.28038459670E+02  0.36928568311E+03  0.37034860225E+03  0.00000000000E+00 0. -1.
         -5    1    3    3    0  503 -0.19538903439E+02  0.57104454620E+02  0.99064949490E+02  0.11609755253E+03  0.47000000000E+01 0.  1.
         13    1    4    4    0    0  0.33841113397E+02 -0.10329340138E+02  0.80939084192E+02  0.88334883107E+02  0.00000000000E+00 0. -1.
        -14    1    4    4    0    0 -0.16604152793E+02 -0.66207258275E+02  0.52555413273E+02  0.86146215254E+02  0.00000000000E+00 0.  1.
<mgrwt>
<rscale>  2 0.17477219E+03</rscale>
<asrwt>0</asrwt>
<pdfrwt beam="1">  1       21 0.13504026E+00 0.17495717E+03</pdfrwt>
<pdfrwt beam="2">  1       21 0.63736331E-02 0.17495717E+03</pdfrwt>
<totfact> 0.70405272E+04</totfact>
</mgrwt>
</event>
<event>
12    1  0.1013215E-001  0.2021595E+03  0.7546771E-02  0.1148014E+00
         21   -1    0    0  501  502  0.00000000000E+00  0.00000000000E+00  0.81945251702E+03  0.81945251702E+03  0.00000000000E+00 0. -1.
         21   -1    0    0  502  503 -0.00000000000E+00 -0.00000000000E+00 -0.88854391971E+02  0.88854391971E+02  0.00000000000E+00 0. -1.
         -6    2    1    2    0  503 -0.10162874558E+03 -0.28377068214E+02  0.64308962991E+02  0.21214171495E+03  0.17243782814E+03 0.  0.
        -24    2    3    3    0    0 -0.88763495782E+02 -0.46403452584E+02 -0.14316099749E+02  0.13032206159E+03  0.82137996259E+02 0.  0.
          6    2    1    2  501    0  0.10162874558E+03  0.28377068214E+02  0.66628916205E+03  0.69616519403E+03  0.17196240864E+03 0.  0.
         24    2    5    5    0    0  0.81995622516E+02 -0.31762078639E+02  0.27952211465E+03  0.30423023073E+03  0.81800421503E+02 0.  0.
          5    1    5    5  501    0  0.19633123061E+02  0.60139146853E+02  0.38676704740E+03  0.39193496330E+03  0.47000000000E+01 0. -1.
        -13    1    6    6    0    0  0.56861937893E+02  0.21261129442E+02  0.12556738885E+03  0.13947216478E+03  0.00000000000E+00 0.  1.
         14    1    6    6    0    0  0.25133684624E+02 -0.53023208081E+02  0.15395472580E+03  0.16475806595E+03  0.00000000000E+00 0. -1.
         -5    1    3    3    0  503 -0.12865249795E+02  0.18026384370E+02  0.78625062740E+02  0.81819653364E+02  0.47000000000E+01 0.  1.
         13    1    4    4    0    0 -0.14998248907E+02 -0.44370104375E+02 -0.28992147936E+02  0.55083557206E+02  0.00000000000E+00 0. -1.
        -14    1    4    4    0    0 -0.73765246875E+02 -0.20333482098E+01  0.14676048187E+02  0.75238504383E+02  0.00000000000E+00 0.  1.
<mgrwt>
<rscale>  2 0.20205808E+03</rscale>
<asrwt>0</asrwt>
<pdfrwt beam="1">  1       21 0.12606961E+00 0.20215950E+03</pdfrwt>
<pdfrwt beam="2">  1       21 0.13669907E-01 0.20215950E+03</pdfrwt>
<totfact> 0.21547777E+04</totfact>
</mgrwt>
</event>
<event>
12    1  0.1013215E-001  0.2206075E+03  0.7546771E-02  0.1133631E+00
         21   -1    0    0  501  502  0.00000000000E+00  0.00000000000E+00  0.55983494116E+03  0.55983494116E+03  0.00000000000E+00 0. -1.
         21   -1    0    0  502  503 -0.00000000000E+00 -0.00000000000E+00 -0.88039588776E+02  0.88039588776E+02  0.00000000000E+00 0.  1.
         -6    2    1    2    0  503  0.62584393108E+02 -0.12051505142E+03  0.19376216856E+03  0.29361782890E+03  0.17385904522E+03 0.  0.
        -24    2    3    3    0    0  0.36697795636E+02 -0.10217478610E+02  0.13730509102E+01  0.70298924450E+02  0.59067151924E+02 0.  0.
          6    2    1    2  501    0 -0.62584393108E+02  0.12051505142E+03  0.27803318382E+03  0.35425670103E+03  0.17249543483E+03 0.  0.
         24    2    5    5    0    0  0.20204076932E+02  0.27784326880E+02  0.16038037098E+03  0.18303406112E+03  0.81236879499E+02 0.  0.
          5    1    5    5  501    0 -0.82788470040E+02  0.92730724544E+02  0.11765281285E+03  0.17122263991E+03  0.47000000000E+01 0. -1.
        -13    1    6    6    0    0  0.14470559320E+02  0.40209436509E+02  0.30662572916E+02  0.52596475635E+02  0.00000000000E+00 0.  1.
         14    1    6    6    0    0  0.57335176116E+01 -0.12425109629E+02  0.12971779806E+03  0.13043758549E+03  0.00000000000E+00 0. -1.
         -5    1    3    3    0  503  0.25886597472E+02 -0.11029757281E+03  0.19238911765E+03  0.22331890445E+03  0.47000000000E+01 0.  1.
         13    1    4    4    0    0  0.24251080834E+02 -0.10650759248E+02  0.29434878659E+02  0.39597546336E+02  0.00000000000E+00 0. -1.
        -14    1    4    4    0    0  0.12446714802E+02  0.43328063752E+00 -0.28061827749E+02  0.30701378114E+02  0.00000000000E+00 0.  1.
<mgrwt>
<rscale>  2 0.22033871E+03</rscale>
<asrwt>0</asrwt>
<pdfrwt beam="1">  1       21 0.86128450E-01 0.22060746E+03</pdfrwt>
<pdfrwt beam="2">  1       21 0.13544552E-01 0.22060746E+03</pdfrwt>
<totfact> 0.54150003E+04</totfact>
</mgrwt>
</event>
<event>
12    1  0.1013215E-001  0.2053106E+03  0.7546771E-02  0.1145467E+00
         21   -1    0    0  503  502  0.00000000000E+00  0.00000000000E+00  0.16981815152E+03  0.16981815152E+03  0.00000000000E+00 0. -1.
         21   -1    0    0  501  503 -0.00000000000E+00 -0.00000000000E+00 -0.25020324376E+03  0.25020324376E+03  0.00000000000E+00 0.  1.
          6    2    1    2  501    0  0.11961672509E+02 -0.10941179355E+03 -0.62351672343E+02  0.21456975485E+03  0.17331597294E+03 0.  0.
         24    2    3    3    0    0  0.41747852901E+02 -0.26630558055E+01 -0.22414390254E+02  0.96673249162E+02  0.84221951562E+02 0.  0.
         -6    2    1    2    0  502 -0.11961672509E+02  0.10941179355E+03 -0.18033419899E+02  0.20545164042E+03  0.17254318341E+03 0.  0.
        -24    2    5    5    0    0  0.56600196513E+02  0.44813481439E+02 -0.24589157813E+02  0.11090673304E+03  0.80522334714E+02 0.  0.
          5    1    3    3  501    0 -0.29786180393E+02 -0.10674873775E+03 -0.39937282090E+02  0.11789650569E+03  0.47000000000E+01 0. -1.
        -11    1    4    4    0    0 -0.19302731542E+02  0.16797890013E+02 -0.20126345794E+02  0.32555097126E+02  0.00000000000E+00 0.  1.
         12    1    4    4    0    0  0.61050584443E+02 -0.19460945819E+02 -0.22880444598E+01  0.64118152036E+02  0.00000000000E+00 0. -1.
         -5    1    5    5    0  502 -0.68561869022E+02  0.64598312115E+02  0.65557379141E+01  0.94544907380E+02  0.47000000000E+01 0.  1.
         11    1    6    6    0    0  0.49691296152E+02 -0.10799363825E+02 -0.32978933025E+01  0.50958093298E+02  0.00000000000E+00 0. -1.
        -12    1    6    6    0    0  0.69089003612E+01  0.55612845264E+02 -0.21291264510E+02  0.59948639743E+02  0.00000000000E+00 0.  1.
<mgrwt>
<rscale>  2 0.20514744E+03</rscale>
<asrwt>0</asrwt>
<pdfrwt beam="1">  1       21 0.26125870E-01 0.20531062E+03</pdfrwt>
<pdfrwt beam="2">  1       21 0.38492807E-01 0.20531062E+03</pdfrwt>
<totfact> 0.90133515E+04</totfact>
</mgrwt>
</event>
<event>
12    1  0.1013215E-001  0.1909103E+03  0.7546771E-02  0.1158001E+00
         21   -1    0    0  501  502  0.00000000000E+00  0.00000000000E+00  0.10151572339E+03  0.10151572339E+03  0.00000000000E+00 0. -1.
         21   -1    0    0  502  503 -0.00000000000E+00 -0.00000000000E+00 -0.35757246569E+03  0.35757246569E+03  0.00000000000E+00 0. -1.
         -6    2    1    2    0  503  0.10288017411E+02 -0.81511563492E+02 -0.14251977328E+03  0.23696796384E+03  0.17056362985E+03 0.  0.
        -24    2    3    3    0    0  0.42879870969E+02 -0.86713471808E+02 -0.47039678207E+02  0.13583524252E+03  0.82949214923E+02 0.  0.
          6    2    1    2  501    0 -0.10288017411E+02  0.81511563492E+02 -0.11353696903E+03  0.22212022524E+03  0.17232751620E+03 0.  0.
         24    2    5    5    0    0 -0.31201174396E+00  0.10135542410E+03 -0.24629576082E+02  0.13036013580E+03  0.78192900204E+02 0.  0.
          5    1    5    5  501    0 -0.99760056668E+01 -0.19843860610E+02 -0.88907392945E+02  0.91760089435E+02  0.47000000000E+01 0. -1.
        -13    1    6    6    0    0 -0.35932707764E+02  0.68961033536E+02 -0.36692003986E+01  0.77847586123E+02  0.00000000000E+00 0.  1.
         14    1    6    6    0    0  0.35620696020E+02  0.32394390566E+02 -0.20960375684E+02  0.52512549680E+02  0.00000000000E+00 0. -1.
         -5    1    3    3    0  503 -0.32591853558E+02  0.52019083167E+01 -0.95480095070E+02  0.10113272133E+03  0.47000000000E+01 0.  1.
         13    1    4    4    0    0  0.41790155159E+02 -0.11115755136E+01 -0.14408625896E+02  0.44218335208E+02  0.00000000000E+00 0. -1.
        -14    1    4    4    0    0  0.10897158095E+01 -0.85601896295E+02 -0.32631052311E+02  0.91616907308E+02  0.00000000000E+00 0.  1.
<mgrwt>
<rscale>  2 0.19051141E+03</rscale>
<asrwt>0</asrwt>
<pdfrwt beam="1">  1       21 0.15617804E-01 0.19091032E+03</pdfrwt>
<pdfrwt beam="2">  1       21 0.55011148E-01 0.19091032E+03</pdfrwt>
<totfact> 0.11370378E+05</totfact>
</mgrwt>
</event>
<event>
12    1  0.1013215E-001  0.5557107E+03  0.7546771E-02  0.1000218E+00
         21   -1    0    0  503  502  0.00000000000E+00  0.00000000000E+00  0.10147144809E+04  0.10147144809E+04  0.00000000000E+00 0.  1.
         21   -1    0    0  501  503 -0.00000000000E+00 -0.00000000000E+00 -0.43733937613E+03  0.43733937613E+03  0.00000000000E+00 0. -1.
          6    2    1    2  501    0  0.51232571757E+03  0.12645738481E+03 -0.11234656520E+03  0.56631668455E+03  0.17211544214E+03 0.  0.
         24    2    3    3    0    0  0.39748052952E+03  0.15445533805E+03 -0.87795174090E+02  0.44549382491E+03  0.94390320715E+02 0.  0.
         -6    2    1    2    0  502 -0.51232571757E+03 -0.12645738481E+03  0.68972166999E+03  0.88573717250E+03  0.17419886809E+03 0.  0.
        -24    2    5    5    0    0 -0.46262969337E+03 -0.67956198396E+02  0.62790864245E+03  0.78707094724E+03  0.81037859322E+02 0.  0.
          5    1    3    3  501    0  0.11484518805E+03 -0.27997953236E+02 -0.24551391113E+02  0.12082285963E+03  0.47000000000E+01 0. -1.
        -11    1    4    4    0    0  0.10548409046E+03  0.87394007288E+02 -0.21711343085E+02  0.13869386529E+03  0.00000000000E+00 0.  1.
         12    1    4    4    0    0  0.29199643906E+03  0.67061330760E+02 -0.66083831005E+02  0.30679995962E+03  0.00000000000E+00 0. -1.
         -5    1    5    5    0  502 -0.49696024207E+02 -0.58501186416E+02  0.61813027536E+02  0.98666225261E+02  0.47000000000E+01 0.  1.
         13    1    6    6    0    0 -0.18758019051E+03 -0.18122831737E+01  0.30192094338E+03  0.35545163988E+03  0.00000000000E+00 0. -1.
        -14    1    6    6    0    0 -0.27504950285E+03 -0.66143915222E+02  0.32598769907E+03  0.43161930736E+03  0.00000000000E+00 0.  1.
<mgrwt>
<rscale>  2 0.55554821E+03</rscale>
<asrwt>0</asrwt>
<pdfrwt beam="1">  1       21 0.15610992E+00 0.55571068E+03</pdfrwt>
<pdfrwt beam="2">  1       21 0.67282981E-01 0.55571068E+03</pdfrwt>
<totfact> 0.43161637E+02</totfact>
</mgrwt>
</event>
<event>
12    1  0.1013215E-001  0.1723215E+03  0.7546771E-02  0.1176632E+00
         21   -1    0    0  501  502  0.00000000000E+00  0.00000000000E+00  0.23845050391E+04  0.23845050391E+04  0.00000000000E+00 0.  1.
         21   -1    0    0  502  503 -0.00000000000E+00 -0.00000000000E+00 -0.18019750880E+02  0.18019750880E+02  0.00000000000E+00 0.  1.
         -6    2    1    2    0  503 -0.21769916545E+01  0.10227466030E+02  0.48562401537E+03  0.51378610199E+03  0.16743994127E+03 0.  0.
        -24    2    3    3    0    0 -0.24111449186E+02 -0.53440432105E+02  0.25853644529E+03  0.27687773116E+03  0.79893320779E+02 0.  0.
          6    2    1    2  501    0  0.21769916545E+01 -0.10227466030E+02  0.18808612728E+04  0.18887386880E+04  0.17200396354E+03 0.  0.
         24    2    5    5    0    0  0.35155887508E+02 -0.43344490160E+02  0.16664244331E+04  0.16692174063E+04  0.78750727856E+02 0.  0.
          5    1    5    5  501    0 -0.32978895854E+02  0.33117024131E+02  0.21443683979E+03  0.21952128170E+03  0.47000000000E+01 0. -1.
        -13    1    6    6    0    0  0.19583875485E+02 -0.66020628662E+02  0.12315747321E+04  0.12334985093E+04  0.00000000000E+00 0.  1.
         14    1    6    6    0    0  0.15572012023E+02  0.22676138501E+02  0.43484970090E+03  0.43571889699E+03  0.00000000000E+00 0. -1.
         -5    1    3    3    0  503  0.21934457531E+02  0.63667898135E+02  0.22708757009E+03  0.23690837083E+03  0.47000000000E+01 0.  1.
         11    1    4    4    0    0 -0.38912099143E+02 -0.31226972457E+02  0.23806998931E+03  0.24324184483E+03  0.00000000000E+00 0. -1.
        -12    1    4    4    0    0  0.14800649957E+02 -0.22213459648E+02  0.20466455980E+02  0.33635886328E+02  0.00000000000E+00 0.  1.
<mgrwt>
<rscale>  2 0.17117120E+03</rscale>
<asrwt>0</asrwt>
<pdfrwt beam="1">  1       21 0.36684668E+00 0.17232151E+03</pdfrwt>
<pdfrwt beam="2">  1       21 0.27722713E-02 0.17232151E+03</pdfrwt>
<totfact> 0.10275824E+04</totfact>
</mgrwt>
</event>
<event>
12    1  0.1013215E-001  0.2498593E+03  0.7546771E-02  0.1113556E+00
         21   -1    0    0  501  502  0.00000000000E+00  0.00000000000E+00  0.24485629507E+03  0.24485629507E+03  0.00000000000E+00 0.  1.
         21   -1    0    0  502  503 -0.00000000000E+00 -0.00000000000E+00 -0.28889889735E+03  0.28889889735E+03  0.00000000000E+00 0. -1.
         -6    2    1    2    0  503  0.17760356621E+03 -0.35538190360E+02 -0.11484330294E+03  0.27405840691E+03  0.17062542736E+03 0.  0.
        -24    2    3    3    0    0  0.78526521167E+02 -0.22153384816E+02 -0.12905083355E+03  0.17296756756E+03  0.81280223927E+02 0.  0.
          6    2    1    2  501    0 -0.17760356621E+03  0.35538190360E+02  0.70800700663E+02  0.25969678552E+03  0.17211534356E+03 0.  0.
         24    2    5    5    0    0 -0.16418720834E+03  0.56352913863E+01  0.10567331358E+03  0.21160966503E+03  0.81379390761E+02 0.  0.
          5    1    5    5  501    0 -0.13416357874E+02  0.29902898974E+02 -0.34872612914E+02  0.48087120491E+02  0.47000000000E+01 0. -1.
        -11    1    6    6    0    0 -0.66811229005E+02 -0.26245671094E+02  0.11991650803E+02  0.72776199827E+02  0.00000000000E+00 0.  1.
         12    1    6    6    0    0 -0.97375979331E+02  0.31880962480E+02  0.93681662775E+02  0.13883346520E+03  0.00000000000E+00 0. -1.
         -5    1    3    3    0  503  0.99077045043E+02 -0.13384805544E+02  0.14207530609E+02  0.10109083935E+03  0.47000000000E+01 0.  1.
         11    1    4    4    0    0  0.71166631085E+02 -0.19685075150E+02 -0.40771403364E+02  0.84347488972E+02  0.00000000000E+00 0. -1.
        -12    1    4    4    0    0  0.73598900820E+01 -0.24683096657E+01 -0.88279430186E+02  0.88620078586E+02  0.00000000000E+00 0.  1.
<mgrwt>
<rscale>  2 0.24960293E+03</rscale>
<asrwt>0</asrwt>
<pdfrwt beam="1">  1       21 0.37670200E-01 0.24985932E+03</pdfrwt>
<pdfrwt beam="2">  1       21 0.44445984E-01 0.24985932E+03</pdfrwt>
<totfact> 0.32116804E+04</totfact>
</mgrwt>
</event>
<event>
12    1  0.1013215E-001  0.2269587E+03  0.7546771E-02  0.1129851E+00
         21   -1    0    0  503  502  0.00000000000E+00  0.00000000000E+00  0.10135188325E+03  0.10135188325E+03  0.00000000000E+00 0.  1.
         21   -1    0    0  501  503 -0.00000000000E+00 -0.00000000000E+00 -0.86216247002E+03  0.86216247002E+03  0.00000000000E+00 0.  1.
          6    2    1    2  501    0 -0.13125629161E+03  0.43381823124E+02 -0.69746319438E+03  0.73346109129E+03  0.18000018962E+03 0.  0.
         24    2    3    3    0    0 -0.86096304532E+02  0.91583820827E+02 -0.57661488625E+03  0.59565956520E+03  0.80780076009E+02 0.  0.
         -6    2    1    2    0  502  0.13125629161E+03 -0.43381823124E+02 -0.63347392387E+02  0.23005326198E+03  0.17263086213E+03 0.  0.
        -24    2    5    5    0    0  0.16298734469E+03 -0.35650322816E+02 -0.66298566664E+02  0.19692570161E+03  0.80922258797E+02 0.  0.
          5    1    3    3  501    0 -0.45159987077E+02 -0.48201997703E+02 -0.12084830813E+03  0.13780152609E+03  0.47000000000E+01 0. -1.
        -11    1    4    4    0    0 -0.41409958006E+02  0.35665348462E+02 -0.10238690776E+03  0.11605981468E+03  0.00000000000E+00 0.  1.
         12    1    4    4    0    0 -0.44686346526E+02  0.55918472365E+02 -0.47422797849E+03  0.47959975052E+03  0.00000000000E+00 0. -1.
         -5    1    5    5    0  502 -0.31731053075E+02 -0.77315003075E+01  0.29511742771E+01  0.33127560367E+02  0.47000000000E+01 0.  1.
         13    1    6    6    0    0 -0.20407807842E+00  0.14557899114E+02 -0.72360253120E+01  0.16258355906E+02  0.00000000000E+00 0. -1.
        -14    1    6    6    0    0  0.16319142276E+03 -0.50208221930E+02 -0.59062541352E+02  0.18066734570E+03  0.00000000000E+00 0.  1.
<mgrwt>
<rscale>  2 0.22549487E+03</rscale>
<asrwt>0</asrwt>
<pdfrwt beam="1">  1       21 0.15592597E-01 0.22695873E+03</pdfrwt>
<pdfrwt beam="2">  1       21 0.13264038E+00 0.22695873E+03</pdfrwt>
<totfact> 0.14681645E+04</totfact>
</mgrwt>
</event>
<event>
12    1  0.1013215E-001  0.2224970E+03  0.7546771E-02  0.1132390E+00
         21   -1    0    0  501  502  0.00000000000E+00  0.00000000000E+00  0.21551237203E+03  0.21551237203E+03  0.00000000000E+00 0. -1.
         21   -1    0    0  502  503 -0.00000000000E+00 -0.00000000000E+00 -0.28113599068E+03  0.28113599068E+03  0.00000000000E+00 0. -1.
         -6    2    1    2    0  503 -0.87254403797E+02  0.11012431208E+03 -0.14093024444E+03  0.26175260430E+03  0.17003645776E+03 0.  0.
        -24    2    3    3    0    0  0.24080329124E+01  0.10234860657E+03 -0.91692993434E+02  0.15905785741E+03  0.80067228436E+02 0.  0.
          6    2    1    2  501    0  0.87254403797E+02 -0.11012431208E+03  0.75306625782E+02  0.23489575841E+03  0.17252314146E+03 0.  0.
         24    2    5    5    0    0  0.20389938294E+02 -0.35868510669E+01  0.71285629018E+02  0.10896186400E+03  0.79764853275E+02 0.  0.
          5    1    5    5  501    0  0.66864465503E+02 -0.10653746101E+03  0.40209967641E+01  0.12593389441E+03  0.47000000000E+01 0. -1.
        -13    1    6    6    0    0 -0.46500204220E+01  0.34791295779E+02  0.20887401630E+02  0.40845324075E+02  0.00000000000E+00 0.  1.
         14    1    6    6    0    0  0.25039958716E+02 -0.38378146846E+02  0.50398227387E+02  0.68116539927E+02  0.00000000000E+00 0. -1.
         -5    1    3    3    0  503 -0.89662436710E+02  0.77757055089E+01 -0.49237251001E+02  0.10269474689E+03  0.47000000000E+01 0.  1.
         13    1    4    4    0    0 -0.23493004308E+02  0.40120402531E+02 -0.15723754311E+01  0.46519246718E+02  0.00000000000E+00 0. -1.
        -14    1    4    4    0    0  0.25901037221E+02  0.62228204035E+02 -0.90120618003E+02  0.11253861069E+03  0.00000000000E+00 0.  1.
<mgrwt>
<rscale>  2 0.22201482E+03</rscale>
<asrwt>0</asrwt>
<pdfrwt beam="1">  1       21 0.33155750E-01 0.22249703E+03</pdfrwt>
<pdfrwt beam="2">  1       21 0.43251691E-01 0.22249703E+03</pdfrwt>
<totfact> 0.44367429E+04</totfact>
</mgrwt>
</event>
<event>
12    1  0.1013215E-001  0.2122327E+03  0.7546771E-02  0.1139883E+00
         21   -1    0    0  503  502  0.00000000000E+00  0.00000000000E+00  0.47484914424E+03  0.47484914424E+03  0.00000000000E+00 0. -1.
         21   -1    0    0  501  503 -0.00000000000E+00 -0.00000000000E+00 -0.17325785175E+03  0.17325785175E+03  0.00000000000E+00 0.  1.
          6    2    1    2  501    0  0.12274480050E+03 -0.48313122048E+01 -0.67496003619E+02  0.22235102424E+03  0.17261123905E+03 0.  0.
         24    2    3    3    0    0  0.86980239040E+02  0.39965241374E+02 -0.97286955710E+02  0.15757891685E+03  0.78762813441E+02 0.  0.
         -6    2    1    2    0  502 -0.12274480050E+03  0.48313122048E+01  0.36908729610E+03  0.42575597176E+03  0.17306960366E+03 0.  0.
        -24    2    5    5    0    0 -0.13921810817E+02  0.40256738020E+02  0.11370388775E+03  0.14586281510E+03  0.80826758983E+02 0.  0.
          5    1    3    3  501    0  0.35764561463E+02 -0.44796553579E+02  0.29790952092E+02  0.64772107390E+02  0.47000000000E+01 0. -1.
        -11    1    4    4    0    0  0.60323668898E+02  0.56682077439E+02 -0.39357693574E+02  0.91656047130E+02  0.00000000000E+00 0.  1.
         12    1    4    4    0    0  0.26656570142E+02 -0.16716836065E+02 -0.57929262137E+02  0.65922869715E+02  0.00000000000E+00 0. -1.
         -5    1    5    5    0  502 -0.10882298969E+03 -0.35425425815E+02  0.25538340835E+03  0.27989315665E+03  0.47000000000E+01 0.  1.
         11    1    6    6    0    0  0.15706293309E+02  0.19966868420E+02  0.10617569221E+03  0.10917252905E+03  0.00000000000E+00 0. -1.
        -12    1    6    6    0    0 -0.29628104126E+02  0.20289869601E+02  0.75281955470E+01  0.36690286054E+02  0.00000000000E+00 0.  1.
<mgrwt>
<rscale>  2 0.21213923E+03</rscale>
<asrwt>0</asrwt>
<pdfrwt beam="1">  1       21 0.73053714E-01 0.21223269E+03</pdfrwt>
<pdfrwt beam="2">  1       21 0.26655054E-01 0.21223269E+03</pdfrwt>
<totfact> 0.22327283E+04</totfact>
</mgrwt>
</event>
<event>
12    1  0.1013215E-001  0.1929498E+03  0.7546771E-02  0.1156717E+00
         21   -1    0    0  501  502  0.00000000000E+00  0.00000000000E+00  0.45616476000E+03  0.45616476000E+03  0.00000000000E+00 0. -1.
         21   -1    0    0  502  503 -0.00000000000E+00 -0.00000000000E+00 -0.95942190430E+02  0.95942190430E+02  0.00000000000E+00 0. -1.
         -6    2    1    2    0  503  0.14002005049E+02 -0.82799785637E+02  0.68937609100E+02  0.20489513071E+03  0.17371747175E+03 0.  0.
        -24    2    3    3    0    0  0.20616414947E+02 -0.85284837818E+02  0.11055969541E+03  0.16241673653E+03  0.80356766549E+02 0.  0.
          6    2    1    2  501    0 -0.14002005049E+02  0.82799785637E+02  0.29128496047E+03  0.34721181973E+03  0.16928455014E+03 0.  0.
         24    2    5    5    0    0 -0.56593320202E+02  0.66790173168E+02  0.11831560167E+03  0.16829614993E+03  0.81616673277E+02 0.  0.
          5    1    5    5  501    0  0.42591315154E+02  0.16009612469E+02  0.17296935880E+03  0.17891566980E+03  0.47000000000E+01 0. -1.
        -11    1    6    6    0    0 -0.12799832323E+02 -0.19002225792E+02  0.17235440959E+02  0.28670206096E+02  0.00000000000E+00 0.  1.
         12    1    6    6    0    0 -0.43793487879E+02  0.85792398960E+02  0.10108016072E+03  0.13962594383E+03  0.00000000000E+00 0. -1.
         -5    1    3    3    0  503 -0.66144098986E+01  0.24850521810E+01 -0.41622086309E+02  0.42478394172E+02  0.47000000000E+01 0.  1.
         11    1    4    4    0    0  0.10565712802E+02  0.14376625090E+02  0.98723517821E+01  0.20390805911E+02  0.00000000000E+00 0. -1.
        -12    1    4    4    0    0  0.10050702145E+02 -0.99661462908E+02  0.10068734363E+03  0.14202593062E+03  0.00000000000E+00 0.  1.
<mgrwt>
<rscale>  2 0.19194669E+03</rscale>
<asrwt>0</asrwt>
<pdfrwt beam="1">  1       21 0.70179193E-01 0.19294979E+03</pdfrwt>
<pdfrwt beam="2">  1       21 0.14760337E-01 0.19294979E+03</pdfrwt>
<totfact> 0.74423141E+04</totfact>
</mgrwt>
</event>
<event>
12    1  0.1013215E-001  0.2051993E+03  0.7546771E-02  0.1145567E+00
         21   -1    0    0  501  502  0.00000000000E+00  0.00000000000E+00  0.11252723277E+04  0.11252723277E+04  0.00000000000E+00 0.  1.
         21   -1    0    0  502  503 -0.00000000000E+00 -0.00000000000E+00 -0.51166501639E+02  0.51166501639E+02  0.00000000000E+00 0.  1.
         -6    2    1    2    0  503  0.10043627848E+02  0.11006377694E+03  0.23141529001E+03  0.30928914693E+03  0.17289254033E+03 0.  0.
        -24    2    3    3    0    0  0.40658667680E+02  0.47242117406E+02  0.21350239445E+03  0.23699251217E+03  0.81836626737E+02 0.  0.
          6    2    1    2  501    0 -0.10043627848E+02 -0.11006377694E+03  0.84269053608E+03  0.86714968244E+03  0.17206487935E+03 0.  0.
         24    2    5    5    0    0  0.56485316458E+02 -0.44760282942E+02  0.51402698951E+03  0.52548835363E+03  0.81976764735E+02 0.  0.
          5    1    5    5  501    0 -0.66528944306E+02 -0.65303493993E+02  0.32866354658E+03  0.34166132881E+03  0.47000000000E+01 0. -1.
        -13    1    6    6    0    0  0.57053771113E+02 -0.65999202197E+02  0.38839808467E+03  0.39807549493E+03  0.00000000000E+00 0.  1.
         14    1    6    6    0    0 -0.56845465563E+00  0.21238919255E+02  0.12562890484E+03  0.12741285870E+03  0.00000000000E+00 0. -1.
         -5    1    3    3    0  503 -0.30615039832E+02  0.62821659530E+02  0.17912895567E+02  0.72296634760E+02  0.47000000000E+01 0.  1.
         11    1    4    4    0    0  0.17805634964E+02 -0.52512015176E+01  0.15137119827E+03  0.15250526358E+03  0.00000000000E+00 0. -1.
        -12    1    4    4    0    0  0.22853032716E+02  0.52493318923E+02  0.62131196175E+02  0.84487248588E+02  0.00000000000E+00 0.  1.
<mgrwt>
<rscale>  2 0.20502483E+03</rscale>
<asrwt>0</asrwt>
<pdfrwt beam="1">  1       21 0.17311880E+00 0.20519927E+03</pdfrwt>
<pdfrwt beam="2">  1       21 0.78717703E-02 0.20519927E+03</pdfrwt>
<totfact> 0.24833957E+04</totfact>
</mgrwt>
</event>
<event>
12    1  0.1013215E-001  0.2897682E+03  0.7546771E-02  0.1090804E+00
         21   -1    0    0  503  502  0.00000000000E+00  0.00000000000E+00  0.57228525689E+02  0.57228525689E+02  0.00000000000E+00 0. -1.
         21   -1    0    0  501  503 -0.00000000000E+00 -0.00000000000E+00 -0.14632054948E+04  0.14632054948E+04  0.00000000000E+00 0.  1.
          6    2    1    2  501    0 -0.57879435447E+01  0.23082437512E+03 -0.76518556498E+03  0.81821424608E+03  0.17507772900E+03 0.  0.
         24    2    3    3    0    0 -0.34161493507E+02  0.21411506870E+03 -0.74312055686E+03  0.77829916319E+03  0.80679335085E+02 0.  0.
         -6    2    1    2    0  502  0.57879435447E+01 -0.23082437512E+03 -0.64079140411E+03  0.70221977439E+03  0.17083792179E+03 0.  0.
        -24    2    5    5    0    0  0.41697645187E+01 -0.25084343734E+03 -0.61571637167E+03  0.66975088763E+03  0.80745180346E+02 0.  0.
          5    1    3    3  501    0  0.28373549962E+02  0.16709306425E+02 -0.22065008116E+02  0.39915082886E+02  0.47000000000E+01 0. -1.
        -11    1    4    4    0    0  0.82296583901E+01  0.16979748559E+03 -0.54126036112E+03  0.56732855728E+03  0.00000000000E+00 0.  1.
         12    1    4    4    0    0 -0.42391151897E+02  0.44317583109E+02 -0.20186019574E+03  0.21097060591E+03  0.00000000000E+00 0. -1.
         -5    1    5    5    0  502  0.16181790260E+01  0.20019062217E+02 -0.25075032439E+02  0.32468886757E+02  0.47000000000E+01 0.  1.
         11    1    6    6    0    0  0.26797829475E+01 -0.15480481296E+03 -0.27320323281E+03  0.31402502730E+03  0.00000000000E+00 0. -1.
        -12    1    6    6    0    0  0.14899815712E+01 -0.96038624375E+02 -0.34251313886E+03  0.35572586033E+03  0.00000000000E+00 0.  1.
<mgrwt>
<rscale>  2 0.28913063E+03</rscale>
<asrwt>0</asrwt>
<pdfrwt beam="1">  1       21 0.88043890E-02 0.28976819E+03</pdfrwt>
<pdfrwt beam="2">  1       21 0.22510853E+00 0.28976819E+03</pdfrwt>
<totfact> 0.88367708E+03</totfact>
</mgrwt>
</event>
<event>
12    1  0.1013215E-001  0.2454067E+03  0.7546771E-02  0.1116719E+00
         21   -1    0    0  501  502  0.00000000000E+00  0.00000000000E+00  0.15882574313E+04  0.15882574313E+04  0.00000000000E+00 0. -1.
         21   -1    0    0  502  503 -0.00000000000E+00 -0.00000000000E+00 -0.38237575481E+02  0.38237575481E+02  0.00000000000E+00 0. -1.
         -6    2    1    2    0  503 -0.17172102485E+03 -0.32142544987E+02  0.65509023022E+03  0.69852762319E+03  0.16815581186E+03 0.  0.
        -24    2    3    3    0    0 -0.58585610443E+02 -0.19697004463E+02  0.15099598324E+03  0.18172242459E+03  0.80018790961E+02 0.  0.
          6    2    1    2  501    0  0.17172102485E+03  0.32142544987E+02  0.89492962556E+03  0.92796738354E+03  0.17234609555E+03 0.  0.
         24    2    5    5    0    0  0.18957113898E+03  0.58186698379E+02  0.73633713149E+03  0.76619410493E+03  0.74418590483E+02 0.  0.
          5    1    5    5  501    0 -0.17850114138E+02 -0.26044153391E+02  0.15859249407E+03  0.16177327862E+03  0.47000000000E+01 0. -1.
        -11    1    6    6    0    0 -0.53510602480E+01  0.74279910667E+01  0.53166132381E+02  0.53948554471E+02  0.00000000000E+00 0.  1.
         12    1    6    6    0    0  0.19492219923E+03  0.50758707312E+02  0.68317099911E+03  0.71224555046E+03  0.00000000000E+00 0. -1.
         -5    1    3    3    0  503 -0.11313541440E+03 -0.12445540524E+02  0.50409424697E+03  0.51680519860E+03  0.47000000000E+01 0.  1.
         11    1    4    4    0    0 -0.10691551711E+02  0.30025022557E+02  0.42473963058E+02  0.53102248497E+02  0.00000000000E+00 0. -1.
        -12    1    4    4    0    0 -0.47894058732E+02 -0.49722027020E+02  0.10852202018E+03  0.12862017609E+03  0.00000000000E+00 0.  1.
<mgrwt>
<rscale>  2 0.24467226E+03</rscale>
<asrwt>0</asrwt>
<pdfrwt beam="1">  1       21 0.24434725E+00 0.24540666E+03</pdfrwt>
<pdfrwt beam="2">  1       21 0.58827052E-02 0.24540666E+03</pdfrwt>
<totfact> 0.14027518E+04</totfact>
</mgrwt>
</event>
<event>
12    1  0.1013215E-001  0.2089582E+03  0.7546771E-02  0.1142492E+00
         21   -1    0    0  503  502  0.00000000000E+00  0.00000000000E+00  0.14224108827E+03  0.14224108827E+03  0.00000000000E+00 0.  1.
         21   -1    0    0  501  503 -0.00000000000E+00 -0.00000000000E+00 -0.50427624890E+03  0.50427624890E+03  0.00000000000E+00 0. -1.
          6    2    1    2  501    0 -0.10129615133E+03  0.58170607398E+02 -0.38372102813E+03  0.43692718915E+03  0.17325937593E+03 0.  0.
         24    2    3    3    0    0  0.21235972723E+01  0.40309564785E+02 -0.25919814638E+03  0.27400788604E+03  0.79166102910E+02 0.  0.
         -6    2    1    2    0  502  0.10129615133E+03 -0.58170607398E+02  0.21685867502E+02  0.20959014802E+03  0.17266448233E+03 0.  0.
        -24    2    5    5    0    0  0.81586583335E+02 -0.10425105032E+03  0.33953026507E+02  0.15777849411E+03  0.78845374769E+02 0.  0.
          5    1    3    3  501    0 -0.10341974860E+03  0.17861042613E+02 -0.12452288175E+03  0.16291930310E+03  0.47000000000E+01 0. -1.
        -11    1    4    4    0    0  0.86331698894E+00 -0.37996588916E+01  0.48933156440E+01  0.62551788070E+01  0.00000000000E+00 0.  1.
         12    1    4    4    0    0  0.12602802833E+01  0.44109223677E+02 -0.26409146202E+03  0.26775270724E+03  0.00000000000E+00 0. -1.
         -5    1    5    5    0  502  0.19709567996E+02  0.46080442924E+02 -0.12267159006E+02  0.51811653909E+02  0.47000000000E+01 0.  1.
         11    1    6    6    0    0  0.81676567880E+01 -0.95550861174E+01 -0.22152282300E+02  0.25470255186E+02  0.00000000000E+00 0. -1.
        -12    1    6    6    0    0  0.73418926547E+02 -0.94695964205E+02  0.56105308808E+02  0.13230823893E+03  0.00000000000E+00 0.  1.
<mgrwt>
<rscale>  2 0.20883487E+03</rscale>
<asrwt>0</asrwt>
<pdfrwt beam="1">  1       21 0.21883244E-01 0.20895823E+03</pdfrwt>
<pdfrwt beam="2">  1       21 0.77580961E-01 0.20895823E+03</pdfrwt>
<totfact> 0.28475880E+04</totfact>
</mgrwt>
</event>
<event>
12    1  0.1013215E-001  0.1951213E+03  0.7546771E-02  0.1154180E+00
         21   -1    0    0  503  502  0.00000000000E+00  0.00000000000E+00  0.16202599291E+04  0.16202599291E+04  0.00000000000E+00 0.  1.
         21   -1    0    0  501  503 -0.00000000000E+00 -0.00000000000E+00 -0.25825190695E+02  0.25825190695E+02  0.00000000000E+00 0.  1.
          6    2    1    2  501    0 -0.74386828097E+02 -0.49688134238E+02  0.54050603211E+03  0.57424649080E+03  0.17207542119E+03 0.  0.
         24    2    3    3    0    0 -0.86618774706E+02 -0.18283926104E+02  0.19407960074E+03  0.22615281497E+03  0.75107191461E+02 0.  0.
         -6    2    1    2    0  502  0.74386828097E+02  0.49688134238E+02  0.10539287063E+04  0.10718386290E+04  0.17340708683E+03 0.  0.
        -24    2    5    5    0    0  0.80601337098E+02  0.92904350593E+02  0.73131009111E+03  0.74624513652E+03  0.83304024584E+02 0.  0.
          5    1    3    3  501    0  0.12231946609E+02 -0.31404208134E+02  0.34642643136E+03  0.34809367583E+03  0.47000000000E+01 0. -1.
        -13    1    4    4    0    0 -0.27961401228E+02 -0.43887979901E+02  0.83574170154E+02  0.98451189202E+02  0.00000000000E+00 0.  1.
         14    1    4    4    0    0 -0.58657373478E+02  0.25604053797E+02  0.11050543059E+03  0.12770162577E+03  0.00000000000E+00 0. -1.
         -5    1    5    5    0  502 -0.62145090012E+01 -0.43216216355E+02  0.32261861518E+03  0.32559349247E+03  0.47000000000E+01 0.  1.
         13    1    6    6    0    0  0.38952905249E+00  0.49126007286E+01 -0.36889789468E+00  0.49418078127E+01  0.00000000000E+00 0. -1.
        -14    1    6    6    0    0  0.80211808046E+02  0.87991749865E+02  0.73167898901E+03  0.74130332870E+03  0.00000000000E+00 0.  1.
<mgrwt>
<rscale>  2 0.19482502E+03</rscale>
<asrwt>0</asrwt>
<pdfrwt beam="1">  1       21 0.24927068E+00 0.19512132E+03</pdfrwt>
<pdfrwt beam="2">  1       21 0.39731075E-02 0.19512132E+03</pdfrwt>
<totfact> 0.26558469E+04</totfact>
</mgrwt>
</event>
<event>
12    1  0.1013215E-001  0.1894565E+03  0.7546771E-02  0.1159105E+00
         21   -1    0    0  501  502  0.00000000000E+00  0.00000000000E+00  0.15641205808E+02  0.15641205808E+02  0.00000000000E+00 0. -1.
         21   -1    0    0  502  503 -0.00000000000E+00 -0.00000000000E+00 -0.25890722078E+04  0.25890722078E+04  0.00000000000E+00 0.  1.
         -6    2    1    2    0  503 -0.71523801450E+02  0.21894962365E+02 -0.17338412689E+04  0.17441614913E+04  0.17406527134E+03 0.  0.
        -24    2    3    3    0    0  0.93182255910E+01  0.57607536739E+02 -0.10002003225E+04  0.10052014454E+04  0.81386750077E+02 0.  0.
          6    2    1    2  501    0  0.71523801450E+02 -0.21894962365E+02 -0.83958973310E+03  0.86055192225E+03  0.17333103416E+03 0.  0.
         24    2    5    5    0    0  0.35719467769E+02 -0.73661760243E+02 -0.38529738141E+03  0.40189586104E+03  0.79776410697E+02 0.  0.
          5    1    5    5  501    0  0.35804333681E+02  0.51766797878E+02 -0.45429235169E+03  0.45865606120E+03  0.47000000000E+01 0. -1.
        -13    1    6    6    0    0  0.33522564055E+02 -0.23870191503E+02 -0.30226604080E+03  0.30505459801E+03  0.00000000000E+00 0.  1.
         14    1    6    6    0    0  0.21969037137E+01 -0.49791568740E+02 -0.83031340607E+02  0.96841263037E+02  0.00000000000E+00 0. -1.
         -5    1    3    3    0  503 -0.80842027041E+02 -0.35712574374E+02 -0.73364094635E+03  0.73896004592E+03  0.47000000000E+01 0.  1.
         13    1    4    4    0    0 -0.15374298281E+02  0.68049769054E+02 -0.58678546713E+03  0.59091820462E+03  0.00000000000E+00 0. -1.
        -14    1    4    4    0    0  0.24692523872E+02 -0.10442232315E+02 -0.41341485538E+03  0.41428324080E+03  0.00000000000E+00 0.  1.
<mgrwt>
<rscale>  2 0.18928767E+03</rscale>
<asrwt>0</asrwt>
<pdfrwt beam="1">  1       21 0.24063408E-02 0.18945649E+03</pdfrwt>
<pdfrwt beam="2">  1       21 0.39831856E+00 0.18945649E+03</pdfrwt>
<totfact> 0.81541251E+03</totfact>
</mgrwt>
</event>
<event>
12    1  0.1013215E-001  0.1875590E+03  0.7546771E-02  0.1161091E+00
         21   -1    0    0  503  502  0.00000000000E+00  0.00000000000E+00  0.82631920191E+02  0.82631920191E+02  0.00000000000E+00 0.  1.
         21   -1    0    0  501  503 -0.00000000000E+00 -0.00000000000E+00 -0.10272081321E+04  0.10272081321E+04  0.00000000000E+00 0.  1.
          6    2    1    2  501    0 -0.18038548931E+02  0.70981905026E+02 -0.89741414578E+03  0.91644246119E+03  0.17073609908E+03 0.  0.
         24    2    3    3    0    0  0.27126491616E+02  0.29114454412E+02 -0.76545977561E+03  0.77074822618E+03  0.80874359785E+02 0.  0.
         -6    2    1    2    0  502  0.18038548931E+02 -0.70981905026E+02 -0.47162066125E+02  0.19339759110E+03  0.17266889608E+03 0.  0.
        -24    2    5    5    0    0 -0.37888545435E+02 -0.84301221324E+02 -0.72109533596E+01  0.12323046574E+03  0.81188127491E+02 0.  0.
          5    1    3    3  501    0 -0.45165040547E+02  0.41867450614E+02 -0.13195437017E+03  0.14569423501E+03  0.47000000000E+01 0. -1.
        -11    1    4    4    0    0  0.32984602839E+02  0.44488278033E+02 -0.72441513325E+03  0.72652906081E+03  0.00000000000E+00 0.  1.
         12    1    4    4    0    0 -0.58581112228E+01 -0.15373823621E+02 -0.41044642357E+02  0.44219165370E+02  0.00000000000E+00 0. -1.
         -5    1    5    5    0  502  0.55927094366E+02  0.13319316298E+02 -0.39951112765E+02  0.70167125365E+02  0.47000000000E+01 0.  1.
         11    1    6    6    0    0 -0.36215685994E+01 -0.82000583927E+02 -0.23272772444E+02  0.85316079732E+02  0.00000000000E+00 0. -1.
        -12    1    6    6    0    0 -0.34266976835E+02 -0.23006373969E+01  0.16061819085E+02  0.37914386006E+02  0.00000000000E+00 0.  1.
<mgrwt>
<rscale>  2 0.18711293E+03</rscale>
<asrwt>0</asrwt>
<pdfrwt beam="1">  1       21 0.12712603E-01 0.18755897E+03</pdfrwt>
<pdfrwt beam="2">  1       21 0.15803203E+00 0.18755897E+03</pdfrwt>
<totfact> 0.13821277E+04</totfact>
</mgrwt>
</event>
<event>
12    1  0.1013215E-001  0.3441917E+03  0.7546771E-02  0.1065093E+00
         21   -1    0    0  501  502  0.00000000000E+00  0.00000000000E+00  0.15536278838E+04  0.15536278838E+04  0.00000000000E+00 0. -1.
         21   -1    0    0  502  503 -0.00000000000E+00 -0.00000000000E+00 -0.17509093509E+03  0.17509093509E+03  0.00000000000E+00 0. -1.
         -6    2    1    2    0  503 -0.15343694993E+03  0.25444781512E+03  0.39658325977E+02  0.34646889089E+03  0.17372772177E+03 0.  0.
        -24    2    3    3    0    0 -0.12678175053E+03  0.27200569656E+03  0.26296944807E+02  0.31154904894E+03  0.79439092120E+02 0.  0.
          6    2    1    2  501    0  0.15343694993E+03 -0.25444781512E+03  0.13388786227E+04  0.13822499280E+04  0.17243059130E+03 0.  0.
         24    2    5    5    0    0  0.16265692737E+03 -0.22650150010E+03  0.97683675583E+03  0.10189836236E+04  0.79733130458E+02 0.  0.
          5    1    5    5  501    0 -0.92199774398E+01 -0.27946315017E+02  0.36204186689E+03  0.36326630436E+03  0.47000000000E+01 0. -1.
        -11    1    6    6    0    0  0.87436853368E+01  0.99208294760E+00  0.93883159585E+02  0.94294665361E+02  0.00000000000E+00 0.  1.
         12    1    6    6    0    0  0.15391324203E+03 -0.22749358305E+03  0.88295359625E+03  0.92468895826E+03  0.00000000000E+00 0. -1.
         -5    1    3    3    0  503 -0.26655199392E+02 -0.17557881439E+02  0.13361381170E+02  0.34919841953E+02  0.47000000000E+01 0.  1.
         13    1    4    4    0    0 -0.74866461994E+02  0.72525578563E+02  0.55529023878E+01  0.10438285971E+03  0.00000000000E+00 0. -1.
        -14    1    4    4    0    0 -0.51915288541E+02  0.19948011800E+03  0.20744042419E+02  0.20716618922E+03  0.00000000000E+00 0.  1.
<mgrwt>
<rscale>  2 0.34402834E+03</rscale>
<asrwt>0</asrwt>
<pdfrwt beam="1">  1       21 0.23901967E+00 0.34419168E+03</pdfrwt>
<pdfrwt beam="2">  1       21 0.26937068E-01 0.34419168E+03</pdfrwt>
<totfact> 0.88481895E+02</totfact>
</mgrwt>
</event>
<event>
12    1  0.1013215E-001  0.1809552E+03  0.7546771E-02  0.1169179E+00
         21   -1    0    0  501  502  0.00000000000E+00  0.00000000000E+00  0.60378784802E+02  0.60378784802E+02  0.00000000000E+00 0. -1.
         21   -1    0    0  502  503 -0.00000000000E+00 -0.00000000000E+00 -0.58711052010E+03  0.58711052010E+03  0.00000000000E+00 0.  1.
         -6    2    1    2    0  503  0.48164182975E+02 -0.31248519094E+02 -0.38301941404E+03  0.42361382455E+03  0.17160577596E+03 0.  0.
        -24    2    3    3    0    0 -0.34475664139E+02  0.82127420950E+01 -0.15714511433E+03  0.17983559595E+03  0.79938939590E+02 0.  0.
          6    2    1    2  501    0 -0.48164182975E+02  0.31248519094E+02 -0.14371232125E+03  0.22387548036E+03  0.16177373383E+03 0.  0.
         24    2    5    5    0    0 -0.52513122961E+02  0.72217872916E+02 -0.71474471844E+02  0.14058203452E+03  0.81741415777E+02 0.  0.
          5    1    5    5  501    0  0.43489399862E+01 -0.40969353823E+02 -0.72237849411E+02  0.83293445836E+02  0.47000000000E+01 0. -1.
        -13    1    6    6    0    0 -0.21377033818E+02  0.83159648503E+02 -0.63035388767E+02  0.10651743966E+03  0.00000000000E+00 0.  1.
         14    1    6    6    0    0 -0.31136089143E+02 -0.10941775587E+02 -0.84390830768E+01  0.34064594865E+02  0.00000000000E+00 0. -1.
         -5    1    3    3    0  503  0.82639847113E+02 -0.39461261189E+02 -0.22587429971E+03  0.24377822859E+03  0.47000000000E+01 0.  1.
         13    1    4    4    0    0 -0.92597414671E+01 -0.33200839396E+02 -0.94693409671E+02  0.10077142643E+03  0.00000000000E+00 0. -1.
        -14    1    4    4    0    0 -0.25215922672E+02  0.41413581491E+02 -0.62451704662E+02  0.79064169528E+02  0.00000000000E+00 0.  1.
<mgrwt>
<rscale>  2 0.17858516E+03</rscale>
<asrwt>0</asrwt>
<pdfrwt beam="1">  1       21 0.92890441E-02 0.18095525E+03</pdfrwt>
<pdfrwt beam="2">  1       21 0.90324693E-01 0.18095525E+03</pdfrwt>
<totfact> 0.96733831E+04</totfact>
</mgrwt>
</event>
<event>
12    1  0.1013215E-001  0.1975841E+03  0.7546771E-02  0.1151868E+00
         21   -1    0    0  501  502  0.00000000000E+00  0.00000000000E+00  0.50513155246E+03  0.50513155246E+03  0.00000000000E+00 0.  1.
         21   -1    0    0  502  503 -0.00000000000E+00 -0.00000000000E+00 -0.10332700655E+03  0.10332700655E+03  0.00000000000E+00 0.  1.
         -6    2    1    2    0  503  0.90216741069E+02 -0.33857851911E+02  0.47907013249E+02  0.20330904845E+03  0.17249368904E+03 0.  0.
        -24    2    3    3    0    0  0.69069393588E+02  0.42389621788E+02  0.55965270757E+02  0.12363525687E+03  0.74740243802E+02 0.  0.
          6    2    1    2  501    0 -0.90216741069E+02  0.33857851911E+02  0.35389753266E+03  0.40514951056E+03  0.17209662339E+03 0.  0.
         24    2    5    5    0    0 -0.24350358688E+02  0.25948606183E+02  0.31687798631E+03  0.32903464140E+03  0.81153354221E+02 0.  0.
          5    1    5    5  501    0 -0.65866382381E+02  0.79092457280E+01  0.37019546348E+02  0.76114869164E+02  0.47000000000E+01 0. -1.
        -11    1    6    6    0    0 -0.20106636619E+02  0.77790797276E+01  0.30731115363E+03  0.30806644748E+03  0.00000000000E+00 0.  1.
         12    1    6    6    0    0 -0.42437220690E+01  0.18169526455E+02  0.95668326766E+01  0.20968193915E+02  0.00000000000E+00 0. -1.
         -5    1    3    3    0  503  0.21147347481E+02 -0.76247473699E+02 -0.80582575083E+01  0.79673791582E+02  0.47000000000E+01 0.  1.
         11    1    4    4    0    0 -0.10294777882E+02 -0.41640070511E-01  0.27313862432E+02  0.29189574620E+02  0.00000000000E+00 0. -1.
        -12    1    4    4    0    0  0.79364171470E+02  0.42431261859E+02  0.28651408325E+02  0.94445682247E+02  0.00000000000E+00 0.  1.
<mgrwt>
<rscale>  2 0.19749743E+03</rscale>
<asrwt>0</asrwt>
<pdfrwt beam="1">  1       21 0.77712545E-01 0.19758413E+03</pdfrwt>
<pdfrwt beam="2">  1       21 0.15896463E-01 0.19758413E+03</pdfrwt>
<totfact> 0.51682665E+04</totfact>
</mgrwt>
</event>
<event>
12    1  0.1013215E-001  0.1744766E+03  0.7546771E-02  0.1173313E+00
         21   -1    0    0  501  502  0.00000000000E+00  0.00000000000E+00  0.36292970383E+02  0.36292970383E+02  0.00000000000E+00 0. -1.
         21   -1    0    0  502  503 -0.00000000000E+00 -0.00000000000E+00 -0.92370759196E+03  0.92370759196E+03  0.00000000000E+00 0. -1.
         -6    2    1    2    0  503 -0.16118404953E+02  0.16261060575E+02 -0.59038936168E+03  0.61563113894E+03  0.17296784607E+03 0.  0.
        -24    2    3    3    0    0  0.11593110261E+02  0.71754520434E+02 -0.43070852040E+03  0.44426161646E+03  0.81089104714E+02 0.  0.
          6    2    1    2  501    0  0.16118404953E+02 -0.16261060575E+02 -0.29702525989E+03  0.34436942340E+03  0.17274857363E+03 0.  0.
         24    2    5    5    0    0  0.28097512131E+02  0.18737653187E+02 -0.61931146061E+02  0.10633635567E+03  0.79569993407E+02 0.  0.
          5    1    5    5  501    0 -0.11979107178E+02 -0.34998713762E+02 -0.23509411383E+03  0.23803306773E+03  0.47000000000E+01 0. -1.
        -11    1    6    6    0    0  0.38076826371E+02 -0.19755193786E+02 -0.16500510838E+02  0.45960627127E+02  0.00000000000E+00 0.  1.
         12    1    6    6    0    0 -0.99793142406E+01  0.38492846973E+02 -0.45430635223E+02  0.60375728547E+02  0.00000000000E+00 0. -1.
         -5    1    3    3    0  503 -0.27711515214E+02 -0.55493459860E+02 -0.15968084128E+03  0.17136952248E+03  0.47000000000E+01 0.  1.
         11    1    4    4    0    0  0.29540567132E+01 -0.14594888510E+02 -0.22854961727E+02  0.27277948919E+02  0.00000000000E+00 0. -1.
        -12    1    4    4    0    0  0.86390535482E+01  0.86349408944E+02 -0.40785355867E+03  0.41698366754E+03  0.00000000000E+00 0.  1.
<mgrwt>
<rscale>  2 0.17442228E+03</rscale>
<asrwt>0</asrwt>
<pdfrwt beam="1">  1       21 0.55835349E-02 0.17447665E+03</pdfrwt>
<pdfrwt beam="2">  1       21 0.14210883E+00 0.17447665E+03</pdfrwt>
<totfact> 0.77454124E+04</totfact>
</mgrwt>
</event>
<event>
12    1  0.1013215E-001  0.1798963E+03  0.7546771E-02  0.1168006E+00
         21   -1    0    0  501  502  0.00000000000E+00  0.00000000000E+00  0.14683511966E+04  0.14683511966E+04  0.00000000000E+00 0. -1.
         21   -1    0    0  502  503 -0.00000000000E+00 -0.00000000000E+00 -0.38652001822E+02  0.38652001822E+02  0.00000000000E+00 0. -1.
         -6    2    1    2    0  503  0.20846844488E+02 -0.41481240005E+02  0.22058013533E+03  0.28463712351E+03  0.17380279567E+03 0.  0.
        -24    2    3    3    0    0  0.40199511973E+02 -0.57052672307E+02  0.61238435503E+02  0.12330249441E+03  0.81131689031E+02 0.  0.
          6    2    1    2  501    0 -0.20846844488E+02  0.41481240005E+02  0.12091190595E+04  0.12223660750E+04  0.17336273238E+03 0.  0.
         24    2    5    5    0    0 -0.27763035305E+02  0.83592000179E+02  0.10117733661E+04  0.10204042901E+04  0.98899759375E+02 0.  0.
          5    1    5    5  501    0  0.69161908175E+01 -0.42110760174E+02  0.19734569344E+03  0.20196178484E+03  0.47000000000E+01 0. -1.
        -13    1    6    6    0    0 -0.43027203509E+02  0.12918929602E+02  0.18105218955E+03  0.18654258046E+03  0.00000000000E+00 0.  1.
         14    1    6    6    0    0  0.15264168203E+02  0.70673070577E+02  0.83072117650E+03  0.83386170965E+03  0.00000000000E+00 0. -1.
         -5    1    3    3    0  503 -0.19352667485E+02  0.15571432303E+02  0.15934169983E+03  0.16133462910E+03  0.47000000000E+01 0.  1.
         13    1    4    4    0    0  0.15912010382E+02 -0.30870758378E+02  0.76845069630E+02  0.84328883092E+02  0.00000000000E+00 0. -1.
        -14    1    4    4    0    0  0.24287501591E+02 -0.26181913930E+02 -0.15606634126E+02  0.38973611320E+02  0.00000000000E+00 0.  1.
<mgrwt>
<rscale>  2 0.17978997E+03</rscale>
<asrwt>0</asrwt>
<pdfrwt beam="1">  1       21 0.22590014E+00 0.17989635E+03</pdfrwt>
<pdfrwt beam="2">  1       21 0.59464630E-02 0.17989635E+03</pdfrwt>
<totfact> 0.18739919E+04</totfact>
</mgrwt>
</event>
<event>
12    1  0.1013215E-001  0.1806646E+03  0.7546771E-02  0.1167275E+00
         21   -1    0    0  503  502  0.00000000000E+00  0.00000000000E+00  0.40872823158E+02  0.40872823158E+02  0.00000000000E+00 0. -1.
         21   -1    0    0  501  503 -0.00000000000E+00 -0.00000000000E+00 -0.79665013375E+03  0.79665013375E+03  0.00000000000E+00 0. -1.
          6    2    1    2  501    0 -0.26123928298E+02  0.42198498935E+02 -0.37250291617E+03  0.41400257436E+03  0.17371394899E+03 0.  0.
         24    2    3    3    0    0  0.74292218929E+01 -0.41959366237E+02 -0.21699271431E+03  0.23396404225E+03  0.76403882435E+02 0.  0.
         -6    2    1    2    0  502  0.26123928298E+02 -0.42198498935E+02 -0.38327439442E+03  0.42352038255E+03  0.17322551797E+03 0.  0.
        -24    2    5    5    0    0  0.23328125765E+01 -0.53199340280E+02 -0.10068122148E+03  0.13967530669E+03  0.80850919106E+02 0.  0.
          5    1    3    3  501    0 -0.33553150191E+02  0.84157865172E+02 -0.15551020186E+03  0.18003853210E+03  0.47000000000E+01 0. -1.
        -11    1    4    4    0    0  0.25937521667E+02 -0.40958535537E+01 -0.21377920024E+02  0.33860692715E+02  0.00000000000E+00 0.  1.
         12    1    4    4    0    0 -0.18508299774E+02 -0.37863512684E+02 -0.19561479428E+03  0.20010334954E+03  0.00000000000E+00 0. -1.
         -5    1    5    5    0  502  0.23791115722E+02  0.11000841345E+02 -0.28259317294E+03  0.28384507586E+03  0.47000000000E+01 0.  1.
         13    1    6    6    0    0  0.31474779770E+02 -0.16741389754E+02 -0.89557553505E+01  0.36757875977E+02  0.00000000000E+00 0. -1.
        -14    1    6    6    0    0 -0.29141967193E+02 -0.36457950526E+02 -0.91725466128E+02  0.10291743071E+03  0.00000000000E+00 0.  1.
<mgrwt>
<rscale>  2 0.18054712E+03</rscale>
<asrwt>0</asrwt>
<pdfrwt beam="1">  1       21 0.62881270E-02 0.18066463E+03</pdfrwt>
<pdfrwt beam="2">  1       21 0.12256155E+00 0.18066463E+03</pdfrwt>
<totfact> 0.91659235E+04</totfact>
</mgrwt>
</event>
<event>
12    1  0.1013215E-001  0.5076591E+03  0.7546771E-02  0.1011810E+00
         21   -1    0    0  501  502  0.00000000000E+00  0.00000000000E+00  0.29323365856E+03  0.29323365856E+03  0.00000000000E+00 0. -1.
         21   -1    0    0  502  503 -0.00000000000E+00 -0.00000000000E+00 -0.96056469218E+03  0.96056469218E+03  0.00000000000E+00 0.  1.
         -6    2    1    2    0  503 -0.43761039186E+03  0.19162521823E+03 -0.51687536645E+03  0.72448457434E+03  0.17174013709E+03 0.  0.
        -24    2    3    3    0    0 -0.33788268235E+03  0.12593257407E+03 -0.46552786094E+03  0.59440845868E+03  0.81126482762E+02 0.  0.
          6    2    1    2  501    0  0.43761039186E+03 -0.19162521823E+03 -0.15045566717E+03  0.52931377640E+03  0.17121065030E+03 0.  0.
         24    2    5    5    0    0  0.19051992631E+03 -0.11154472581E+03 -0.13158106119E+03  0.26884319421E+03  0.78886115601E+02 0.  0.
          5    1    5    5  501    0  0.24709046555E+03 -0.80080492416E+02 -0.18874605982E+02  0.26047058218E+03  0.47000000000E+01 0. -1.
        -11    1    6    6    0    0  0.18577592338E+03 -0.11911911343E+03 -0.11235262213E+03  0.24763919034E+03  0.00000000000E+00 0.  1.
         12    1    6    6    0    0  0.47440029313E+01  0.75743876247E+01 -0.19228439058E+02  0.21204003874E+02  0.00000000000E+00 0. -1.
         -5    1    3    3    0  503 -0.99727709516E+02  0.65692644159E+02 -0.51347505512E+02  0.13007611566E+03  0.47000000000E+01 0.  1.
         13    1    4    4    0    0 -0.68514645235E+02 -0.12290796919E+01 -0.58969669080E+02  0.90405691856E+02  0.00000000000E+00 0. -1.
        -14    1    4    4    0    0 -0.26936803711E+03  0.12716165376E+03 -0.40655819186E+03  0.50400276683E+03  0.00000000000E+00 0.  1.
<mgrwt>
<rscale>  2 0.50761437E+03</rscale>
<asrwt>0</asrwt>
<pdfrwt beam="1">  1       21 0.45112870E-01 0.50765909E+03</pdfrwt>
<pdfrwt beam="2">  1       21 0.14777918E+00 0.50765909E+03</pdfrwt>
<totfact> 0.12157838E+03</totfact>
</mgrwt>
</event>
<event>
12    1  0.1013215E-001  0.2039577E+03  0.7546771E-02  0.1146610E+00
         21   -1    0    0  503  502  0.00000000000E+00  0.00000000000E+00  0.32267270911E+03  0.32267270911E+03  0.00000000000E+00 0.  1.
         21   -1    0    0  501  503 -0.00000000000E+00 -0.00000000000E+00 -0.14278221880E+03  0.14278221880E+03  0.00000000000E+00 0.  1.
          6    2    1    2  501    0  0.10105741087E+03 -0.37030679847E+02  0.16255587914E+02  0.20460442963E+03  0.17324796375E+03 0.  0.
         24    2    3    3    0    0  0.67438664745E+02 -0.74419718949E+02 -0.34277873926E+02  0.13316297737E+03  0.80443382754E+02 0.  0.
         -6    2    1    2    0  502 -0.10105741087E+03  0.37030679847E+02  0.16363490239E+03  0.26085049828E+03  0.17228676569E+03 0.  0.
        -24    2    5    5    0    0 -0.10171425565E+03 -0.40234622745E+01  0.49125283671E+02  0.13911136403E+03  0.81096856014E+02 0.  0.
          5    1    3    3  501    0  0.33618746121E+02  0.37389039103E+02  0.50533461841E+02  0.71441452263E+02  0.47000000000E+01 0. -1.
        -11    1    4    4    0    0  0.34902679229E+02 -0.46230460057E+02  0.22299178149E+02  0.62070168363E+02  0.00000000000E+00 0.  1.
         12    1    4    4    0    0  0.32535985516E+02 -0.28189258892E+02 -0.56577052076E+02  0.71092809003E+02  0.00000000000E+00 0. -1.
         -5    1    5    5    0  502  0.65684477847E+00  0.41054142121E+02  0.11450961872E+03  0.12173913426E+03  0.47000000000E+01 0.  1.
         11    1    6    6    0    0 -0.14380800743E+02 -0.30051310574E+02  0.32376293885E+02  0.46455495939E+02  0.00000000000E+00 0. -1.
        -12    1    6    6    0    0 -0.87333454902E+02  0.26027848299E+02  0.16748989787E+02  0.92655868088E+02  0.00000000000E+00 0.  1.
<mgrwt>
<rscale>  2 0.20375340E+03</rscale>
<asrwt>0</asrwt>
<pdfrwt beam="1">  1       21 0.49641955E-01 0.20395766E+03</pdfrwt>
<pdfrwt beam="2">  1       21 0.21966495E-01 0.20395766E+03</pdfrwt>
<totfact> 0.74505909E+04</totfact>
</mgrwt>
</event>
<event>
12    1  0.1013215E-001  0.1987635E+03  0.7546771E-02  0.1151361E+00
         21   -1    0    0  503  502  0.00000000000E+00  0.00000000000E+00  0.24274389334E+04  0.24274389334E+04  0.00000000000E+00 0.  1.
         21   -1    0    0  501  503 -0.00000000000E+00 -0.00000000000E+00 -0.18917424025E+02  0.18917424025E+02  0.00000000000E+00 0.  1.
          6    2    1    2  501    0 -0.67660032618E+02 -0.70084334553E+02  0.73551548867E+03  0.76189892111E+03  0.17325483527E+03 0.  0.
         24    2    3    3    0    0  0.30105799526E+02 -0.22389546324E+02  0.37334417653E+03  0.38371497103E+03  0.80272373156E+02 0.  0.
         -6    2    1    2    0  502  0.67660032618E+02  0.70084334553E+02  0.16730060207E+04  0.16844574363E+04  0.17017054826E+03 0.  0.
        -24    2    5    5    0    0 -0.12488190367E+02 -0.91998755582E+01  0.81850488097E+03  0.82253864001E+03  0.79868526539E+02 0.  0.
          5    1    3    3  501    0 -0.97765832144E+02 -0.47694788229E+02  0.36217131214E+03  0.37818395008E+03  0.47000000000E+01 0. -1.
        -13    1    4    4    0    0 -0.25120813518E+02  0.67649151677E+01  0.11994181690E+03  0.12273083879E+03  0.00000000000E+00 0.  1.
         14    1    4    4    0    0  0.55226613045E+02 -0.29154461492E+02  0.25340235963E+03  0.26098413224E+03  0.00000000000E+00 0. -1.
         -5    1    5    5    0  502  0.80148222985E+02  0.79284210111E+02  0.85450113973E+03  0.86191879630E+03  0.47000000000E+01 0.  1.
         13    1    6    6    0    0 -0.13364276982E+02  0.33120706680E+02  0.49316645887E+03  0.49445802781E+03  0.00000000000E+00 0. -1.
        -14    1    6    6    0    0  0.87608661491E+00 -0.42320582239E+02  0.32533842210E+03  0.32808061220E+03  0.00000000000E+00 0.  1.
<mgrwt>
<rscale>  2 0.19808943E+03</rscale>
<asrwt>0</asrwt>
<pdfrwt beam="1">  1       21 0.37345190E+00 0.19876351E+03</pdfrwt>
<pdfrwt beam="2">  1       21 0.29103749E-02 0.19876351E+03</pdfrwt>
<totfact> 0.83657276E+03</totfact>
</mgrwt>
</event>
<event>
12    1  0.1013215E-001  0.2073647E+03  0.7546771E-02  0.1143880E+00
         21   -1    0    0  501  502  0.00000000000E+00  0.00000000000E+00  0.80098385659E+02  0.80098385659E+02  0.00000000000E+00 0. -1.
         21   -1    0    0  502  503 -0.00000000000E+00 -0.00000000000E+00 -0.54824053451E+03  0.54824053451E+03  0.00000000000E+00 0. -1.
         -6    2    1    2    0  503 -0.45785712655E+02 -0.10304897399E+03 -0.28386925603E+03  0.35092837303E+03  0.17278178711E+03 0.  0.
        -24    2    3    3    0    0 -0.83750245783E+02 -0.26628660793E+02 -0.12857784365E+03  0.17367464866E+03  0.76859823479E+02 0.  0.
          6    2    1    2  501    0  0.45785712655E+02  0.10304897399E+03 -0.18427289282E+03  0.27741054713E+03  0.17402496979E+03 0.  0.
         24    2    5    5    0    0  0.11401905625E+02  0.92579596053E+02 -0.55978469186E+02  0.14409361949E+03  0.94490195836E+02 0.  0.
          5    1    5    5  501    0  0.34383807030E+02  0.10469377938E+02 -0.12829442363E+03  0.13331692764E+03  0.47000000000E+01 0. -1.
        -11    1    6    6    0    0 -0.22298447229E+02  0.84494826507E+02 -0.64248334116E+02  0.10846402580E+03  0.00000000000E+00 0.  1.
         12    1    6    6    0    0  0.33700352854E+02  0.80847695466E+01  0.82698649301E+01  0.35629593698E+02  0.00000000000E+00 0. -1.
         -5    1    3    3    0  503  0.37964533128E+02 -0.76420313198E+02 -0.15529141238E+03  0.17725372437E+03  0.47000000000E+01 0.  1.
         13    1    4    4    0    0 -0.32182871205E+02 -0.36171749741E+02 -0.10608585644E+03  0.11661192741E+03  0.00000000000E+00 0. -1.
        -14    1    4    4    0    0 -0.51567374577E+02  0.95430889476E+01 -0.22491987210E+02  0.57062721247E+02  0.00000000000E+00 0.  1.
<mgrwt>
<rscale>  2 0.20710364E+03</rscale>
<asrwt>0</asrwt>
<pdfrwt beam="1">  1       21 0.12322828E-01 0.20736469E+03</pdfrwt>
<pdfrwt beam="2">  1       21 0.84344700E-01 0.20736469E+03</pdfrwt>
<totfact> 0.67783759E+04</totfact>
</mgrwt>
</event>
<event>
12    1  0.1013215E-001  0.2101000E+03  0.7546771E-02  0.1141735E+00
         21   -1    0    0  503  502  0.00000000000E+00  0.00000000000E+00  0.42241800069E+03  0.42241800069E+03  0.00000000000E+00 0. -1.
         21   -1    0    0  501  503 -0.00000000000E+00 -0.00000000000E+00 -0.17995061707E+03  0.17995061707E+03  0.00000000000E+00 0. -1.
          6    2    1    2  501    0 -0.11334886934E+03  0.29999540766E+02 -0.74802635569E+02  0.22183968642E+03  0.17282787262E+03 0.  0.
         24    2    3    3    0    0 -0.12512167479E+03  0.12616109361E+02 -0.10673172099E+03  0.18333852888E+03  0.80042215036E+02 0.  0.
         -6    2    1    2    0  502  0.11334886934E+03 -0.29999540766E+02  0.31727001919E+03  0.38052893135E+03  0.17433893395E+03 0.  0.
        -24    2    5    5    0    0  0.10016070774E+03 -0.79040942433E+02  0.27479407106E+03  0.31415662648E+03  0.83084093050E+02 0.  0.
          5    1    3    3  501    0  0.11772805449E+02  0.17383431406E+02  0.31929085423E+02  0.38501157535E+02  0.47000000000E+01 0. -1.
        -13    1    4    4    0    0 -0.21804274087E+02  0.23937116096E+02  0.26049058360E+01  0.32483802577E+02  0.00000000000E+00 0.  1.
         14    1    4    4    0    0 -0.10331740070E+03 -0.11321006735E+02 -0.10933662683E+03  0.15085472630E+03  0.00000000000E+00 0. -1.
         -5    1    5    5    0  502  0.13188161604E+02  0.49041401667E+02  0.42475948128E+02  0.66372304867E+02  0.47000000000E+01 0.  1.
         13    1    6    6    0    0 -0.67618362101E+01 -0.31802989989E+02  0.87868904508E+02  0.93691498977E+02  0.00000000000E+00 0. -1.
        -14    1    6    6    0    0  0.10692254395E+03 -0.47237952444E+02  0.18692516655E+03  0.22046512751E+03  0.00000000000E+00 0.  1.
<mgrwt>
<rscale>  2 0.20978624E+03</rscale>
<asrwt>0</asrwt>
<pdfrwt beam="1">  1       21 0.64987385E-01 0.21009998E+03</pdfrwt>
<pdfrwt beam="2">  1       21 0.27684710E-01 0.21009998E+03</pdfrwt>
<totfact> 0.26888242E+04</totfact>
</mgrwt>
</event>
<event>
12    1  0.1013215E-001  0.2855263E+03  0.7546771E-02  0.1092756E+00
         21   -1    0    0  501  502  0.00000000000E+00  0.00000000000E+00  0.12531547616E+04  0.12531547616E+04  0.00000000000E+00 0.  1.
         21   -1    0    0  502  503 -0.00000000000E+00 -0.00000000000E+00 -0.70896655876E+02  0.70896655876E+02  0.00000000000E+00 0. -1.
         -6    2    1    2    0  503 -0.16338061534E+03 -0.15732365724E+03  0.40012859208E+03  0.49155687603E+03  0.17343965398E+03 0.  0.
        -24    2    3    3    0    0 -0.99806167087E+02 -0.34415909139E+02  0.27202587437E+03  0.30292914398E+03  0.81377295060E+02 0.  0.
          6    2    1    2  501    0  0.16338061534E+03  0.15732365724E+03  0.78212951363E+03  0.83249454144E+03  0.17284856620E+03 0.  0.
         24    2    5    5    0    0  0.66787363134E+02  0.92204529412E+02  0.60065422376E+03  0.61679538054E+03  0.81785193103E+02 0.  0.
          5    1    5    5  501    0  0.96593252203E+02  0.65119127830E+02  0.18147528987E+03  0.21569916090E+03  0.47000000000E+01 0. -1.
        -13    1    6    6    0    0  0.77357032008E+02  0.97605553184E+02  0.49296460726E+03  0.50845359516E+03  0.00000000000E+00 0.  1.
         14    1    6    6    0    0 -0.10569668874E+02 -0.54010237723E+01  0.10768961650E+03  0.10834178538E+03  0.00000000000E+00 0. -1.
         -5    1    3    3    0  503 -0.63574448249E+02 -0.12290774810E+03  0.12810271771E+03  0.18862773205E+03  0.47000000000E+01 0.  1.
         13    1    4    4    0    0 -0.39882320714E+02  0.14861089387E+02  0.40503510736E+02  0.58753602998E+02  0.00000000000E+00 0. -1.
        -14    1    4    4    0    0 -0.59923846373E+02 -0.49276998526E+02  0.23152236364E+03  0.24417554098E+03  0.00000000000E+00 0.  1.
<mgrwt>
<rscale>  2 0.28543660E+03</rscale>
<asrwt>0</asrwt>
<pdfrwt beam="1">  1       21 0.19279302E+00 0.28552631E+03</pdfrwt>
<pdfrwt beam="2">  1       21 0.10907179E-01 0.28552631E+03</pdfrwt>
<totfact> 0.97527417E+03</totfact>
</mgrwt>
</event>
<event>
12    1  0.1013215E-001  0.2340271E+03  0.7546771E-02  0.1124056E+00
         21   -1    0    0  503  502  0.00000000000E+00  0.00000000000E+00  0.67094647848E+02  0.67094647848E+02  0.00000000000E+00 0.  1.
         21   -1    0    0  501  503 -0.00000000000E+00 -0.00000000000E+00 -0.83138098910E+03  0.83138098910E+03  0.00000000000E+00 0. -1.
          6    2    1    2  501    0  0.15408119701E+03  0.15388324013E+02 -0.31432167738E+03  0.39187600749E+03  0.17547328170E+03 0.  0.
         24    2    3    3    0    0  0.25271186766E+02  0.53002157752E+02 -0.13240154443E+03  0.16577018272E+03  0.80633261767E+02 0.  0.
         -6    2    1    2    0  502 -0.15408119701E+03 -0.15388324013E+02 -0.44996466388E+03  0.50659962946E+03  0.17377332949E+03 0.  0.
        -24    2    5    5    0    0 -0.29381145325E+02  0.37426338285E+02 -0.24127386021E+03  0.25777552898E+03  0.77273315079E+02 0.  0.
          5    1    3    3  501    0  0.12881001024E+03 -0.37613833738E+02 -0.18192013295E+03  0.22610582478E+03  0.47000000000E+01 0. -1.
        -13    1    4    4    0    0  0.14616798058E+02  0.68118269632E+02 -0.62941218936E+02  0.93890076601E+02  0.00000000000E+00 0.  1.
         14    1    4    4    0    0  0.10654388709E+02 -0.15116111880E+02 -0.69460325498E+02  0.71880106117E+02  0.00000000000E+00 0. -1.
         -5    1    5    5    0  502 -0.12470005168E+03 -0.52814662298E+02 -0.20869080367E+03  0.24882410048E+03  0.47000000000E+01 0.  1.
         13    1    6    6    0    0  0.10925407078E+01  0.43021532444E+02 -0.59798587931E+02  0.73674398658E+02  0.00000000000E+00 0. -1.
        -14    1    6    6    0    0 -0.30473686033E+02 -0.55951941587E+01 -0.18147527228E+03  0.18410113032E+03  0.00000000000E+00 0.  1.
<mgrwt>
<rscale>  2 0.23370848E+03</rscale>
<asrwt>0</asrwt>
<pdfrwt beam="1">  1       21 0.10322253E-01 0.23402711E+03</pdfrwt>
<pdfrwt beam="2">  1       21 0.12790478E+00 0.23402711E+03</pdfrwt>
<totfact> 0.33766968E+04</totfact>
</mgrwt>
</event>
<event>
12    1  0.1013215E-001  0.1726016E+03  0.7546771E-02  0.1177793E+00
         21   -1    0    0  503  502  0.00000000000E+00  0.00000000000E+00  0.63845812731E+03  0.63845812731E+03  0.00000000000E+00 0. -1.
         21   -1    0    0  501  503 -0.00000000000E+00 -0.00000000000E+00 -0.10219482798E+03  0.10219482798E+03  0.00000000000E+00 0. -1.
          6    2    1    2  501    0 -0.65052695367E+01  0.14417479914E+02 -0.14696141904E+02  0.16329031022E+03  0.16185662349E+03 0.  0.
         24    2    3    3    0    0  0.17682024323E+02 -0.47350409326E+02 -0.13539606144E+02  0.96779221668E+02  0.81413644831E+02 0.  0.
         -6    2    1    2    0  502  0.65052695367E+01 -0.14417479914E+02  0.55095944124E+03  0.57736264507E+03  0.17187534953E+03 0.  0.
        -24    2    5    5    0    0 -0.56758071639E+02 -0.26930081688E+02  0.39679412379E+03  0.41018653840E+03  0.82829412714E+02 0.  0.
          5    1    3    3  501    0 -0.24187293860E+02  0.61767889241E+02 -0.11565357598E+01  0.66511088553E+02  0.47000000000E+01 0. -1.
        -13    1    4    4    0    0 -0.11623696175E+02 -0.28023748800E+02  0.28764168594E+02  0.41806915749E+02  0.00000000000E+00 0.  1.
         14    1    4    4    0    0  0.29305720498E+02 -0.19326660527E+02 -0.42303774738E+02  0.54972305919E+02  0.00000000000E+00 0. -1.
         -5    1    5    5    0  502  0.63263341176E+02  0.12512601773E+02  0.15416531744E+03  0.16717610667E+03  0.47000000000E+01 0.  1.
         13    1    6    6    0    0 -0.77645276619E+01  0.16498803175E+02  0.23415908990E+03  0.23486800076E+03  0.00000000000E+00 0. -1.
        -14    1    6    6    0    0 -0.48993543977E+02 -0.43428884862E+02  0.16263503389E+03  0.17531853764E+03  0.00000000000E+00 0.  1.
<mgrwt>
<rscale>  2 0.17005219E+03</rscale>
<asrwt>0</asrwt>
<pdfrwt beam="1">  1       21 0.98224325E-01 0.17260162E+03</pdfrwt>
<pdfrwt beam="2">  1       21 0.15722282E-01 0.17260162E+03</pdfrwt>
<totfact> 0.31189232E+04</totfact>
</mgrwt>
</event>
<event>
12    1  0.1013215E-001  0.2315422E+03  0.7546771E-02  0.1125625E+00
         21   -1    0    0  503  502  0.00000000000E+00  0.00000000000E+00  0.37240069792E+03  0.37240069792E+03  0.00000000000E+00 0.  1.
         21   -1    0    0  501  503 -0.00000000000E+00 -0.00000000000E+00 -0.14496322645E+03  0.14496322645E+03  0.00000000000E+00 0. -1.
          6    2    1    2  501    0 -0.58786787705E+02  0.14305343164E+03  0.13770729529E+03  0.26939768472E+03  0.17231263054E+03 0.  0.
         24    2    3    3    0    0 -0.11288684811E+02  0.54074205868E+02  0.13852733351E+03  0.16842177244E+03  0.78259933290E+02 0.  0.
         -6    2    1    2    0  502  0.58786787705E+02 -0.14305343164E+03  0.89730176179E+02  0.24796623964E+03  0.17180099177E+03 0.  0.
        -24    2    5    5    0    0  0.62730107981E+02 -0.13806327855E+03  0.13341021761E+02  0.17116881576E+03  0.78257557422E+02 0.  0.
          5    1    3    3  501    0 -0.47498102894E+02  0.88979225776E+02 -0.82003821270E+00  0.10097591228E+03  0.47000000000E+01 0. -1.
        -13    1    4    4    0    0 -0.31707130267E+02  0.13930705369E+02  0.10948501478E+03  0.11483194296E+03  0.00000000000E+00 0.  1.
         14    1    4    4    0    0  0.20418445457E+02  0.40143500499E+02  0.29042318729E+02  0.53589829486E+02  0.00000000000E+00 0. -1.
         -5    1    5    5    0  502 -0.39433202764E+01 -0.49901530891E+01  0.76389154418E+02  0.76797423885E+02  0.47000000000E+01 0.  1.
         11    1    6    6    0    0  0.39095530310E+02 -0.57303152980E+02 -0.31082899244E+02  0.76014856818E+02  0.00000000000E+00 0. -1.
        -12    1    6    6    0    0  0.23634577671E+02 -0.80760125575E+02  0.44423921004E+02  0.95153958940E+02  0.00000000000E+00 0.  1.
<mgrwt>
<rscale>  2 0.23144706E+03</rscale>
<asrwt>0</asrwt>
<pdfrwt beam="1">  1       21 0.57292415E-01 0.23154225E+03</pdfrwt>
<pdfrwt beam="2">  1       21 0.22302035E-01 0.23154225E+03</pdfrwt>
<totfact> 0.52858175E+04</totfact>
</mgrwt>
</event>
<event>
12    1  0.1013215E-001  0.1866285E+03  0.7546771E-02  0.1162239E+00
         21   -1    0    0  501  502  0.00000000000E+00  0.00000000000E+00  0.40653168214E+03  0.40653168214E+03  0.00000000000E+00 0. -1.
         21   -1    0    0  502  503 -0.00000000000E+00 -0.00000000000E+00 -0.85106649164E+02  0.85106649164E+02  0.00000000000E+00 0. -1.
         -6    2    1    2    0  503 -0.11285435360E+02  0.58403357911E+02  0.18594978705E+03  0.26345310073E+03  0.17689516589E+03 0.  0.
        -24    2    3    3    0    0 -0.20376941826E+02  0.10118433153E+03  0.90181191612E+02  0.15806533547E+03  0.78730643668E+02 0.  0.
          6    2    1    2  501    0  0.11285435360E+02 -0.58403357911E+02  0.13547524593E+03  0.22818523058E+03  0.17371425942E+03 0.  0.
         24    2    5    5    0    0 -0.17238162171E+02  0.31246979605E+02  0.84102971951E+02  0.12089133901E+03  0.79169931084E+02 0.  0.
          5    1    5    5  501    0  0.28523597531E+02 -0.89650337516E+02  0.51372273979E+02  0.10729389156E+03  0.47000000000E+01 0. -1.
        -13    1    6    6    0    0  0.14492951607E+02 -0.13645523926E+02 -0.59677150935E+00  0.19914871472E+02  0.00000000000E+00 0.  1.
         14    1    6    6    0    0 -0.31731113778E+02  0.44892503531E+02  0.84699743460E+02  0.10097646754E+03  0.00000000000E+00 0. -1.
         -5    1    3    3    0  503  0.90915064654E+01 -0.42780973620E+02  0.95768595434E+02  0.10538776525E+03  0.47000000000E+01 0.  1.
         11    1    4    4    0    0  0.24916505442E+01  0.57101102500E+02  0.23951918370E+01  0.57205604385E+02  0.00000000000E+00 0. -1.
        -12    1    4    4    0    0 -0.22868592370E+02  0.44083229031E+02  0.87785999775E+02  0.10085973109E+03  0.00000000000E+00 0.  1.
<mgrwt>
<rscale>  2 0.18587089E+03</rscale>
<asrwt>0</asrwt>
<pdfrwt beam="1">  1       21 0.62543335E-01 0.18662854E+03</pdfrwt>
<pdfrwt beam="2">  1       21 0.13093331E-01 0.18662854E+03</pdfrwt>
<totfact> 0.11915927E+05</totfact>
</mgrwt>
</event>
<event>
12    1  0.1013215E-001  0.2040767E+03  0.7546771E-02  0.1146781E+00
         21   -1    0    0  503  502  0.00000000000E+00  0.00000000000E+00  0.55198925102E+03  0.55198925102E+03  0.00000000000E+00 0.  1.
         21   -1    0    0  501  503 -0.00000000000E+00 -0.00000000000E+00 -0.81193457029E+02  0.81193457029E+02  0.00000000000E+00 0. -1.
          6    2    1    2  501    0  0.57309301802E+02  0.90722239148E+02  0.14679201825E+03  0.25138658266E+03  0.17358697121E+03 0.  0.
         24    2    3    3    0    0  0.98519204621E+01  0.37880277434E+01  0.91147626096E+01  0.81719623958E+02  0.80520857865E+02 0.  0.
         -6    2    1    2    0  502 -0.57309301802E+02 -0.90722239148E+02  0.32400377574E+03  0.38179612539E+03  0.17109925165E+03 0.  0.
        -24    2    5    5    0    0 -0.99927869503E+02 -0.85987239179E+02  0.28463134709E+03  0.32339201016E+03  0.78663867714E+02 0.  0.
          5    1    3    3  501    0  0.47457381340E+02  0.86934211404E+02  0.13767725564E+03  0.16966695871E+03  0.47000000000E+01 0. -1.
        -11    1    4    4    0    0 -0.30071922936E+02 -0.10589414678E+02 -0.12319865371E+02  0.34179457793E+02  0.00000000000E+00 0.  1.
         12    1    4    4    0    0  0.39923843398E+02  0.14377442421E+02  0.21434627980E+02  0.47540166164E+02  0.00000000000E+00 0. -1.
         -5    1    5    5    0  502  0.42618567701E+02 -0.47349999687E+01  0.39372428658E+02  0.58404115232E+02  0.47000000000E+01 0.  1.
         13    1    6    6    0    0 -0.42267834329E+02 -0.43709922398E+02  0.51954047555E+02  0.79977185448E+02  0.00000000000E+00 0. -1.
        -14    1    6    6    0    0 -0.57660035174E+02 -0.42277316781E+02  0.23267729953E+03  0.24341482471E+03  0.00000000000E+00 0.  1.
<mgrwt>
<rscale>  2 0.20354673E+03</rscale>
<asrwt>0</asrwt>
<pdfrwt beam="1">  1       21 0.84921421E-01 0.20407674E+03</pdfrwt>
<pdfrwt beam="2">  1       21 0.12491301E-01 0.20407674E+03</pdfrwt>
<totfact> 0.65224949E+04</totfact>
</mgrwt>
</event>
<event>
12    1  0.1013215E-001  0.1949808E+03  0.7546771E-02  0.1154255E+00
         21   -1    0    0  503  502  0.00000000000E+00  0.00000000000E+00  0.94022057294E+02  0.94022057294E+02  0.00000000000E+00 0. -1.
         21   -1    0    0  501  503 -0.00000000000E+00 -0.00000000000E+00 -0.50943024382E+03  0.50943024382E+03  0.00000000000E+00 0. -1.
          6    2    1    2  501    0  0.70099404691E+02 -0.54047597779E+02 -0.34644040898E+03  0.39754054133E+03  0.17373098648E+03 0.  0.
         24    2    3    3    0    0  0.51096743202E+02 -0.10015255592E+03 -0.29393426955E+03  0.32497503309E+03  0.81055571608E+02 0.  0.
         -6    2    1    2    0  502 -0.70099404691E+02  0.54047597779E+02 -0.68967777547E+02  0.20591175978E+03  0.17265001915E+03 0.  0.
        -24    2    5    5    0    0 -0.53082404315E+02  0.51459398033E+01  0.24398414985E+02  0.99046019892E+02  0.79816095234E+02 0.  0.
          5    1    3    3  501    0  0.19002661489E+02  0.46104958143E+02 -0.52506139425E+02  0.72565508241E+02  0.47000000000E+01 0. -1.
        -13    1    4    4    0    0  0.54921756940E+02 -0.36016347791E+02 -0.91800316795E+02  0.11287548386E+03  0.00000000000E+00 0.  1.
         14    1    4    4    0    0 -0.38250137385E+01 -0.64136208131E+02 -0.20213395276E+03  0.21209954922E+03  0.00000000000E+00 0. -1.
         -5    1    5    5    0  502 -0.17017000376E+02  0.48901657975E+02 -0.93366192532E+02  0.10686573989E+03  0.47000000000E+01 0.  1.
         11    1    6    6    0    0 -0.40416766357E+02 -0.34168144066E+02  0.42634838846E+01  0.53095709493E+02  0.00000000000E+00 0. -1.
        -12    1    6    6    0    0 -0.12665637958E+02  0.39314083870E+02  0.20134931101E+02  0.45950310400E+02  0.00000000000E+00 0.  1.
<mgrwt>
<rscale>  2 0.19473975E+03</rscale>
<asrwt>0</asrwt>
<pdfrwt beam="1">  1       21 0.14464932E-01 0.19498083E+03</pdfrwt>
<pdfrwt beam="2">  1       21 0.78373884E-01 0.19498083E+03</pdfrwt>
<totfact> 0.60304700E+04</totfact>
</mgrwt>
</event>
<event>
12    1  0.1013215E-001  0.1914086E+03  0.7546771E-02  0.1157219E+00
         21   -1    0    0  503  502  0.00000000000E+00  0.00000000000E+00  0.10166655945E+04  0.10166655945E+04  0.00000000000E+00 0.  1.
         21   -1    0    0  501  503 -0.00000000000E+00 -0.00000000000E+00 -0.36148697645E+02  0.36148697645E+02  0.00000000000E+00 0.  1.
          6    2    1    2  501    0  0.54858500708E+01 -0.82210234402E+02  0.45845957204E+03  0.49677372603E+03  0.17265670703E+03 0.  0.
         24    2    3    3    0    0  0.49334075843E+02 -0.11285791121E+03  0.28746245159E+03  0.31754188678E+03  0.55022083042E+02 0.  0.
         -6    2    1    2    0  502 -0.54858500708E+01  0.82210234402E+02  0.52205732477E+03  0.55604056607E+03  0.17276759992E+03 0.  0.
        -24    2    5    5    0    0  0.25365807357E+01  0.96122042545E+02  0.23265421249E+03  0.26615412417E+03  0.86395335059E+02 0.  0.
          5    1    3    3  501    0 -0.43848225772E+02  0.30647676811E+02  0.17099712045E+03  0.17923183924E+03  0.47000000000E+01 0. -1.
        -13    1    4    4    0    0  0.29423778298E+02 -0.95436514496E+02  0.26371120749E+03  0.28198845364E+03  0.00000000000E+00 0.  1.
         14    1    4    4    0    0  0.19910297545E+02 -0.17421396717E+02  0.23751244100E+02  0.35553433142E+02  0.00000000000E+00 0. -1.
         -5    1    5    5    0  502 -0.80224308065E+01 -0.13911808142E+02  0.28940311228E+03  0.28988644190E+03  0.47000000000E+01 0.  1.
         11    1    6    6    0    0  0.18388785056E+02 -0.45942320929E+01  0.10375864201E+02  0.21608168416E+02  0.00000000000E+00 0. -1.
        -12    1    6    6    0    0 -0.15852204321E+02  0.10071627464E+03  0.22227834829E+03  0.24454595576E+03  0.00000000000E+00 0.  1.
<mgrwt>
<rscale>  2 0.19138360E+03</rscale>
<asrwt>0</asrwt>
<pdfrwt beam="1">  1       21 0.15641007E+00 0.19140862E+03</pdfrwt>
<pdfrwt beam="2">  1       21 0.55613389E-02 0.19140862E+03</pdfrwt>
<totfact> 0.60095912E+04</totfact>
</mgrwt>
</event>
<event>
12    1  0.1013215E-001  0.2513536E+03  0.7546771E-02  0.1112479E+00
         21   -1    0    0  501  502  0.00000000000E+00  0.00000000000E+00  0.32973732256E+03  0.32973732256E+03  0.00000000000E+00 0. -1.
         21   -1    0    0  502  503 -0.00000000000E+00 -0.00000000000E+00 -0.33368849878E+03  0.33368849878E+03  0.00000000000E+00 0.  1.
         -6    2    1    2    0  503 -0.13676498038E+03  0.12023121780E+03 -0.21852761532E+03  0.33293882183E+03  0.17301368394E+03 0.  0.
        -24    2    3    3    0    0 -0.12392280866E+02  0.16042482167E+02 -0.59991365094E+02  0.10604745211E+03  0.85065670827E+02 0.  0.
          6    2    1    2  501    0  0.13676498038E+03 -0.12023121780E+03  0.21457643911E+03  0.33048699951E+03  0.17325819759E+03 0.  0.
         24    2    5    5    0    0  0.34641853691E+02 -0.11145702432E+03  0.16258405973E+03  0.21545910294E+03  0.79789236504E+02 0.  0.
          5    1    5    5  501    0  0.10212312669E+03 -0.87741934767E+01  0.51992379376E+02  0.11502789657E+03  0.47000000000E+01 0. -1.
        -11    1    6    6    0    0  0.18575932835E+02 -0.58525049360E+02  0.23442672974E+02  0.65725228029E+02  0.00000000000E+00 0.  1.
         12    1    6    6    0    0  0.16065920856E+02 -0.52931974965E+02  0.13914138676E+03  0.14973387491E+03  0.00000000000E+00 0. -1.
         -5    1    3    3    0  503 -0.12437269952E+03  0.10418873563E+03 -0.15853625023E+03  0.22689136973E+03  0.47000000000E+01 0.  1.
         11    1    4    4    0    0 -0.23770166092E+02  0.23028595547E+02  0.10172988239E+02  0.34624076863E+02  0.00000000000E+00 0. -1.
        -12    1    4    4    0    0  0.11377885227E+02 -0.69861133799E+01 -0.70164353333E+02  0.71423375242E+02  0.00000000000E+00 0.  1.
<mgrwt>
<rscale>  2 0.25131142E+03</rscale>
<asrwt>0</asrwt>
<pdfrwt beam="1">  1       21 0.50728819E-01 0.25135355E+03</pdfrwt>
<pdfrwt beam="2">  1       21 0.51336692E-01 0.25135355E+03</pdfrwt>
<totfact> 0.12876301E+04</totfact>
</mgrwt>
</event>
<event>
12    1  0.1013215E-001  0.2019755E+03  0.7546771E-02  0.1152120E+00
         21   -1    0    0  503  502  0.00000000000E+00  0.00000000000E+00  0.32369149914E+02  0.32369149914E+02  0.00000000000E+00 0.  1.
         21   -1    0    0  501  503 -0.00000000000E+00 -0.00000000000E+00 -0.15960178998E+04  0.15960178998E+04  0.00000000000E+00 0. -1.
          6    2    1    2  501    0  0.12296106476E+01  0.10443295128E+03 -0.11859985208E+04  0.12001186951E+04  0.15094581061E+03 0.  0.
         24    2    3    3    0    0 -0.29567587848E+02  0.41502828644E+02 -0.40296791752E+03  0.41394588748E+03  0.79820599949E+02 0.  0.
         -6    2    1    2    0  502 -0.12296106476E+01 -0.10443295128E+03 -0.37765022904E+03  0.42826835456E+03  0.17287664611E+03 0.  0.
        -24    2    5    5    0    0  0.54830519868E+02 -0.83378982294E+02 -0.32026548363E+03  0.34519545375E+03  0.81433903800E+02 0.  0.
          5    1    3    3  501    0  0.30797198496E+02  0.62930122640E+02 -0.78303060332E+03  0.78617280767E+03  0.47000000000E+01 0. -1.
        -11    1    4    4    0    0  0.77295984139E+01 -0.20279833075E+02 -0.71929787524E+02  0.75132633752E+02  0.00000000000E+00 0.  1.
         12    1    4    4    0    0 -0.37297186262E+02  0.61782661719E+02 -0.33103812999E+03  0.33881325373E+03  0.00000000000E+00 0. -1.
         -5    1    5    5    0  502 -0.56060130516E+02 -0.21053968989E+02 -0.57384745403E+02  0.83072900808E+02  0.47000000000E+01 0.  1.
         11    1    6    6    0    0  0.39908057202E+02 -0.98643204321E+02 -0.24855368073E+03  0.27037393919E+03  0.00000000000E+00 0. -1.
        -12    1    6    6    0    0  0.14922462666E+02  0.15264222027E+02 -0.71711802900E+02  0.74821514562E+02  0.00000000000E+00 0.  1.
<mgrwt>
<rscale>  2 0.19720387E+03</rscale>
<asrwt>0</asrwt>
<pdfrwt beam="1">  1       21 0.49798688E-02 0.20197546E+03</pdfrwt>
<pdfrwt beam="2">  1       21 0.24554124E+00 0.20197546E+03</pdfrwt>
<totfact> 0.18979386E+04</totfact>
</mgrwt>
</event>
<event>
12    1  0.1013215E-001  0.1766482E+03  0.7546771E-02  0.1171338E+00
         21   -1    0    0  503  502  0.00000000000E+00  0.00000000000E+00  0.63919533956E+02  0.63919533956E+02  0.00000000000E+00 0. -1.
         21   -1    0    0  501  503 -0.00000000000E+00 -0.00000000000E+00 -0.50041354691E+03  0.50041354691E+03  0.00000000000E+00 0. -1.
          6    2    1    2  501    0 -0.53988382831E+01 -0.33691427081E+02 -0.26651672600E+03  0.31918642711E+03  0.17229204943E+03 0.  0.
         24    2    3    3    0    0 -0.57837794295E+02  0.68267757448E+01 -0.21437348959E+03  0.23473184776E+03  0.75836877582E+02 0.  0.
         -6    2    1    2    0  502  0.53988382831E+01  0.33691427081E+02 -0.16997728695E+03  0.24514665376E+03  0.17332150489E+03 0.  0.
        -24    2    5    5    0    0 -0.30074796520E+02  0.39656150890E+02 -0.18388517172E+03  0.20629467884E+03  0.79162077100E+02 0.  0.
          5    1    3    3  501    0  0.52438956012E+02 -0.40518202826E+02 -0.52143236415E+02  0.84454579341E+02  0.47000000000E+01 0. -1.
        -11    1    4    4    0    0 -0.20454761109E+02  0.28148806200E+01 -0.18721743734E+03  0.18835256741E+03  0.00000000000E+00 0.  1.
         12    1    4    4    0    0 -0.37383033187E+02  0.40118951249E+01 -0.27156052245E+02  0.46379280355E+02  0.00000000000E+00 0. -1.
         -5    1    5    5    0  502  0.35473634804E+02 -0.59647238088E+01  0.13907884768E+02  0.38851974918E+02  0.47000000000E+01 0.  1.
         11    1    6    6    0    0 -0.39058135341E+02  0.34993076344E+02 -0.18814251618E+03  0.19531425888E+03  0.00000000000E+00 0. -1.
        -12    1    6    6    0    0  0.89833388203E+01  0.46630745457E+01  0.42573444615E+01  0.10980419958E+02  0.00000000000E+00 0.  1.
<mgrwt>
<rscale>  2 0.17639522E+03</rscale>
<asrwt>0</asrwt>
<pdfrwt beam="1">  1       21 0.98337740E-02 0.17664825E+03</pdfrwt>
<pdfrwt beam="2">  1       21 0.76986703E-01 0.17664825E+03</pdfrwt>
<totfact> 0.12607040E+05</totfact>
</mgrwt>
</event>
<event>
12    1  0.1013215E-001  0.1874418E+03  0.7546771E-02  0.1160952E+00
         21   -1    0    0  501  502  0.00000000000E+00  0.00000000000E+00  0.96197087325E+02  0.96197087325E+02  0.00000000000E+00 0.  1.
         21   -1    0    0  502  503 -0.00000000000E+00 -0.00000000000E+00 -0.85716911955E+03  0.85716911955E+03  0.00000000000E+00 0.  1.
         -6    2    1    2    0  503 -0.68654332991E+02  0.14619134457E+02 -0.74180485276E+03  0.76494700475E+03  0.17303856206E+03 0.  0.
        -24    2    3    3    0    0 -0.20135802052E+02  0.43159706681E+02 -0.21050926639E+03  0.23065710010E+03  0.81365445901E+02 0.  0.
          6    2    1    2  501    0  0.68654332991E+02 -0.14619134457E+02 -0.19167179462E+02  0.18841920213E+03  0.17380241204E+03 0.  0.
         24    2    5    5    0    0  0.76797153506E+02 -0.62185943059E+02  0.15697858691E+02  0.12869845454E+03  0.80944271777E+02 0.  0.
          5    1    5    5  501    0 -0.81428205142E+01  0.47566808602E+02 -0.34865038153E+02  0.59720747583E+02  0.47000000000E+01 0. -1.
        -13    1    6    6    0    0  0.29757086344E+02 -0.37972963422E+02 -0.31650542019E+02  0.57699107002E+02  0.00000000000E+00 0.  1.
         14    1    6    6    0    0  0.47040067161E+02 -0.24212979637E+02  0.47348400710E+02  0.70999347541E+02  0.00000000000E+00 0. -1.
         -5    1    3    3    0  503 -0.48518530940E+02 -0.28540572224E+02 -0.53129558638E+03  0.53428990465E+03  0.47000000000E+01 0.  1.
         13    1    4    4    0    0 -0.29520202866E+02  0.18340995732E+02 -0.23918516111E+02  0.42189215620E+02  0.00000000000E+00 0. -1.
        -14    1    4    4    0    0  0.93844008143E+01  0.24818710949E+02 -0.18659075028E+03  0.18846788448E+03  0.00000000000E+00 0.  1.
<mgrwt>
<rscale>  2 0.18726450E+03</rscale>
<asrwt>0</asrwt>
<pdfrwt beam="1">  1       21 0.14799551E-01 0.18744176E+03</pdfrwt>
<pdfrwt beam="2">  1       21 0.13187218E+00 0.18744176E+03</pdfrwt>
<totfact> 0.16818621E+04</totfact>
</mgrwt>
</event>
<event>
12    1  0.1013215E-001  0.2049853E+03  0.7546771E-02  0.1145688E+00
         21   -1    0    0  503  502  0.00000000000E+00  0.00000000000E+00  0.91941028615E+02  0.91941028615E+02  0.00000000000E+00 0.  1.
         21   -1    0    0  501  503 -0.00000000000E+00 -0.00000000000E+00 -0.62079021842E+03  0.62079021842E+03  0.00000000000E+00 0. -1.
          6    2    1    2  501    0 -0.83650969464E+02  0.68126737242E+02 -0.44779411407E+03  0.49230239128E+03  0.17379107817E+03 0.  0.
         24    2    3    3    0    0 -0.65077275914E+02  0.28690230278E+02 -0.43279820801E+03  0.44596463808E+03  0.80696892159E+02 0.  0.
         -6    2    1    2    0  502  0.83650969464E+02 -0.68126737242E+02 -0.81055075738E+02  0.22042885575E+03  0.17429922009E+03 0.  0.
        -24    2    5    5    0    0  0.50963380712E+02 -0.23244506033E+02  0.23465704680E+02  0.10198234176E+03  0.81927928701E+02 0.  0.
          5    1    3    3  501    0 -0.18573693550E+02  0.39436506964E+02 -0.14995906053E+02  0.46337753203E+02  0.47000000000E+01 0. -1.
        -11    1    4    4    0    0 -0.34095159675E+02  0.58816587200E+01 -0.47577973577E+02  0.58828032368E+02  0.00000000000E+00 0.  1.
         12    1    4    4    0    0 -0.30982116239E+02  0.22808571558E+02 -0.38522023444E+03  0.38713660571E+03  0.00000000000E+00 0. -1.
         -5    1    5    5    0  502  0.32687588751E+02 -0.44882231209E+02 -0.10452078042E+03  0.11844651399E+03  0.47000000000E+01 0.  1.
         11    1    6    6    0    0  0.11632381289E+02 -0.39203474943E+02 -0.16107504230E+02  0.43950841113E+02  0.00000000000E+00 0. -1.
        -12    1    6    6    0    0  0.39330999424E+02  0.15958968910E+02  0.39573208910E+02  0.58031500651E+02  0.00000000000E+00 0.  1.
<mgrwt>
<rscale>  2 0.20487720E+03</rscale>
<asrwt>0</asrwt>
<pdfrwt beam="1">  1       21 0.14144774E-01 0.20498526E+03</pdfrwt>
<pdfrwt beam="2">  1       21 0.95506186E-01 0.20498526E+03</pdfrwt>
<totfact> 0.39665489E+04</totfact>
</mgrwt>
</event>
<event>
12    1  0.1013215E-001  0.2068196E+03  0.7546771E-02  0.1144488E+00
         21   -1    0    0  503  502  0.00000000000E+00  0.00000000000E+00  0.58542200107E+02  0.58542200107E+02  0.00000000000E+00 0. -1.
         21   -1    0    0  501  503 -0.00000000000E+00 -0.00000000000E+00 -0.78040524135E+03  0.78040524135E+03  0.00000000000E+00 0. -1.
          6    2    1    2  501    0 -0.79893746952E+02  0.80477005963E+02 -0.47209565326E+03  0.51466657848E+03  0.17072733198E+03 0.  0.
         24    2    3    3    0    0 -0.92774570926E+02  0.72312157018E+02 -0.47695550207E+03  0.49798459673E+03  0.81645199292E+02 0.  0.
         -6    2    1    2    0  502  0.79893746952E+02 -0.80477005963E+02 -0.24976738799E+03  0.32428086298E+03  0.17295886998E+03 0.  0.
        -24    2    5    5    0    0  0.10866492685E+03 -0.75519259023E+02 -0.13130056997E+03  0.20217911435E+03  0.78264486168E+02 0.  0.
          5    1    3    3  501    0  0.12880823974E+02  0.81648489447E+01  0.48598488069E+01  0.16681981746E+02  0.47000000000E+01 0. -1.
        -13    1    4    4    0    0  0.54727534405E+01  0.16902534837E+02 -0.17693258188E+02  0.25073852904E+02  0.00000000000E+00 0.  1.
         14    1    4    4    0    0 -0.98247324366E+02  0.55409622181E+02 -0.45926224388E+03  0.47291074383E+03  0.00000000000E+00 0. -1.
         -5    1    5    5    0  502 -0.28771179898E+02 -0.49577469401E+01 -0.11846681802E+03  0.12210174863E+03  0.47000000000E+01 0.  1.
         13    1    6    6    0    0  0.57753340948E+02 -0.81804235843E+02 -0.69649369198E+02  0.12197711270E+03  0.00000000000E+00 0. -1.
        -14    1    6    6    0    0  0.50911585902E+02  0.62849768207E+01 -0.61651200769E+02  0.80202001652E+02  0.00000000000E+00 0.  1.
<mgrwt>
<rscale>  2 0.20635234E+03</rscale>
<asrwt>0</asrwt>
<pdfrwt beam="1">  1       21 0.90064928E-02 0.20681956E+03</pdfrwt>
<pdfrwt beam="2">  1       21 0.12006234E+00 0.20681956E+03</pdfrwt>
<totfact> 0.51072304E+04</totfact>
</mgrwt>
</event>
<event>
12    1  0.1013215E-001  0.2974073E+03  0.7546771E-02  0.1086562E+00
         21   -1    0    0  501  502  0.00000000000E+00  0.00000000000E+00  0.35002854011E+03  0.35002854011E+03  0.00000000000E+00 0. -1.
         21   -1    0    0  502  503 -0.00000000000E+00 -0.00000000000E+00 -0.26074505616E+03  0.26074505616E+03  0.00000000000E+00 0.  1.
         -6    2    1    2    0  503 -0.23471023285E+03 -0.57585875241E+02 -0.94030169190E+01  0.29755589964E+03  0.17333802309E+03 0.  0.
        -24    2    3    3    0    0 -0.59806568727E+02 -0.49344514018E+01  0.36595302776E+02  0.10913774878E+03  0.83490463828E+02 0.  0.
          6    2    1    2  501    0  0.23471023285E+03  0.57585875241E+02  0.98686500871E+02  0.31321769663E+03  0.17309325116E+03 0.  0.
         24    2    5    5    0    0  0.30397351767E+02  0.86521675208E+01  0.22129167294E+02  0.89563104786E+02  0.80826918143E+02 0.  0.
          5    1    5    5  501    0  0.20431288109E+03  0.48933707720E+02  0.76557333577E+02  0.22365459185E+03  0.47000000000E+01 0. -1.
        -13    1    6    6    0    0 -0.13155538442E+02 -0.21105435339E+02 -0.11085576108E+02  0.27228617118E+02  0.00000000000E+00 0.  1.
         14    1    6    6    0    0  0.43552890209E+02  0.29757602860E+02  0.33214743402E+02  0.62334487668E+02  0.00000000000E+00 0. -1.
         -5    1    3    3    0  503 -0.17490366413E+03 -0.52651423839E+02 -0.45998319695E+02  0.18841815086E+03  0.47000000000E+01 0.  1.
         11    1    4    4    0    0 -0.30658615238E+02  0.23830351151E+01  0.62374828809E+02  0.69543143542E+02  0.00000000000E+00 0. -1.
        -12    1    4    4    0    0 -0.29147953489E+02 -0.73174865169E+01 -0.25779526034E+02  0.39594605239E+02  0.00000000000E+00 0.  1.
<mgrwt>
<rscale>  2 0.29737164E+03</rscale>
<asrwt>0</asrwt>
<pdfrwt beam="1">  1       21 0.53850545E-01 0.29740729E+03</pdfrwt>
<pdfrwt beam="2">  1       21 0.40114624E-01 0.29740729E+03</pdfrwt>
<totfact> 0.18530009E+04</totfact>
</mgrwt>
</event>
<event>
12    1  0.1013215E-001  0.2127592E+03  0.7546771E-02  0.1139422E+00
         21   -1    0    0  503  502  0.00000000000E+00  0.00000000000E+00  0.22067802370E+03  0.22067802370E+03  0.00000000000E+00 0.  1.
         21   -1    0    0  501  503 -0.00000000000E+00 -0.00000000000E+00 -0.23838553003E+03  0.23838553003E+03  0.00000000000E+00 0.  1.
          6    2    1    2  501    0 -0.11315693847E+03 -0.50652349283E+02 -0.94732359555E+02  0.23279093116E+03  0.17276355076E+03 0.  0.
         24    2    3    3    0    0 -0.95064102657E+02 -0.92216261802E+02 -0.10347451988E+03  0.18638592175E+03  0.80571167335E+02 0.  0.
         -6    2    1    2    0  502  0.11315693847E+03  0.50652349283E+02  0.77024853231E+02  0.22627262257E+03  0.17290551898E+03 0.  0.
        -24    2    5    5    0    0  0.12924477999E+03 -0.72395312140E+01  0.48709551848E+02  0.15968332339E+03  0.79809268637E+02 0.  0.
          5    1    3    3  501    0 -0.18092835818E+02  0.41563912519E+02  0.87421603261E+01  0.46405009417E+02  0.47000000000E+01 0. -1.
        -11    1    4    4    0    0  0.13981134464E+02 -0.42848856357E+01 -0.64352429458E+01  0.15976379990E+02  0.00000000000E+00 0.  1.
         12    1    4    4    0    0 -0.10904523712E+03 -0.87931376166E+02 -0.97039276935E+02  0.17040954176E+03  0.00000000000E+00 0. -1.
         -5    1    5    5    0  502 -0.16087841519E+02  0.57891880497E+02  0.28315301383E+02  0.66589299175E+02  0.47000000000E+01 0.  1.
         11    1    6    6    0    0 -0.74790211476E+01 -0.10371386545E+02 -0.35635113968E+01  0.13274035922E+02  0.00000000000E+00 0. -1.
        -12    1    6    6    0    0  0.13672380114E+03  0.31318553306E+01  0.52273063245E+02  0.14640928747E+03  0.00000000000E+00 0.  1.
<mgrwt>
<rscale>  2 0.21273034E+03</rscale>
<asrwt>0</asrwt>
<pdfrwt beam="1">  1       21 0.33950465E-01 0.21275919E+03</pdfrwt>
<pdfrwt beam="2">  1       21 0.36674697E-01 0.21275919E+03</pdfrwt>
<totfact> 0.59382686E+04</totfact>
</mgrwt>
</event>
<event>
12    1  0.1013215E-001  0.2474462E+03  0.7546771E-02  0.1115039E+00
         21   -1    0    0  503  502  0.00000000000E+00  0.00000000000E+00  0.16576424950E+03  0.16576424950E+03  0.00000000000E+00 0. -1.
         21   -1    0    0  501  503 -0.00000000000E+00 -0.00000000000E+00 -0.45912243104E+03  0.45912243104E+03  0.00000000000E+00 0.  1.
          6    2    1    2  501    0 -0.92273477086E+02 -0.15036809141E+03 -0.28543685675E+03  0.37731374446E+03  0.17252972231E+03 0.  0.
         24    2    3    3    0    0 -0.83996357462E+02 -0.15580346463E+03 -0.30028479830E+03  0.35885824773E+03  0.85312216116E+02 0.  0.
         -6    2    1    2    0  502  0.92273477086E+02  0.15036809141E+03 -0.79213247872E+01  0.24757293607E+03  0.17350692724E+03 0.  0.
        -24    2    5    5    0    0  0.32038476573E+02  0.15675566952E+03 -0.32682493462E+02  0.18196606208E+03  0.80278879316E+02 0.  0.
          5    1    3    3  501    0 -0.82771196238E+01  0.54353732121E+01  0.14847941553E+02  0.18455496731E+02  0.47000000000E+01 0. -1.
        -11    1    4    4    0    0 -0.67023001099E+02 -0.74565766289E+02 -0.97954710123E+02  0.14016868913E+03  0.00000000000E+00 0.  1.
         12    1    4    4    0    0 -0.16973356363E+02 -0.81237698338E+02 -0.20233008818E+03  0.21868955860E+03  0.00000000000E+00 0. -1.
         -5    1    5    5    0  502  0.60235000513E+02 -0.63875781010E+01  0.24761168675E+02  0.65606873992E+02  0.47000000000E+01 0.  1.
         13    1    6    6    0    0  0.35229581029E+02  0.18696512720E+02  0.71172626965E+00  0.39889716991E+02  0.00000000000E+00 0. -1.
        -14    1    6    6    0    0 -0.31911044560E+01  0.13805915680E+03 -0.33394219732E+02  0.14207634509E+03  0.00000000000E+00 0.  1.
<mgrwt>
<rscale>  2 0.24727495E+03</rscale>
<asrwt>0</asrwt>
<pdfrwt beam="1">  1       21 0.25502192E-01 0.24744618E+03</pdfrwt>
<pdfrwt beam="2">  1       21 0.70634220E-01 0.24744618E+03</pdfrwt>
<totfact> 0.25735628E+04</totfact>
</mgrwt>
</event>
<event>
12    1  0.1013215E-001  0.2628292E+03  0.7546771E-02  0.1105643E+00
         21   -1    0    0  503  502  0.00000000000E+00  0.00000000000E+00  0.46610893912E+03  0.46610893912E+03  0.00000000000E+00 0.  1.
         21   -1    0    0  501  503 -0.00000000000E+00 -0.00000000000E+00 -0.10160261827E+04  0.10160261827E+04  0.00000000000E+00 0. -1.
          6    2    1    2  501    0  0.13880931095E+03 -0.13774994135E+03 -0.96003245027E+03  0.99502765677E+03  0.17370855194E+03 0.  0.
         24    2    3    3    0    0  0.75590657531E+02 -0.77808937675E+02 -0.29767910209E+03  0.32695313255E+03  0.80729949691E+02 0.  0.
         -6    2    1    2    0  502 -0.13880931095E+03  0.13774994135E+03  0.41011520668E+03  0.48710746506E+03  0.17560218853E+03 0.  0.
        -24    2    5    5    0    0 -0.13886216232E+02  0.42784708735E+02  0.23335009250E+03  0.25069221472E+03  0.79818309615E+02 0.  0.
          5    1    3    3  501    0  0.63218653424E+02 -0.59941003679E+02 -0.66235334818E+03  0.66807452422E+03  0.47000000000E+01 0. -1.
        -13    1    4    4    0    0 -0.73323144289E+01 -0.35102378518E+02 -0.13240727641E+03  0.13717735476E+03  0.00000000000E+00 0.  1.
         14    1    4    4    0    0  0.82922971959E+02 -0.42706559157E+02 -0.16527182568E+03  0.18977577779E+03  0.00000000000E+00 0. -1.
         -5    1    5    5    0  502 -0.12492309472E+03  0.94965232619E+02  0.17676511418E+03  0.23641525033E+03  0.47000000000E+01 0.  1.
         11    1    6    6    0    0  0.73432507407E+00  0.13303711330E+00 -0.65497420980E+01  0.65921205798E+01  0.00000000000E+00 0. -1.
        -12    1    6    6    0    0 -0.14620541306E+02  0.42651671622E+02  0.23989983460E+03  0.24410009414E+03  0.00000000000E+00 0.  1.
<mgrwt>
<rscale>  2 0.26251331E+03</rscale>
<asrwt>0</asrwt>
<pdfrwt beam="1">  1       21 0.71709068E-01 0.26282922E+03</pdfrwt>
<pdfrwt beam="2">  1       21 0.15631172E+00 0.26282922E+03</pdfrwt>
<totfact> 0.43868344E+02</totfact>
</mgrwt>
</event>
<event>
12    1  0.1013215E-001  0.1767809E+03  0.7546771E-02  0.1171378E+00
         21   -1    0    0  501  502  0.00000000000E+00  0.00000000000E+00  0.23332849751E+02  0.23332849751E+02  0.00000000000E+00 0. -1.
         21   -1    0    0  502  503 -0.00000000000E+00 -0.00000000000E+00 -0.16792018780E+04  0.16792018780E+04  0.00000000000E+00 0. -1.
         -6    2    1    2    0  503 -0.37892289662E+02  0.11065203107E+02 -0.12212048285E+04  0.12339338459E+04  0.17231726086E+03 0.  0.
        -24    2    3    3    0    0  0.21050100097E+02  0.41204572634E+02 -0.96110047598E+03  0.96549586210E+03  0.79543769650E+02 0.  0.
          6    2    1    2  501    0  0.37892289662E+02 -0.11065203107E+02 -0.43466419972E+03  0.46860088190E+03  0.17057419400E+03 0.  0.
         24    2    5    5    0    0  0.21020102338E+02  0.50043843136E+02 -0.32849805672E+03  0.34485789762E+03  0.89831872658E+02 0.  0.
          5    1    5    5  501    0  0.16872187325E+02 -0.61109046243E+02 -0.10616614300E+03  0.12374298428E+03  0.47000000000E+01 0. -1.
        -13    1    6    6    0    0  0.24794018449E+01  0.69755394158E+02 -0.16531733295E+03  0.17944855257E+03  0.00000000000E+00 0.  1.
         14    1    6    6    0    0  0.18540700493E+02 -0.19711551022E+02 -0.16318072378E+03  0.16540934505E+03  0.00000000000E+00 0. -1.
         -5    1    3    3    0  503 -0.58942389759E+02 -0.30139369527E+02 -0.26010435256E+03  0.26843798377E+03  0.47000000000E+01 0.  1.
         11    1    4    4    0    0 -0.40557628341E+01  0.48854361657E+02 -0.30874568014E+03  0.31261332804E+03  0.00000000000E+00 0. -1.
        -12    1    4    4    0    0  0.25105862931E+02 -0.76497890237E+01 -0.65235479584E+03  0.65288253406E+03  0.00000000000E+00 0.  1.
<mgrwt>
<rscale>  2 0.17635475E+03</rscale>
<asrwt>0</asrwt>
<pdfrwt beam="1">  1       21 0.35896694E-02 0.17678095E+03</pdfrwt>
<pdfrwt beam="2">  1       21 0.25833873E+00 0.17678095E+03</pdfrwt>
<totfact> 0.28296487E+04</totfact>
</mgrwt>
</event>
<event>
12    1  0.1013215E-001  0.1976525E+03  0.7546771E-02  0.1155755E+00
         21   -1    0    0  503  502  0.00000000000E+00  0.00000000000E+00  0.42645725431E+03  0.42645725431E+03  0.00000000000E+00 0. -1.
         21   -1    0    0  501  503 -0.00000000000E+00 -0.00000000000E+00 -0.91261846212E+02  0.91261846212E+02  0.00000000000E+00 0.  1.
          6    2    1    2  501    0 -0.98329072132E+00 -0.48848283250E+02  0.85040523164E+02  0.19890258639E+03  0.17304111262E+03 0.  0.
         24    2    3    3    0    0 -0.20432703926E+02 -0.87527085602E+02  0.95700195049E+02  0.15406902720E+03  0.80624138481E+02 0.  0.
         -6    2    1    2    0  502  0.98329072132E+00  0.48848283250E+02  0.25015488494E+03  0.31881651413E+03  0.19151861943E+03 0.  0.
        -24    2    5    5    0    0 -0.32200364929E+01 -0.89557460476E+01  0.24756644460E+03  0.26061201443E+03  0.80863487123E+02 0.  0.
          5    1    3    3  501    0  0.19449413204E+02  0.38678802351E+02 -0.10659671885E+02  0.44833559194E+02  0.47000000000E+01 0. -1.
        -11    1    4    4    0    0  0.19498680435E+02  0.16641600412E+01  0.31701975217E+02  0.37255646553E+02  0.00000000000E+00 0.  1.
         12    1    4    4    0    0 -0.39931384361E+02 -0.89191245643E+02  0.63998219832E+02  0.11681338065E+03  0.00000000000E+00 0. -1.
         -5    1    5    5    0  502  0.42033272142E+01  0.57804029298E+02  0.25884403391E+01  0.58204499707E+02  0.47000000000E+01 0.  1.
         13    1    6    6    0    0  0.16495150708E+02  0.94164525341E+01  0.22402570856E+03  0.22482944129E+03  0.00000000000E+00 0. -1.
        -14    1    6    6    0    0 -0.19715187201E+02 -0.18372198582E+02  0.23540736044E+02  0.35782573141E+02  0.00000000000E+00 0.  1.
<mgrwt>
<rscale>  2 0.19303142E+03</rscale>
<asrwt>0</asrwt>
<pdfrwt beam="1">  1       21 0.65608807E-01 0.19765248E+03</pdfrwt>
<pdfrwt beam="2">  1       21 0.14040284E-01 0.19765248E+03</pdfrwt>
<totfact> 0.94272624E+04</totfact>
</mgrwt>
</event>
<event>
12    1  0.1013215E-001  0.2174277E+03  0.7546771E-02  0.1135951E+00
         21   -1    0    0  503  502  0.00000000000E+00  0.00000000000E+00  0.77300633143E+02  0.77300633143E+02  0.00000000000E+00 0. -1.
         21   -1    0    0  501  503 -0.00000000000E+00 -0.00000000000E+00 -0.69622457607E+03  0.69622457607E+03  0.00000000000E+00 0. -1.
          6    2    1    2  501    0  0.15087360103E+02  0.13138256459E+03 -0.44636168091E+03  0.49650129314E+03  0.17258556484E+03 0.  0.
         24    2    3    3    0    0  0.37685935371E+02  0.12367774831E+03 -0.24115658743E+03  0.28985841233E+03  0.95629411738E+02 0.  0.
         -6    2    1    2    0  502 -0.15087360103E+02 -0.13138256459E+03 -0.17256226202E+03  0.27702391607E+03  0.17168432977E+03 0.  0.
        -24    2    5    5    0    0 -0.41193790809E+02 -0.38286778291E+02 -0.23627290846E+02  0.99394845283E+02  0.78474713143E+02 0.  0.
          5    1    3    3  501    0 -0.22598575268E+02  0.77048162890E+01 -0.20520509349E+03  0.20664288081E+03  0.47000000000E+01 0. -1.
        -13    1    4    4    0    0 -0.29215835236E+02  0.34539483716E+02 -0.42485310795E+02  0.62060797588E+02  0.00000000000E+00 0.  1.
         14    1    4    4    0    0  0.66901770607E+02  0.89138264589E+02 -0.19867127663E+03  0.22779761474E+03  0.00000000000E+00 0. -1.
         -5    1    5    5    0  502  0.26106430706E+02 -0.93095786303E+02 -0.14893497117E+03  0.17762907079E+03  0.47000000000E+01 0.  1.
         13    1    6    6    0    0 -0.61774888616E+02 -0.39102148590E+02 -0.28087882064E+02  0.78320137938E+02  0.00000000000E+00 0. -1.
        -14    1    6    6    0    0  0.20581097807E+02  0.81537029912E+00  0.44605912174E+01  0.21074707344E+02  0.00000000000E+00 0.  1.
<mgrwt>
<rscale>  2 0.21724876E+03</rscale>
<asrwt>0</asrwt>
<pdfrwt beam="1">  1       21 0.11892405E-01 0.21742765E+03</pdfrwt>
<pdfrwt beam="2">  1       21 0.10711147E+00 0.21742765E+03</pdfrwt>
<totfact> 0.40991527E+04</totfact>
</mgrwt>
</event>
<event>
12    1  0.1013215E-001  0.1806094E+03  0.7546771E-02  0.1167408E+00
         21   -1    0    0  503  502  0.00000000000E+00  0.00000000000E+00  0.81983178367E+02  0.81983178367E+02  0.00000000000E+00 0. -1.
         21   -1    0    0  501  503 -0.00000000000E+00 -0.00000000000E+00 -0.40762706693E+03  0.40762706693E+03  0.00000000000E+00 0. -1.
          6    2    1    2  501    0 -0.32265521193E+02  0.40312461628E+02 -0.20429618196E+03  0.27268423416E+03  0.17307109284E+03 0.  0.
         24    2    3    3    0    0 -0.82979217709E+02  0.48900662589E+02 -0.16697390382E+03  0.20896077964E+03  0.80669061591E+02 0.  0.
         -6    2    1    2    0  502  0.32265521193E+02 -0.40312461628E+02 -0.12134770661E+03  0.21692601114E+03  0.17223666854E+03 0.  0.
        -24    2    5    5    0    0 -0.39866365196E+02 -0.21918639543E+02 -0.10700776224E+03  0.14097164504E+03  0.79703134778E+02 0.  0.
          5    1    3    3  501    0  0.50713696516E+02 -0.85882009617E+01 -0.37322278133E+02  0.63723454513E+02  0.47000000000E+01 0. -1.
        -13    1    4    4    0    0 -0.11312559594E+02 -0.14581534805E+02 -0.71151027979E+02  0.73505536828E+02  0.00000000000E+00 0.  1.
         14    1    4    4    0    0 -0.71666658115E+02  0.63482197394E+02 -0.95822875846E+02  0.13545524282E+03  0.00000000000E+00 0. -1.
         -5    1    5    5    0  502  0.72131886389E+02 -0.18393822085E+02 -0.14339944369E+02  0.75954366099E+02  0.47000000000E+01 0.  1.
         13    1    6    6    0    0 -0.33572649190E+00 -0.44159430813E+02 -0.37295732168E+02  0.57802592329E+02  0.00000000000E+00 0. -1.
        -14    1    6    6    0    0 -0.39530638704E+02  0.22240791270E+02 -0.69712030072E+02  0.83169052715E+02  0.00000000000E+00 0.  1.
<mgrwt>
<rscale>  2 0.18040922E+03</rscale>
<asrwt>0</asrwt>
<pdfrwt beam="1">  1       21 0.12612797E-01 0.18060942E+03</pdfrwt>
<pdfrwt beam="2">  1       21 0.62711857E-01 0.18060942E+03</pdfrwt>
<totfact> 0.12697180E+05</totfact>
</mgrwt>
</event>
<event>
12    1  0.1013215E-001  0.1828748E+03  0.7546771E-02  0.1165196E+00
         21   -1    0    0  503  502  0.00000000000E+00  0.00000000000E+00  0.13935125041E+03  0.13935125041E+03  0.00000000000E+00 0.  1.
         21   -1    0    0  501  503 -0.00000000000E+00 -0.00000000000E+00 -0.24075275469E+03  0.24075275469E+03  0.00000000000E+00 0.  1.
          6    2    1    2  501    0 -0.41898723161E+02  0.38680346350E+02 -0.35260775495E+02  0.18563602150E+03  0.17310614661E+03 0.  0.
         24    2    3    3    0    0 -0.85544368981E+02  0.44681209281E+02  0.55372602449E+01  0.12540710423E+03  0.79887614898E+02 0.  0.
         -6    2    1    2    0  502  0.41898723161E+02 -0.38680346350E+02 -0.66140728791E+02  0.19446798360E+03  0.17375709609E+03 0.  0.
        -24    2    5    5    0    0  0.73485004999E+02  0.11477750791E+02 -0.76748198346E+02  0.13406817963E+03  0.80945698564E+02 0.  0.
          5    1    3    3  501    0  0.43645645820E+02 -0.60008629313E+01 -0.40798035740E+02  0.60228917267E+02  0.47000000000E+01 0. -1.
        -11    1    4    4    0    0 -0.13807183779E+02  0.10429360926E+02  0.36263985329E+02  0.40180673528E+02  0.00000000000E+00 0.  1.
         12    1    4    4    0    0 -0.71737185202E+02  0.34251848355E+02 -0.30726725084E+02  0.85226430706E+02  0.00000000000E+00 0. -1.
         -5    1    5    5    0  502 -0.31586281838E+02 -0.50158097141E+02  0.10607469555E+02  0.60399803969E+02  0.47000000000E+01 0.  1.
         13    1    6    6    0    0 -0.14870469682E+02 -0.45351206540E+01 -0.27665127204E+02  0.31734168512E+02  0.00000000000E+00 0. -1.
        -14    1    6    6    0    0  0.88355474682E+02  0.16012871445E+02 -0.49083071142E+02  0.10233401111E+03  0.00000000000E+00 0.  1.
<mgrwt>
<rscale>  2 0.18272003E+03</rscale>
<asrwt>0</asrwt>
<pdfrwt beam="1">  1       21 0.21438654E-01 0.18287482E+03</pdfrwt>
<pdfrwt beam="2">  1       21 0.37038885E-01 0.18287482E+03</pdfrwt>
<totfact> 0.14292522E+05</totfact>
</mgrwt>
</event>
<event>
12    1  0.1013215E-001  0.1849977E+03  0.7546771E-02  0.1163073E+00
         21   -1    0    0  501  502  0.00000000000E+00  0.00000000000E+00  0.59485885612E+03  0.59485885612E+03  0.00000000000E+00 0.  1.
         21   -1    0    0  502  503 -0.00000000000E+00 -0.00000000000E+00 -0.78254948207E+02  0.78254948207E+02  0.00000000000E+00 0.  1.
         -6    2    1    2    0  503  0.62589224320E+02 -0.14085647389E+02  0.85044740589E+02  0.20360929616E+03  0.17351749514E+03 0.  0.
        -24    2    3    3    0    0 -0.39886582803E+01  0.38008092157E+02  0.86549276189E+01  0.89574802800E+02  0.80549444817E+02 0.  0.
          6    2    1    2  501    0 -0.62589224320E+02  0.14085647389E+02  0.43155916733E+03  0.46950450817E+03  0.17342246631E+03 0.  0.
         24    2    5    5    0    0 -0.27610796967E+02 -0.52442459238E+02  0.29565623008E+03  0.31413019335E+03  0.88048874783E+02 0.  0.
          5    1    5    5  501    0 -0.34978427353E+02  0.66528106627E+02  0.13590293725E+03  0.15537431482E+03  0.47000000000E+01 0. -1.
        -13    1    6    6    0    0  0.23847199567E+02 -0.12368826729E+02  0.28654412250E+02  0.39277883640E+02  0.00000000000E+00 0.  1.
         14    1    6    6    0    0 -0.51457996534E+02 -0.40073632510E+02  0.26700181783E+03  0.27485230971E+03  0.00000000000E+00 0. -1.
         -5    1    3    3    0  503  0.66577882600E+02 -0.52093739545E+02  0.76389812970E+02  0.11403449336E+03  0.47000000000E+01 0.  1.
         11    1    4    4    0    0  0.30026508717E+01  0.56394886080E+02  0.27071632342E+02  0.62628047757E+02  0.00000000000E+00 0. -1.
        -12    1    4    4    0    0 -0.69913091520E+01 -0.18386793923E+02 -0.18416704723E+02  0.26946755042E+02  0.00000000000E+00 0.  1.
<mgrwt>
<rscale>  2 0.18497538E+03</rscale>
<asrwt>0</asrwt>
<pdfrwt beam="1">  1       21 0.91516744E-01 0.18499767E+03</pdfrwt>
<pdfrwt beam="2">  1       21 0.12039223E-01 0.18499767E+03</pdfrwt>
<totfact> 0.59173366E+04</totfact>
</mgrwt>
</event>
<event>
12    1  0.1013215E-001  0.1782615E+03  0.7546771E-02  0.1170440E+00
         21   -1    0    0  501  502  0.00000000000E+00  0.00000000000E+00  0.26717232653E+03  0.26717232653E+03  0.00000000000E+00 0.  1.
         21   -1    0    0  502  503 -0.00000000000E+00 -0.00000000000E+00 -0.30012355121E+03  0.30012355121E+03  0.00000000000E+00 0.  1.
         -6    2    1    2    0  503 -0.21096145680E+02 -0.30124060075E+02 -0.23832262117E+03  0.29534996199E+03  0.17053275910E+03 0.  0.
        -24    2    3    3    0    0  0.33425336304E+02  0.26965085520E+02 -0.16041541692E+03  0.18433921919E+03  0.80021702060E+02 0.  0.
          6    2    1    2  501    0  0.21096145680E+02  0.30124060075E+02  0.20537139648E+03  0.27194591575E+03  0.17442667297E+03 0.  0.
         24    2    5    5    0    0  0.32409948928E+02  0.20272469677E+02  0.28366656192E+02  0.94244413051E+02  0.81338578741E+02 0.  0.
          5    1    5    5  501    0 -0.11313803247E+02  0.98515903983E+01  0.17700474029E+03  0.17770150270E+03  0.47000000000E+01 0. -1.
        -13    1    6    6    0    0  0.49961894565E+02 -0.10114214003E+02  0.29939884535E+02  0.59117551704E+02  0.00000000000E+00 0.  1.
         14    1    6    6    0    0 -0.17551945637E+02  0.30386683680E+02 -0.15732283430E+01  0.35126861348E+02  0.00000000000E+00 0. -1.
         -5    1    3    3    0  503 -0.54521481985E+02 -0.57089145595E+02 -0.77907204251E+02  0.11101074280E+03  0.47000000000E+01 0.  1.
         13    1    4    4    0    0 -0.39152320565E+01  0.32117443237E+02 -0.18011096629E+02  0.37030511796E+02  0.00000000000E+00 0. -1.
        -14    1    4    4    0    0  0.37340568361E+02 -0.51523577164E+01 -0.14240432029E+03  0.14730870739E+03  0.00000000000E+00 0.  1.
<mgrwt>
<rscale>  2 0.17730173E+03</rscale>
<asrwt>0</asrwt>
<pdfrwt beam="1">  1       21 0.41103435E-01 0.17826152E+03</pdfrwt>
<pdfrwt beam="2">  1       21 0.46172854E-01 0.17826152E+03</pdfrwt>
<totfact> 0.25829031E+04</totfact>
</mgrwt>
</event>
<event>
12    1  0.1013215E-001  0.4467001E+03  0.7546771E-02  0.1028721E+00
         21   -1    0    0  501  502  0.00000000000E+00  0.00000000000E+00  0.11094972122E+04  0.11094972122E+04  0.00000000000E+00 0.  1.
         21   -1    0    0  502  503 -0.00000000000E+00 -0.00000000000E+00 -0.28819343993E+03  0.28819343993E+03  0.00000000000E+00 0.  1.
         -6    2    1    2    0  503  0.41159584136E+03 -0.18643067300E+02 -0.17994067346E+02  0.44692154914E+03  0.17221029017E+03 0.  0.
        -24    2    3    3    0    0  0.10477960244E+03  0.13119928022E+02  0.27421255012E+02  0.13510472175E+03  0.79689792405E+02 0.  0.
          6    2    1    2  501    0 -0.41159584136E+03  0.18643067300E+02  0.83929783966E+03  0.95076910302E+03  0.17257555744E+03 0.  0.
         24    2    5    5    0    0 -0.10020439590E+03 -0.24795749765E+02  0.21104600650E+03  0.24822087051E+03  0.80108885499E+02 0.  0.
          5    1    5    5  501    0 -0.31139144547E+03  0.43438817065E+02  0.62825183316E+03  0.70254823251E+03  0.47000000000E+01 0. -1.
        -13    1    6    6    0    0 -0.97912624026E+02 -0.25231974055E+02  0.21831162451E+03  0.24058989973E+03  0.00000000000E+00 0.  1.
         14    1    6    6    0    0 -0.22917718709E+01  0.43622429013E+00 -0.72656180111E+01  0.76309707785E+01  0.00000000000E+00 0. -1.
         -5    1    3    3    0  503  0.30681623893E+03 -0.31762995322E+02 -0.45415322358E+02  0.31181682739E+03  0.47000000000E+01 0.  1.
         11    1    4    4    0    0  0.11328661735E+03  0.26308434919E+02  0.21174975008E+02  0.11821324369E+03  0.00000000000E+00 0. -1.
        -12    1    4    4    0    0 -0.85070149123E+01 -0.13188506896E+02  0.62462800044E+01  0.16891478051E+02  0.00000000000E+00 0.  1.
<mgrwt>
<rscale>  2 0.44666490E+03</rscale>
<asrwt>0</asrwt>
<pdfrwt beam="1">  1       21 0.17069188E+00 0.44670015E+03</pdfrwt>
<pdfrwt beam="2">  1       21 0.44337453E-01 0.44670015E+03</pdfrwt>
<totfact> 0.86559858E+02</totfact>
</mgrwt>
</event>
<event>
12    1  0.1013215E-001  0.1950588E+03  0.7546771E-02  0.1154763E+00
         21   -1    0    0  503  502  0.00000000000E+00  0.00000000000E+00  0.59554140413E+03  0.59554140413E+03  0.00000000000E+00 0.  1.
         21   -1    0    0  501  503 -0.00000000000E+00 -0.00000000000E+00 -0.88139601425E+02  0.88139601425E+02  0.00000000000E+00 0. -1.
          6    2    1    2  501    0 -0.47288005093E+02 -0.70486237589E+02  0.68465223574E+02  0.20335480701E+03  0.17164272656E+03 0.  0.
         24    2    3    3    0    0 -0.63615766069E+02 -0.17080437461E+02 -0.11195165523E+02  0.10595540836E+03  0.82234480566E+02 0.  0.
         -6    2    1    2    0  502  0.47288005093E+02  0.70486237589E+02  0.43893657913E+03  0.48032619854E+03  0.17562309470E+03 0.  0.
        -24    2    5    5    0    0  0.83300723688E+02  0.26399367249E+00  0.26438117145E+03  0.28870219224E+03  0.80699886786E+02 0.  0.
          5    1    3    3  501    0  0.16327760977E+02 -0.53405800128E+02  0.79660389097E+02  0.97399398647E+02  0.47000000000E+01 0. -1.
        -13    1    4    4    0    0  0.81958893809E+01  0.18073393288E+02  0.11378407572E+02  0.22875495766E+02  0.00000000000E+00 0.  1.
         14    1    4    4    0    0 -0.71811655450E+02 -0.35153830749E+02 -0.22573573095E+02  0.83079912597E+02  0.00000000000E+00 0. -1.
         -5    1    5    5    0  502 -0.36012718595E+02  0.70222243916E+02  0.17455540768E+03  0.19162400630E+03  0.47000000000E+01 0.  1.
         13    1    6    6    0    0  0.47806690902E+02  0.23341656286E+02  0.22387386268E+03  0.23010827669E+03  0.00000000000E+00 0. -1.
        -14    1    6    6    0    0  0.35494032786E+02 -0.23077662614E+02  0.40507308778E+02  0.58593915550E+02  0.00000000000E+00 0.  1.
<mgrwt>
<rscale>  2 0.19415861E+03</rscale>
<asrwt>0</asrwt>
<pdfrwt beam="1">  1       21 0.91621752E-01 0.19505880E+03</pdfrwt>
<pdfrwt beam="2">  1       21 0.13559939E-01 0.19505880E+03</pdfrwt>
<totfact> 0.47426768E+04</totfact>
</mgrwt>
</event>
<event>
12    1  0.1013215E-001  0.2529861E+03  0.7546771E-02  0.1111698E+00
         21   -1    0    0  503  502  0.00000000000E+00  0.00000000000E+00  0.39043419604E+03  0.39043419604E+03  0.00000000000E+00 0. -1.
         21   -1    0    0  501  503 -0.00000000000E+00 -0.00000000000E+00 -0.16856089163E+03  0.16856089163E+03  0.00000000000E+00 0.  1.
          6    2    1    2  501    0 -0.34669644302E+02  0.18163148297E+03  0.59003360987E+02  0.25811543683E+03  0.17014758970E+03 0.  0.
         24    2    3    3    0    0 -0.59240891062E+00  0.17939026062E+03  0.84905302695E+02  0.21499604868E+03  0.82663014516E+02 0.  0.
         -6    2    1    2    0  502  0.34669644302E+02 -0.18163148297E+03  0.16286994343E+03  0.30087965085E+03  0.17265562829E+03 0.  0.
        -24    2    5    5    0    0  0.22956899266E+02 -0.18373001147E+03  0.80250203885E+02  0.21727520372E+03  0.80527526889E+02 0.  0.
          5    1    3    3  501    0 -0.34077235391E+02  0.22412223424E+01 -0.25901941708E+02  0.43119388142E+02  0.47000000000E+01 0. -1.
        -13    1    4    4    0    0  0.88124761834E+01  0.18169186780E+02  0.43982430975E+02  0.48396625081E+02  0.00000000000E+00 0.  1.
         14    1    4    4    0    0 -0.94048850940E+01  0.16122107384E+03  0.40922871719E+02  0.16659942360E+03  0.00000000000E+00 0. -1.
         -5    1    5    5    0  502  0.11712745036E+02  0.20985285062E+01  0.82619739541E+02  0.83604447130E+02  0.47000000000E+01 0.  1.
         11    1    6    6    0    0  0.27036326081E+02 -0.33683519571E+02  0.46423587441E+02  0.63408925945E+02  0.00000000000E+00 0. -1.
        -12    1    6    6    0    0 -0.40794268149E+01 -0.15004649190E+03  0.33826616444E+02  0.15386627777E+03  0.00000000000E+00 0.  1.
<mgrwt>
<rscale>  2 0.25255873E+03</rscale>
<asrwt>0</asrwt>
<pdfrwt beam="1">  1       21 0.60066799E-01 0.25298606E+03</pdfrwt>
<pdfrwt beam="2">  1       21 0.25932445E-01 0.25298606E+03</pdfrwt>
<totfact> 0.35461494E+04</totfact>
</mgrwt>
</event>
<event>
12    1  0.1013215E-001  0.1898143E+03  0.7546771E-02  0.1161364E+00
         21   -1    0    0  503  502  0.00000000000E+00  0.00000000000E+00  0.35284016412E+03  0.35284016412E+03  0.00000000000E+00 0.  1.
         21   -1    0    0  501  503 -0.00000000000E+00 -0.00000000000E+00 -0.96384806896E+02  0.96384806896E+02  0.00000000000E+00 0.  1.
          6    2    1    2  501    0  0.42579052925E+02 -0.64017741942E+01  0.11655801825E+03  0.22274477981E+03  0.18486618635E+03 0.  0.
         24    2    3    3    0    0  0.23443180378E+02  0.51157375875E+02  0.12752234436E+03  0.16092614329E+03  0.80427703380E+02 0.  0.
         -6    2    1    2    0  502 -0.42579052925E+02  0.64017741942E+01  0.13989733898E+03  0.22648019121E+03  0.17282376311E+03 0.  0.
        -24    2    5    5    0    0 -0.38590780839E+02 -0.42975174307E+01  0.20704034898E+01  0.88101235794E+02  0.79055829361E+02 0.  0.
          5    1    3    3  501    0  0.19135872547E+02 -0.57559150069E+02 -0.10964326104E+02  0.61818636525E+02  0.47000000000E+01 0. -1.
        -13    1    4    4    0    0  0.20476448565E+02  0.51711921972E+02  0.29689211747E+02  0.63046467895E+02  0.00000000000E+00 0.  1.
         14    1    4    4    0    0  0.29667318126E+01 -0.55454609715E+00  0.97833132609E+02  0.97879675393E+02  0.00000000000E+00 0. -1.
         -5    1    5    5    0  502 -0.39882720867E+01  0.10699291625E+02  0.13782693549E+03  0.13837895541E+03  0.47000000000E+01 0.  1.
         13    1    6    6    0    0 -0.51929792983E+02  0.21718364629E+02  0.11362640443E+02  0.57423865764E+02  0.00000000000E+00 0. -1.
        -14    1    6    6    0    0  0.13339012145E+02 -0.26015882060E+02 -0.92922369533E+01  0.30677370030E+02  0.00000000000E+00 0.  1.
<mgrwt>
<rscale>  2 0.18681716E+03</rscale>
<asrwt>0</asrwt>
<pdfrwt beam="1">  1       21 0.54283101E-01 0.18981429E+03</pdfrwt>
<pdfrwt beam="2">  1       21 0.14828432E-01 0.18981429E+03</pdfrwt>
<totfact> 0.12859195E+05</totfact>
</mgrwt>
</event>
<event>
12    1  0.1013215E-001  0.1884585E+03  0.7546771E-02  0.1160160E+00
         21   -1    0    0  501  502  0.00000000000E+00  0.00000000000E+00  0.32783520083E+03  0.32783520083E+03  0.00000000000E+00 0. -1.
         21   -1    0    0  502  503 -0.00000000000E+00 -0.00000000000E+00 -0.13513300858E+03  0.13513300858E+03  0.00000000000E+00 0. -1.
         -6    2    1    2    0  503 -0.36024265836E+02  0.65884038851E+02 -0.84408050287E+01  0.18733240985E+03  0.17141683198E+03 0.  0.
        -24    2    3    3    0    0  0.44861453428E+02  0.39803869585E+02 -0.11642871232E+02  0.10215601618E+03  0.81874276512E+02 0.  0.
          6    2    1    2  501    0  0.36024265836E+02 -0.65884038851E+02  0.20114299728E+03  0.27563579957E+03  0.17285292692E+03 0.  0.
         24    2    5    5    0    0 -0.12728930346E+02 -0.33466159692E+02  0.36866634550E+02  0.10117489742E+03  0.87150453882E+02 0.  0.
          5    1    5    5  501    0  0.48753196182E+02 -0.32417879160E+02  0.16427636273E+03  0.17446090215E+03  0.47000000000E+01 0. -1.
        -13    1    6    6    0    0 -0.38205040792E+02  0.11199652647E+02  0.28772104252E+02  0.49121190381E+02  0.00000000000E+00 0.  1.
         14    1    6    6    0    0  0.25476110446E+02 -0.44665812339E+02  0.80945302981E+01  0.52053707035E+02  0.00000000000E+00 0. -1.
         -5    1    3    3    0  503 -0.80885719264E+02  0.26080169266E+02  0.32020662037E+01  0.85176393665E+02  0.47000000000E+01 0.  1.
         11    1    4    4    0    0  0.41499187471E+02  0.56865310639E+02 -0.30308677772E+02  0.76645039390E+02  0.00000000000E+00 0. -1.
        -12    1    4    4    0    0  0.33622659572E+01 -0.17061441054E+02  0.18665806540E+02  0.25510976794E+02  0.00000000000E+00 0.  1.
<mgrwt>
<rscale>  2 0.18812851E+03</rscale>
<asrwt>0</asrwt>
<pdfrwt beam="1">  1       21 0.50436185E-01 0.18845845E+03</pdfrwt>
<pdfrwt beam="2">  1       21 0.20789694E-01 0.18845845E+03</pdfrwt>
<totfact> 0.80476610E+04</totfact>
</mgrwt>
</event>
<event>
12    1  0.1013215E-001  0.2265124E+03  0.7546771E-02  0.1129409E+00
         21   -1    0    0  501  502  0.00000000000E+00  0.00000000000E+00  0.44779761336E+03  0.44779761336E+03  0.00000000000E+00 0. -1.
         21   -1    0    0  502  503 -0.00000000000E+00 -0.00000000000E+00 -0.21112424830E+03  0.21112424830E+03  0.00000000000E+00 0.  1.
         -6    2    1    2    0  503  0.14430088476E+03 -0.61387679848E+01 -0.10516548183E+03  0.24973516613E+03  0.17449196204E+03 0.  0.
        -24    2    3    3    0    0  0.13879156900E+03  0.52202829027E+02 -0.71842782209E+02  0.18215864053E+03  0.77666916882E+02 0.  0.
          6    2    1    2  501    0 -0.14430088476E+03  0.61387679848E+01  0.34183884689E+03  0.40918669554E+03  0.17239351713E+03 0.  0.
         24    2    5    5    0    0 -0.10572038310E+02 -0.28202555135E+02  0.11736303910E+03  0.14560708873E+03  0.80747688696E+02 0.  0.
          5    1    5    5  501    0 -0.13372884645E+03  0.34341323120E+02  0.22447580778E+03  0.26357960681E+03  0.47000000000E+01 0. -1.
        -11    1    6    6    0    0 -0.32408183797E+02 -0.17735325512E+02  0.14100202463E+02  0.39542987463E+02  0.00000000000E+00 0.  1.
         12    1    6    6    0    0  0.21836145487E+02 -0.10467229623E+02  0.10326283664E+03  0.10606410126E+03  0.00000000000E+00 0. -1.
         -5    1    3    3    0  503  0.55093157527E+01 -0.58341597012E+02 -0.33322699625E+02  0.67576525600E+02  0.47000000000E+01 0.  1.
         11    1    4    4    0    0  0.87547671067E+02 -0.84790309733E+01 -0.38807315044E+02  0.96137902912E+02  0.00000000000E+00 0. -1.
        -12    1    4    4    0    0  0.51243897937E+02  0.60681860000E+02 -0.33035467165E+02  0.86020737614E+02  0.00000000000E+00 0.  1.
<mgrwt>
<rscale>  2 0.22610820E+03</rscale>
<asrwt>0</asrwt>
<pdfrwt beam="1">  1       21 0.68891940E-01 0.22651242E+03</pdfrwt>
<pdfrwt beam="2">  1       21 0.32480654E-01 0.22651242E+03</pdfrwt>
<totfact> 0.17155117E+04</totfact>
</mgrwt>
</event>
<event>
12    1  0.1013215E-001  0.1917371E+03  0.7546771E-02  0.1157011E+00
         21   -1    0    0  501  502  0.00000000000E+00  0.00000000000E+00  0.77096532697E+02  0.77096532697E+02  0.00000000000E+00 0.  1.
         21   -1    0    0  502  503 -0.00000000000E+00 -0.00000000000E+00 -0.47823854524E+03  0.47823854524E+03  0.00000000000E+00 0.  1.
         -6    2    1    2    0  503 -0.41907346605E+02 -0.70641963258E+02 -0.22123855952E+03  0.29276204910E+03  0.17325300719E+03 0.  0.
        -24    2    3    3    0    0 -0.15047489590E+02 -0.95909232979E+02 -0.88130418999E+02  0.15456018981E+03  0.81834428007E+02 0.  0.
          6    2    1    2  501    0  0.41907346605E+02  0.70641963258E+02 -0.17990345302E+03  0.26257302883E+03  0.17272182951E+03 0.  0.
         24    2    5    5    0    0 -0.15139975321E+02  0.82394289079E+02 -0.59098166383E+02  0.12837719663E+03  0.77266251495E+02 0.  0.
          5    1    5    5  501    0  0.57047321926E+02 -0.11752325820E+02 -0.12080528664E+03  0.13419583220E+03  0.47000000000E+01 0. -1.
        -11    1    6    6    0    0  0.61421910426E+01  0.18897428166E+02  0.17608841136E+02  0.26550152321E+02  0.00000000000E+00 0.  1.
         12    1    6    6    0    0 -0.21282166363E+02  0.63496860912E+02 -0.76707007519E+02  0.10182704431E+03  0.00000000000E+00 0. -1.
         -5    1    3    3    0  503 -0.26859857015E+02  0.25267269720E+02 -0.13310814052E+03  0.13820185929E+03  0.47000000000E+01 0.  1.
         11    1    4    4    0    0  0.45385306549E+00  0.23553001321E+01 -0.46759304346E+02  0.46820785600E+02  0.00000000000E+00 0. -1.
        -12    1    4    4    0    0 -0.15501342655E+02 -0.98264533111E+02 -0.41371114654E+02  0.10773940421E+03  0.00000000000E+00 0.  1.
<mgrwt>
<rscale>  2 0.19161703E+03</rscale>
<asrwt>0</asrwt>
<pdfrwt beam="1">  1       21 0.11861005E-01 0.19173710E+03</pdfrwt>
<pdfrwt beam="2">  1       21 0.73575161E-01 0.19173710E+03</pdfrwt>
<totfact> 0.99464846E+04</totfact>
</mgrwt>
</event>
<event>
12    1  0.1013215E-001  0.1774145E+03  0.7546771E-02  0.1174377E+00
         21   -1    0    0  501  502  0.00000000000E+00  0.00000000000E+00  0.85581872926E+03  0.85581872926E+03  0.00000000000E+00 0.  1.
         21   -1    0    0  502  503 -0.00000000000E+00 -0.00000000000E+00 -0.45897056910E+02  0.45897056910E+02  0.00000000000E+00 0.  1.
         -6    2    1    2    0  503  0.39596112295E+02  0.26673088111E+01  0.18553080851E+03  0.25670526112E+03  0.17291889294E+03 0.  0.
        -24    2    3    3    0    0  0.77224276244E+02  0.20972753037E+02  0.18213282703E+03  0.21446068409E+03  0.80109756759E+02 0.  0.
          6    2    1    2  501    0 -0.39596112295E+02 -0.26673088111E+01  0.62439086384E+03  0.64501052505E+03  0.15684278731E+03 0.  0.
         24    2    5    5    0    0 -0.48697410281E+01  0.40943570545E+02  0.50536681138E+03  0.51349381613E+03  0.81118399988E+02 0.  0.
          5    1    5    5  501    0 -0.34726371267E+02 -0.43610879356E+02  0.11902405246E+03  0.13151670892E+03  0.47000000000E+01 0. -1.
        -11    1    6    6    0    0  0.19455310157E+02  0.48194539946E+01  0.38446946930E+03  0.38499157011E+03  0.00000000000E+00 0.  1.
         12    1    6    6    0    0 -0.24325051185E+02  0.36124116550E+02  0.12089734207E+03  0.12850224602E+03  0.00000000000E+00 0. -1.
         -5    1    3    3    0  503 -0.37628163949E+02 -0.18305444226E+02  0.33979814833E+01  0.42244577032E+02  0.47000000000E+01 0.  1.
         13    1    4    4    0    0  0.18805932356E+02  0.37267970650E+02  0.32181045247E+02  0.52708485098E+02  0.00000000000E+00 0. -1.
        -14    1    4    4    0    0  0.58418343888E+02 -0.16295217613E+02  0.14995178178E+03  0.16175219899E+03  0.00000000000E+00 0.  1.
<mgrwt>
<rscale>  2 0.17337119E+03</rscale>
<asrwt>0</asrwt>
<pdfrwt beam="1">  1       21 0.13166441E+00 0.17741452E+03</pdfrwt>
<pdfrwt beam="2">  1       21 0.70610863E-02 0.17741452E+03</pdfrwt>
<totfact> 0.62858770E+04</totfact>
</mgrwt>
</event>
<event>
12    1  0.1013215E-001  0.2271999E+03  0.7546771E-02  0.1129534E+00
         21   -1    0    0  501  502  0.00000000000E+00  0.00000000000E+00  0.87130591649E+03  0.87130591649E+03  0.00000000000E+00 0.  1.
         21   -1    0    0  502  503 -0.00000000000E+00 -0.00000000000E+00 -0.63442387211E+02  0.63442387211E+02  0.00000000000E+00 0.  1.
         -6    2    1    2    0  503  0.11026317673E+03  0.86006567082E+02  0.26222148402E+03  0.34369413979E+03  0.17265705118E+03 0.  0.
        -24    2    3    3    0    0 -0.62772740095E+01  0.27509709644E+02  0.14438073887E+03  0.16787579545E+03  0.80872100554E+02 0.  0.
          6    2    1    2  501    0 -0.11026317673E+03 -0.86006567082E+02  0.54564204526E+03  0.59105416391E+03  0.17906614809E+03 0.  0.
         24    2    5    5    0    0 -0.61231589155E+02 -0.19768488781E+02  0.13822373859E+03  0.17535794525E+03  0.86628554143E+02 0.  0.
          5    1    5    5  501    0 -0.49031587580E+02 -0.66238078301E+02  0.40741830667E+03  0.41569621866E+03  0.47000000000E+01 0. -1.
        -13    1    6    6    0    0 -0.74615793032E+01 -0.15404314790E+02  0.11559832303E+03  0.11685863411E+03  0.00000000000E+00 0.  1.
         14    1    6    6    0    0 -0.53770009852E+02 -0.43641739901E+01  0.22625415563E+02  0.58499311137E+02  0.00000000000E+00 0. -1.
         -5    1    3    3    0  503  0.11654045074E+03  0.58496857438E+02  0.11784074515E+03  0.17581834434E+03  0.47000000000E+01 0.  1.
         11    1    4    4    0    0 -0.33022725487E+02 -0.12930647425E+02  0.44965401747E+02  0.57267699409E+02  0.00000000000E+00 0. -1.
        -12    1    4    4    0    0  0.26745451477E+02  0.40440357069E+02  0.99415337123E+02  0.11060809604E+03  0.00000000000E+00 0.  1.
<mgrwt>
<rscale>  2 0.22593529E+03</rscale>
<asrwt>0</asrwt>
<pdfrwt beam="1">  1       21 0.13404706E+00 0.22719987E+03</pdfrwt>
<pdfrwt beam="2">  1       21 0.97603679E-02 0.22719987E+03</pdfrwt>
<totfact> 0.33216933E+04</totfact>
</mgrwt>
</event>
<event>
12    1  0.1013215E-001  0.1972192E+03  0.7546771E-02  0.1152558E+00
         21   -1    0    0  503  502  0.00000000000E+00  0.00000000000E+00  0.10399666182E+04  0.10399666182E+04  0.00000000000E+00 0. -1.
         21   -1    0    0  501  503 -0.00000000000E+00 -0.00000000000E+00 -0.63750917265E+02  0.63750917265E+02  0.00000000000E+00 0. -1.
          6    2    1    2  501    0  0.74897296643E+02 -0.53992497466E+02  0.13217472627E+03  0.23741436354E+03  0.17427170430E+03 0.  0.
         24    2    3    3    0    0 -0.49521406150E+01 -0.78984464010E+02  0.68690801335E+02  0.13228192445E+03  0.80728013087E+02 0.  0.
         -6    2    1    2    0  502 -0.74897296643E+02  0.53992497466E+02  0.84404097467E+03  0.86630317194E+03  0.17190469441E+03 0.  0.
        -24    2    5    5    0    0 -0.35014751520E+02  0.10087113617E+03  0.57051814227E+03  0.58590157776E+03  0.79929276425E+02 0.  0.
          5    1    3    3  501    0  0.79849437258E+02  0.24991966544E+02  0.63483924939E+02  0.10513243908E+03  0.47000000000E+01 0. -1.
        -11    1    4    4    0    0  0.80471456235E+01 -0.30730275756E+01  0.52984703603E+02  0.53680339670E+02  0.00000000000E+00 0.  1.
         12    1    4    4    0    0 -0.12999286239E+02 -0.75911436434E+02  0.15706097732E+02  0.78601584782E+02  0.00000000000E+00 0. -1.
         -5    1    5    5    0  502 -0.39882545123E+02 -0.46878638701E+02  0.27352283240E+03  0.28040159418E+03  0.47000000000E+01 0.  1.
         11    1    6    6    0    0 -0.19258808097E+02  0.75400519696E+02  0.20688984194E+03  0.22104195700E+03  0.00000000000E+00 0. -1.
        -12    1    6    6    0    0 -0.15755943423E+02  0.25470616471E+02  0.36362830033E+03  0.36485962076E+03  0.00000000000E+00 0.  1.
<mgrwt>
<rscale>  2 0.19669502E+03</rscale>
<asrwt>0</asrwt>
<pdfrwt beam="1">  1       21 0.15999485E+00 0.19721922E+03</pdfrwt>
<pdfrwt beam="2">  1       21 0.98078342E-02 0.19721922E+03</pdfrwt>
<totfact> 0.21071494E+04</totfact>
</mgrwt>
</event>
<event>
12    1  0.1013215E-001  0.2106334E+03  0.7546771E-02  0.1141165E+00
         21   -1    0    0  501  502  0.00000000000E+00  0.00000000000E+00  0.63184245479E+03  0.63184245479E+03  0.00000000000E+00 0. -1.
         21   -1    0    0  502  503 -0.00000000000E+00 -0.00000000000E+00 -0.12777780215E+03  0.12777780215E+03  0.00000000000E+00 0.  1.
         -6    2    1    2    0  503 -0.86433633216E+02  0.84889791636E+02 -0.30920480739E+01  0.21065609562E+03  0.17230606543E+03 0.  0.
        -24    2    3    3    0    0 -0.27247814502E+01  0.36569073926E+02  0.47464739342E+02  0.10147669107E+03  0.81852890895E+02 0.  0.
          6    2    1    2  501    0  0.86433633216E+02 -0.84889791636E+02  0.50715670071E+03  0.54896416131E+03  0.17168774461E+03 0.  0.
         24    2    5    5    0    0  0.41946404805E+02  0.27353555238E+02  0.18506987473E+03  0.20495878943E+03  0.72453633261E+02 0.  0.
          5    1    5    5  501    0  0.44487228411E+02 -0.11224334687E+03  0.32208682599E+03  0.34400537188E+03  0.47000000000E+01 0. -1.
        -11    1    6    6    0    0  0.53109294685E+02  0.11461044853E+02  0.71820974634E+02  0.90056677312E+02  0.00000000000E+00 0.  1.
         12    1    6    6    0    0 -0.11162889881E+02  0.15892510386E+02  0.11324890009E+03  0.11490211212E+03  0.00000000000E+00 0. -1.
         -5    1    3    3    0  503 -0.83708851766E+02  0.48320717710E+02 -0.50556787416E+02  0.10917940455E+03  0.47000000000E+01 0.  1.
         11    1    4    4    0    0  0.34276214515E-02  0.62671764340E+02  0.27205054115E+02  0.68321775641E+02  0.00000000000E+00 0. -1.
        -12    1    4    4    0    0 -0.27282090717E+01 -0.26102690415E+02  0.20259685227E+02  0.33154915429E+02  0.00000000000E+00 0.  1.
<mgrwt>
<rscale>  2 0.21050691E+03</rscale>
<asrwt>0</asrwt>
<pdfrwt beam="1">  1       21 0.97206529E-01 0.21063340E+03</pdfrwt>
<pdfrwt beam="2">  1       21 0.19658124E-01 0.21063340E+03</pdfrwt>
<totfact> 0.20696338E+04</totfact>
</mgrwt>
</event>
<event>
12    1  0.1013215E-001  0.1959148E+03  0.7546771E-02  0.1153519E+00
         21   -1    0    0  503  502  0.00000000000E+00  0.00000000000E+00  0.10992058472E+03  0.10992058472E+03  0.00000000000E+00 0. -1.
         21   -1    0    0  501  503 -0.00000000000E+00 -0.00000000000E+00 -0.40197134924E+03  0.40197134924E+03  0.00000000000E+00 0.  1.
          6    2    1    2  501    0 -0.90208573305E+02 -0.12341603093E+01 -0.24039110161E+03  0.30928062690E+03  0.17241668884E+03 0.  0.
         24    2    3    3    0    0  0.94691624857E+01  0.22814499177E+02 -0.14865994752E+03  0.17161914475E+03  0.82116894957E+02 0.  0.
         -6    2    1    2    0  502  0.90208573305E+02  0.12341603093E+01 -0.51659662900E+02  0.20261130706E+03  0.17390661611E+03 0.  0.
        -24    2    5    5    0    0 -0.31930486875E+01 -0.42160683595E+02  0.27127450505E+02  0.72855865143E+02  0.52767032451E+02 0.  0.
          5    1    3    3  501    0 -0.99677735790E+02 -0.24048659486E+02 -0.91731154093E+02  0.13766148215E+03  0.47000000000E+01 0. -1.
        -11    1    4    4    0    0 -0.56351979532E+01  0.40437207809E+02 -0.29882700396E+02  0.50595444600E+02  0.00000000000E+00 0.  1.
         12    1    4    4    0    0  0.15104360439E+02 -0.17622708632E+02 -0.11877724713E+03  0.12102370015E+03  0.00000000000E+00 0. -1.
         -5    1    5    5    0  502  0.93401621992E+02  0.43394843905E+02 -0.78787113406E+02  0.12975544192E+03  0.47000000000E+01 0.  1.
         13    1    6    6    0    0 -0.15969932507E+02 -0.29120299732E+01  0.27088189920E+02  0.31579878024E+02  0.00000000000E+00 0. -1.
        -14    1    6    6    0    0  0.12776883820E+02 -0.39248653622E+02  0.39260585454E-01  0.41275987119E+02  0.00000000000E+00 0.  1.
<mgrwt>
<rscale>  2 0.19558366E+03</rscale>
<asrwt>0</asrwt>
<pdfrwt beam="1">  1       21 0.16910859E-01 0.19591483E+03</pdfrwt>
<pdfrwt beam="2">  1       21 0.61841746E-01 0.19591483E+03</pdfrwt>
<totfact> 0.76372629E+04</totfact>
</mgrwt>
</event>
<event>
12    1  0.1013215E-001  0.1750125E+03  0.7546771E-02  0.1173218E+00
         21   -1    0    0  501  502  0.00000000000E+00  0.00000000000E+00  0.64681875033E+02  0.64681875033E+02  0.00000000000E+00 0. -1.
         21   -1    0    0  502  503 -0.00000000000E+00 -0.00000000000E+00 -0.48148031912E+03  0.48148031912E+03  0.00000000000E+00 0. -1.
         -6    2    1    2    0  503  0.29182886401E+02 -0.37960574943E+01 -0.16420835875E+03  0.23998702099E+03  0.17252053284E+03 0.  0.
        -24    2    3    3    0    0  0.77755854530E+02  0.28955666879E+02 -0.10887536900E+03  0.15926627746E+03  0.81409444186E+02 0.  0.
          6    2    1    2  501    0 -0.29182886401E+02  0.37960574943E+01 -0.25259008534E+03  0.30617517316E+03  0.17051520324E+03 0.  0.
         24    2    5    5    0    0  0.14745268711E+02 -0.48736253951E+02 -0.10921043478E+03  0.14721247076E+03  0.84569185202E+02 0.  0.
          5    1    5    5  501    0 -0.43928155112E+02  0.52532311446E+02 -0.14337965057E+03  0.15896270240E+03  0.47000000000E+01 0. -1.
        -13    1    6    6    0    0  0.68009259702E+01 -0.64202946108E+02 -0.40221297960E+02  0.76065916760E+02  0.00000000000E+00 0.  1.
         14    1    6    6    0    0  0.79443427410E+01  0.15466692157E+02 -0.68989136816E+02  0.71146554002E+02  0.00000000000E+00 0. -1.
         -5    1    3    3    0  503 -0.48572968129E+02 -0.32751724373E+02 -0.55332989743E+02  0.80720743531E+02  0.47000000000E+01 0.  1.
         13    1    4    4    0    0  0.19266332235E+02  0.31702215137E+02 -0.16971445808E+01  0.37136266669E+02  0.00000000000E+00 0. -1.
        -14    1    4    4    0    0  0.58489522294E+02 -0.27465482589E+01 -0.10717822442E+03  0.12213001079E+03  0.00000000000E+00 0.  1.
<mgrwt>
<rscale>  2 0.17451631E+03</rscale>
<asrwt>0</asrwt>
<pdfrwt beam="1">  1       21 0.99510577E-02 0.17501253E+03</pdfrwt>
<pdfrwt beam="2">  1       21 0.74073895E-01 0.17501253E+03</pdfrwt>
<totfact> 0.13463532E+05</totfact>
</mgrwt>
</event>
<event>
12    1  0.1013215E-001  0.2065095E+03  0.7546771E-02  0.1144652E+00
         21   -1    0    0  501  502  0.00000000000E+00  0.00000000000E+00  0.11132829755E+03  0.11132829755E+03  0.00000000000E+00 0.  1.
         21   -1    0    0  502  503 -0.00000000000E+00 -0.00000000000E+00 -0.41307591280E+03  0.41307591280E+03  0.00000000000E+00 0. -1.
         -6    2    1    2    0  503  0.10729780408E+03 -0.11529226599E+02 -0.22412244666E+03  0.30378726764E+03  0.17438489344E+03 0.  0.
        -24    2    3    3    0    0  0.68005947992E+02 -0.60019533082E+02 -0.20508157012E+03  0.23836705091E+03  0.80828505152E+02 0.  0.
          6    2    1    2  501    0 -0.10729780408E+03  0.11529226599E+02 -0.77625168600E+02  0.22061694271E+03  0.17606938060E+03 0.  0.
         24    2    5    5    0    0 -0.20617371093E+02  0.32205395116E+02 -0.84284289496E+02  0.13113266868E+03  0.92896027225E+02 0.  0.
          5    1    5    5  501    0 -0.86680432985E+02 -0.20676168517E+02  0.66591208965E+01  0.89484274027E+02  0.47000000000E+01 0. -1.
        -13    1    6    6    0    0 -0.22975808558E+02 -0.24578371224E+02 -0.61104030798E+02  0.69754474342E+02  0.00000000000E+00 0.  1.
         14    1    6    6    0    0  0.23584374654E+01  0.56783766340E+02 -0.23180258698E+02  0.61378194340E+02  0.00000000000E+00 0. -1.
         -5    1    3    3    0  503  0.39291856086E+02  0.48490306483E+02 -0.19040876537E+02  0.65420216729E+02  0.47000000000E+01 0.  1.
         11    1    4    4    0    0  0.81557814527E+02 -0.59034890543E+02 -0.19990343144E+03  0.22382622124E+03  0.00000000000E+00 0. -1.
        -12    1    4    4    0    0 -0.13551866535E+02 -0.98464253873E+00 -0.51781386802E+01  0.14540829677E+02  0.00000000000E+00 0.  1.
<mgrwt>
<rscale>  2 0.20614998E+03</rscale>
<asrwt>0</asrwt>
<pdfrwt beam="1">  1       21 0.17127431E-01 0.20650949E+03</pdfrwt>
<pdfrwt beam="2">  1       21 0.63550140E-01 0.20650949E+03</pdfrwt>
<totfact> 0.69995158E+04</totfact>
</mgrwt>
</event>
<event>
12    1  0.1013215E-001  0.1906926E+03  0.7546771E-02  0.1157903E+00
         21   -1    0    0  503  502  0.00000000000E+00  0.00000000000E+00  0.48326870376E+03  0.48326870376E+03  0.00000000000E+00 0. -1.
         21   -1    0    0  501  503 -0.00000000000E+00 -0.00000000000E+00 -0.76998078951E+02  0.76998078951E+02  0.00000000000E+00 0.  1.
          6    2    1    2  501    0 -0.45063742067E+02  0.67909339487E+02  0.15966062110E+03  0.24870702145E+03  0.17239851899E+03 0.  0.
         24    2    3    3    0    0 -0.50847571778E+02 -0.20153708480E+02  0.10856476750E+03  0.14662161917E+03  0.81975258131E+02 0.  0.
         -6    2    1    2    0  502  0.45063742067E+02 -0.67909339487E+02  0.24661000371E+03  0.31155976126E+03  0.17207722588E+03 0.  0.
        -24    2    5    5    0    0  0.17055339351E+02 -0.14349388092E+02  0.23483695236E+03  0.24980351660E+03  0.82198620263E+02 0.  0.
          5    1    3    3  501    0  0.57838297116E+01  0.88063047967E+02  0.51095853603E+02  0.10208540228E+03  0.47000000000E+01 0. -1.
        -13    1    4    4    0    0 -0.62405306305E+02 -0.35265713011E+02  0.56753775245E+02  0.91428025101E+02  0.00000000000E+00 0.  1.
         14    1    4    4    0    0  0.11557734526E+02  0.15112004531E+02  0.51810992254E+02  0.55193594073E+02  0.00000000000E+00 0. -1.
         -5    1    5    5    0  502  0.28008402716E+02 -0.53559951394E+02  0.11773051346E+02  0.61756244656E+02  0.47000000000E+01 0.  1.
         11    1    6    6    0    0  0.49393521234E+02  0.54090399400E+00  0.14415473144E+03  0.15238306702E+03  0.00000000000E+00 0. -1.
        -12    1    6    6    0    0 -0.32338181884E+02 -0.14890292086E+02  0.90682220916E+02  0.97420449580E+02  0.00000000000E+00 0.  1.
<mgrwt>
<rscale>  2 0.19061996E+03</rscale>
<asrwt>0</asrwt>
<pdfrwt beam="1">  1       21 0.74349030E-01 0.19069260E+03</pdfrwt>
<pdfrwt beam="2">  1       21 0.11845859E-01 0.19069260E+03</pdfrwt>
<totfact> 0.97435094E+04</totfact>
</mgrwt>
</event>
<event>
12    1  0.1013215E-001  0.1902656E+03  0.7546771E-02  0.1158443E+00
         21   -1    0    0  503  502  0.00000000000E+00  0.00000000000E+00  0.31266708061E+03  0.31266708061E+03  0.00000000000E+00 0.  1.
         21   -1    0    0  501  503 -0.00000000000E+00 -0.00000000000E+00 -0.13051391609E+03  0.13051391609E+03  0.00000000000E+00 0. -1.
          6    2    1    2  501    0 -0.50441438066E+02 -0.59551065600E+02  0.14932093042E+02  0.18987505967E+03  0.17244971092E+03 0.  0.
         24    2    3    3    0    0  0.29753270388E+02 -0.59773740623E+02 -0.14435941884E+02  0.10434253765E+03  0.78872121680E+02 0.  0.
         -6    2    1    2    0  502  0.50441438066E+02  0.59551065600E+02  0.16722107147E+03  0.25330593703E+03  0.17352332091E+03 0.  0.
        -24    2    5    5    0    0 -0.36752615748E+02  0.13242455242E+02  0.54009983711E+02  0.10301910858E+03  0.78547698923E+02 0.  0.
          5    1    3    3  501    0 -0.80194708454E+02  0.22267502255E+00  0.29368034926E+02  0.85532522023E+02  0.47000000000E+01 0. -1.
        -11    1    4    4    0    0 -0.19073972476E+02  0.72214122852E+01 -0.16468833157E+01  0.20461609078E+02  0.00000000000E+00 0.  1.
         12    1    4    4    0    0  0.48827242865E+02 -0.66995152908E+02 -0.12789058569E+02  0.83880928571E+02  0.00000000000E+00 0. -1.
         -5    1    5    5    0  502  0.87194053814E+02  0.46308610358E+02  0.11321108776E+03  0.15028682845E+03  0.47000000000E+01 0.  1.
         13    1    6    6    0    0 -0.50565769413E+02 -0.88185457082E+01  0.57132810924E+02  0.76803788115E+02  0.00000000000E+00 0. -1.
        -14    1    6    6    0    0  0.13813153665E+02  0.22061000950E+02 -0.31228272126E+01  0.26215320461E+02  0.00000000000E+00 0.  1.
<mgrwt>
<rscale>  2 0.19002050E+03</rscale>
<asrwt>0</asrwt>
<pdfrwt beam="1">  1       21 0.48102628E-01 0.19026563E+03</pdfrwt>
<pdfrwt beam="2">  1       21 0.20079064E-01 0.19026563E+03</pdfrwt>
<totfact> 0.94713121E+04</totfact>
</mgrwt>
</event>
<event>
12    1  0.1013215E-001  0.1917561E+03  0.7546771E-02  0.1157948E+00
         21   -1    0    0  501  502  0.00000000000E+00  0.00000000000E+00  0.96241102801E+02  0.96241102801E+02  0.00000000000E+00 0.  1.
         21   -1    0    0  502  503 -0.00000000000E+00 -0.00000000000E+00 -0.38005064814E+03  0.38005064814E+03  0.00000000000E+00 0.  1.
         -6    2    1    2    0  503 -0.34606781376E+02 -0.64731678988E+02 -0.17661460980E+03  0.26069734394E+03  0.17715124939E+03 0.  0.
        -24    2    3    3    0    0 -0.39601654370E+02 -0.72973812514E+02 -0.20144536437E+03  0.23365038674E+03  0.84372981782E+02 0.  0.
          6    2    1    2  501    0  0.34606781376E+02  0.64731678988E+02 -0.10719493554E+03  0.21559440700E+03  0.17205340608E+03 0.  0.
         24    2    5    5    0    0  0.34727200278E+02 -0.96495129506E+01 -0.54430481648E+01  0.89467039631E+02  0.81704546188E+02 0.  0.
          5    1    5    5  501    0 -0.12041890119E+00  0.74381191938E+02 -0.10175188738E+03  0.12612736737E+03  0.47000000000E+01 0. -1.
        -13    1    6    6    0    0  0.14896262478E+02 -0.19902125703E+02 -0.40726491811E+02  0.47714152811E+02  0.00000000000E+00 0.  1.
         14    1    6    6    0    0  0.19830937800E+02  0.10252612752E+02  0.35283443646E+02  0.41752886820E+02  0.00000000000E+00 0. -1.
         -5    1    3    3    0  503  0.49948729932E+01  0.82421335269E+01  0.24830754572E+02  0.27046957202E+02  0.47000000000E+01 0.  1.
         13    1    4    4    0    0  0.13212638358E+02 -0.66501446674E+01 -0.10157134255E+03  0.10264275846E+03  0.00000000000E+00 0. -1.
        -14    1    4    4    0    0 -0.52814292728E+02 -0.66323667847E+02 -0.99874021821E+02  0.13100762828E+03  0.00000000000E+00 0.  1.
<mgrwt>
<rscale>  2 0.19057025E+03</rscale>
<asrwt>0</asrwt>
<pdfrwt beam="1">  1       21 0.14806323E-01 0.19175606E+03</pdfrwt>
<pdfrwt beam="2">  1       21 0.58469331E-01 0.19175606E+03</pdfrwt>
<totfact> 0.11004860E+05</totfact>
</mgrwt>
</event>
<event>
12    1  0.1013215E-001  0.1835967E+03  0.7546771E-02  0.1164370E+00
         21   -1    0    0  503  502  0.00000000000E+00  0.00000000000E+00  0.14744281810E+03  0.14744281810E+03  0.00000000000E+00 0. -1.
         21   -1    0    0  501  503 -0.00000000000E+00 -0.00000000000E+00 -0.34554301804E+03  0.34554301804E+03  0.00000000000E+00 0. -1.
          6    2    1    2  501    0 -0.54550711047E+02  0.27490362172E+02 -0.24244916471E+03  0.30412063313E+03  0.17313654132E+03 0.  0.
         24    2    3    3    0    0  0.25489175344E+02 -0.21380694066E+02 -0.10522682398E+03  0.13784729087E+03  0.82597572464E+02 0.  0.
         -6    2    1    2    0  502  0.54550711047E+02 -0.27490362172E+02  0.44348964770E+02  0.18886520302E+03  0.17312346504E+03 0.  0.
        -24    2    5    5    0    0 -0.19894387683E+02 -0.59642690980E+02  0.18835509482E+02  0.10372489897E+03  0.80318372745E+02 0.  0.
          5    1    3    3  501    0 -0.80039886391E+02  0.48871056238E+02 -0.13722234073E+03  0.16627334226E+03  0.47000000000E+01 0. -1.
        -11    1    4    4    0    0 -0.26076633237E+02 -0.11355153506E+02 -0.67277005653E+02  0.73041945495E+02  0.00000000000E+00 0.  1.
         12    1    4    4    0    0  0.51565808581E+02 -0.10025540560E+02 -0.37949818330E+02  0.64805345377E+02  0.00000000000E+00 0. -1.
         -5    1    5    5    0  502  0.74445098730E+02  0.32152328808E+02  0.25513455288E+02  0.85140304048E+02  0.47000000000E+01 0.  1.
         11    1    6    6    0    0  0.15374125550E+02 -0.61022170121E+02 -0.15827327705E+01  0.62948979545E+02  0.00000000000E+00 0. -1.
        -12    1    6    6    0    0 -0.35268513233E+02  0.13794791408E+01  0.20418242252E+02  0.40775919426E+02  0.00000000000E+00 0.  1.
<mgrwt>
<rscale>  2 0.18359365E+03</rscale>
<asrwt>0</asrwt>
<pdfrwt beam="1">  1       21 0.22683511E-01 0.18359674E+03</pdfrwt>
<pdfrwt beam="2">  1       21 0.53160464E-01 0.18359674E+03</pdfrwt>
<totfact> 0.61305488E+04</totfact>
</mgrwt>
</event>
<event>
12    1  0.1013215E-001  0.2350228E+03  0.7546771E-02  0.1123229E+00
         21   -1    0    0  501  502  0.00000000000E+00  0.00000000000E+00  0.54569139369E+03  0.54569139369E+03  0.00000000000E+00 0.  1.
         21   -1    0    0  502  503 -0.00000000000E+00 -0.00000000000E+00 -0.20780675640E+03  0.20780675640E+03  0.00000000000E+00 0. -1.
         -6    2    1    2    0  503 -0.46117046132E+02  0.15234608032E+03 -0.10119260514E+03  0.25547754085E+03  0.17231575787E+03 0.  0.
        -24    2    3    3    0    0 -0.13606462461E+02  0.89520211089E+02 -0.13048298692E+03  0.17877001605E+03  0.82060372590E+02 0.  0.
          6    2    1    2  501    0  0.46117046132E+02 -0.15234608032E+03  0.43907724243E+03  0.49802060925E+03  0.17291498570E+03 0.  0.
         24    2    5    5    0    0  0.15225707851E+02 -0.61191903149E+02  0.35890459914E+03  0.37266869850E+03  0.78058800701E+02 0.  0.
          5    1    5    5  501    0  0.30891338281E+02 -0.91154177167E+02  0.80172643296E+02  0.12535191075E+03  0.47000000000E+01 0. -1.
        -11    1    6    6    0    0 -0.30002191896E+02 -0.19277467425E+02  0.17818400382E+03  0.18171761469E+03  0.00000000000E+00 0.  1.
         12    1    6    6    0    0  0.45227899747E+02 -0.41914435724E+02  0.18072059531E+03  0.19095108381E+03  0.00000000000E+00 0. -1.
         -5    1    3    3    0  503 -0.32510583672E+02  0.62825869227E+02  0.29290381782E+02  0.76707524792E+02  0.47000000000E+01 0.  1.
         13    1    4    4    0    0  0.81352622886E+01  0.25034331656E+02 -0.10140455842E+03  0.10476537940E+03  0.00000000000E+00 0. -1.
        -14    1    4    4    0    0 -0.21741724749E+02  0.64485879433E+02 -0.29078428506E+02  0.74004636649E+02  0.00000000000E+00 0.  1.
<mgrwt>
<rscale>  2 0.23491256E+03</rscale>
<asrwt>0</asrwt>
<pdfrwt beam="1">  1       21 0.83952522E-01 0.23502277E+03</pdfrwt>
<pdfrwt beam="2">  1       21 0.31970270E-01 0.23502277E+03</pdfrwt>
<totfact> 0.11289542E+04</totfact>
</mgrwt>
</event>
<event>
12    1  0.1013215E-001  0.2044592E+03  0.7546771E-02  0.1146526E+00
         21   -1    0    0  501  502  0.00000000000E+00  0.00000000000E+00  0.82303854855E+02  0.82303854855E+02  0.00000000000E+00 0.  1.
         21   -1    0    0  502  503 -0.00000000000E+00 -0.00000000000E+00 -0.52417234000E+03  0.52417234000E+03  0.00000000000E+00 0.  1.
         -6    2    1    2    0  503  0.48392837337E+02  0.93543246734E+02 -0.28460350539E+03  0.35043221314E+03  0.17524661198E+03 0.  0.
        -24    2    3    3    0    0  0.24428869654E+02 -0.19577221031E+02 -0.11967060814E+03  0.14894905611E+03  0.82974270744E+02 0.  0.
          6    2    1    2  501    0 -0.48392837337E+02 -0.93543246734E+02 -0.15726497975E+03  0.25604398171E+03  0.17243561407E+03 0.  0.
         24    2    5    5    0    0 -0.84786046820E+02 -0.57310876542E+02 -0.12052329895E+03  0.19272501572E+03  0.11019916419E+03 0.  0.
          5    1    5    5  501    0  0.36393209482E+02 -0.36232370192E+02 -0.36741680803E+02  0.63318965992E+02  0.47000000000E+01 0. -1.
        -11    1    6    6    0    0 -0.18639106382E+02 -0.59967315861E+02 -0.10861533763E+03  0.12546229245E+03  0.00000000000E+00 0.  1.
         12    1    6    6    0    0 -0.66146940438E+02  0.26564393186E+01 -0.11907961322E+02  0.67262723272E+02  0.00000000000E+00 0. -1.
         -5    1    3    3    0  503  0.23963967683E+02  0.11312046776E+03 -0.16493289725E+03  0.20148315704E+03  0.47000000000E+01 0.  1.
         11    1    4    4    0    0 -0.15585638920E+02 -0.75161487375E+01  0.45458205751E+01  0.17890475597E+02  0.00000000000E+00 0. -1.
        -12    1    4    4    0    0  0.40014508574E+02 -0.12061072293E+02 -0.12421642872E+03  0.13105858051E+03  0.00000000000E+00 0.  1.
<mgrwt>
<rscale>  2 0.20385553E+03</rscale>
<asrwt>0</asrwt>
<pdfrwt beam="1">  1       21 0.12662132E-01 0.20445924E+03</pdfrwt>
<pdfrwt beam="2">  1       21 0.80641897E-01 0.20445924E+03</pdfrwt>
<totfact> 0.71599819E+04</totfact>
</mgrwt>
</event>
<event>
12    1  0.1013215E-001  0.1842023E+03  0.7546771E-02  0.1164114E+00
         21   -1    0    0  501  502  0.00000000000E+00  0.00000000000E+00  0.83995832047E+03  0.83995832047E+03  0.00000000000E+00 0.  1.
         21   -1    0    0  502  503 -0.00000000000E+00 -0.00000000000E+00 -0.72468785022E+02  0.72468785022E+02  0.00000000000E+00 0. -1.
         -6    2    1    2    0  503 -0.34477263961E+02 -0.47295050973E+02  0.79628884746E+02  0.20067695155E+03  0.17465673769E+03 0.  0.
        -24    2    3    3    0    0  0.41960003449E+02  0.23004029289E+01  0.53774761503E+02  0.10584609905E+03  0.80905735062E+02 0.  0.
          6    2    1    2  501    0  0.34477263961E+02  0.47295050973E+02  0.68786065070E+03  0.71175015394E+03  0.17323539846E+03 0.  0.
         24    2    5    5    0    0  0.65404933455E+02 -0.11209553898E+02  0.53224281810E+03  0.54258068461E+03  0.81901907631E+02 0.  0.
          5    1    5    5  501    0 -0.30927669494E+02  0.58504604871E+02  0.15561783259E+03  0.16916946933E+03  0.47000000000E+01 0. -1.
        -13    1    6    6    0    0 -0.16009492707E+02  0.34600048818E+01  0.18046325408E+03  0.18120502632E+03  0.00000000000E+00 0.  1.
         14    1    6    6    0    0  0.81414426162E+02 -0.14669558780E+02  0.35177956402E+03  0.36137565829E+03  0.00000000000E+00 0. -1.
         -5    1    3    3    0  503 -0.76437267410E+02 -0.49595453902E+02  0.25854123243E+02  0.94830852498E+02  0.47000000000E+01 0.  1.
         13    1    4    4    0    0  0.59618995862E+02 -0.12280329761E+02  0.56161870070E+02  0.82821415204E+02  0.00000000000E+00 0. -1.
        -14    1    4    4    0    0 -0.17658992413E+02  0.14580732689E+02 -0.23871085671E+01  0.23024683844E+02  0.00000000000E+00 0.  1.
<mgrwt>
<rscale>  2 0.18386457E+03</rscale>
<asrwt>0</asrwt>
<pdfrwt beam="1">  1       21 0.12922435E+00 0.18420228E+03</pdfrwt>
<pdfrwt beam="2">  1       21 0.11149044E-01 0.18420228E+03</pdfrwt>
<totfact> 0.29510524E+04</totfact>
</mgrwt>
</event>
<event>
12    1  0.1013215E-001  0.1824656E+03  0.7546771E-02  0.1165698E+00
         21   -1    0    0  503  502  0.00000000000E+00  0.00000000000E+00  0.19028602797E+03  0.19028602797E+03  0.00000000000E+00 0.  1.
         21   -1    0    0  501  503 -0.00000000000E+00 -0.00000000000E+00 -0.41643347974E+03  0.41643347974E+03  0.00000000000E+00 0.  1.
          6    2    1    2  501    0 -0.10740840874E+02 -0.55979318396E+02 -0.34471585687E+03  0.39002914591E+03  0.17333396357E+03 0.  0.
         24    2    3    3    0    0 -0.29721872284E+02 -0.99706460414E+02 -0.22165200051E+03  0.25797179001E+03  0.81210018922E+02 0.  0.
         -6    2    1    2    0  502  0.10740840874E+02  0.55979318396E+02  0.11856840511E+03  0.21669036180E+03  0.17218361263E+03 0.  0.
        -24    2    5    5    0    0 -0.48204343851E+02  0.10483658253E+02  0.26400519863E+02  0.98109592009E+02  0.80591182760E+02 0.  0.
          5    1    3    3  501    0  0.18981031410E+02  0.43727142018E+02 -0.12306385636E+03  0.13205735589E+03  0.47000000000E+01 0. -1.
        -13    1    4    4    0    0 -0.12879068556E+02  0.69112313847E+00 -0.93119753803E+02  0.94008704950E+02  0.00000000000E+00 0.  1.
         14    1    4    4    0    0 -0.16842803728E+02 -0.10039758355E+03 -0.12853224671E+03  0.16396308506E+03  0.00000000000E+00 0. -1.
         -5    1    5    5    0  502  0.58945184726E+02  0.45495660143E+02  0.92167885243E+02  0.11858076979E+03  0.47000000000E+01 0.  1.
         13    1    6    6    0    0 -0.26925704577E+02  0.36843619660E+02 -0.11716720962E+02  0.47113983346E+02  0.00000000000E+00 0. -1.
        -14    1    6    6    0    0 -0.21278639274E+02 -0.26359961407E+02  0.38117240825E+02  0.50995608663E+02  0.00000000000E+00 0.  1.
<mgrwt>
<rscale>  2 0.18219193E+03</rscale>
<asrwt>0</asrwt>
<pdfrwt beam="1">  1       21 0.29274774E-01 0.18246565E+03</pdfrwt>
<pdfrwt beam="2">  1       21 0.64066688E-01 0.18246565E+03</pdfrwt>
<totfact> 0.25280987E+04</totfact>
</mgrwt>
</event>
<event>
12    1  0.1013215E-001  0.1907941E+03  0.7546771E-02  0.1157895E+00
         21   -1    0    0  501  502  0.00000000000E+00  0.00000000000E+00  0.14504781110E+04  0.14504781110E+04  0.00000000000E+00 0.  1.
         21   -1    0    0  502  503 -0.00000000000E+00 -0.00000000000E+00 -0.11345339082E+03  0.11345339082E+03  0.00000000000E+00 0.  1.
         -6    2    1    2    0  503 -0.74069138666E+02  0.29287130166E+02 -0.22160082561E+02  0.19142077121E+03  0.17264665967E+03 0.  0.
        -24    2    3    3    0    0 -0.54478479194E+02  0.45336691974E+02  0.47139351389E+02  0.11748915470E+03  0.80983101258E+02 0.  0.
          6    2    1    2  501    0  0.74069138666E+02 -0.29287130166E+02  0.13591848028E+04  0.13725107307E+04  0.17337359769E+03 0.  0.
         24    2    5    5    0    0  0.39940765361E+02  0.12627630839E+02  0.12167450568E+04  0.12200877524E+04  0.79942908484E+02 0.  0.
          5    1    5    5  501    0  0.34128373305E+02 -0.41914761005E+02  0.14243974601E+03  0.15242297824E+03  0.47000000000E+01 0. -1.
        -13    1    6    6    0    0 -0.17888721690E+02  0.25317307692E+02  0.43723922295E+03  0.43833675469E+03  0.00000000000E+00 0.  1.
         14    1    6    6    0    0  0.57829487051E+02 -0.12689676853E+02  0.77950583382E+03  0.78175099771E+03  0.00000000000E+00 0. -1.
         -5    1    3    3    0  503 -0.19590659472E+02 -0.16049561808E+02 -0.69299433950E+02  0.73931616502E+02  0.47000000000E+01 0.  1.
         13    1    4    4    0    0 -0.48409892194E+02  0.17720318672E+02 -0.11114501577E+02  0.52735751644E+02  0.00000000000E+00 0. -1.
        -14    1    4    4    0    0 -0.60685869992E+01  0.27616373302E+02  0.58253852966E+02  0.64753403061E+02  0.00000000000E+00 0.  1.
<mgrwt>
<rscale>  2 0.19062878E+03</rscale>
<asrwt>0</asrwt>
<pdfrwt beam="1">  1       21 0.22315047E+00 0.19079407E+03</pdfrwt>
<pdfrwt beam="2">  1       21 0.17454369E-01 0.19079407E+03</pdfrwt>
<totfact> 0.28653743E+03</totfact>
</mgrwt>
</event>
<event>
12    1  0.1013215E-001  0.3337534E+03  0.7546771E-02  0.1069556E+00
         21   -1    0    0  501  502  0.00000000000E+00  0.00000000000E+00  0.32029106112E+03  0.32029106112E+03  0.00000000000E+00 0.  1.
         21   -1    0    0  502  503 -0.00000000000E+00 -0.00000000000E+00 -0.12117096056E+04  0.12117096056E+04  0.00000000000E+00 0. -1.
         -6    2    1    2    0  503 -0.27570700857E+03  0.72231337123E+02 -0.10926297632E+04  0.11422862659E+04  0.17247142744E+03 0.  0.
        -24    2    3    3    0    0 -0.59061026024E+02 -0.72179361751E+01 -0.27165467350E+03  0.28948508355E+03  0.80405525704E+02 0.  0.
          6    2    1    2  501    0  0.27570700857E+03 -0.72231337123E+02  0.20121121865E+03  0.38971440085E+03  0.17366530765E+03 0.  0.
         24    2    5    5    0    0  0.11693025920E+03 -0.16402418489E+02  0.16243571923E+03  0.21693548532E+03  0.82060447586E+02 0.  0.
          5    1    5    5  501    0  0.15877674938E+03 -0.55828918633E+02  0.38775499415E+02  0.17277891553E+03  0.47000000000E+01 0. -1.
        -13    1    6    6    0    0  0.11922151063E+03 -0.19290703644E+02  0.10692840064E+03  0.16130586694E+03  0.00000000000E+00 0.  1.
         14    1    6    6    0    0 -0.22912514284E+01  0.28882851546E+01  0.55507318591E+02  0.55629618382E+02  0.00000000000E+00 0. -1.
         -5    1    3    3    0  503 -0.21664598255E+03  0.79449273298E+02 -0.82097508966E+03  0.85280118236E+03  0.47000000000E+01 0.  1.
         13    1    4    4    0    0 -0.67559111455E+02 -0.81880266418E+01 -0.27251954002E+03  0.28088819309E+03  0.00000000000E+00 0. -1.
        -14    1    4    4    0    0  0.84980854315E+01  0.97009046668E+00  0.86486652087E+00  0.85968904618E+01  0.00000000000E+00 0.  1.
<mgrwt>
<rscale>  2 0.33359842E+03</rscale>
<asrwt>0</asrwt>
<pdfrwt beam="1">  1       21 0.49275547E-01 0.33375344E+03</pdfrwt>
<pdfrwt beam="2">  1       21 0.18641687E+00 0.33375344E+03</pdfrwt>
<totfact> 0.57151853E+02</totfact>
</mgrwt>
</event>
<event>
12    1  0.1013215E-001  0.2918039E+03  0.7546771E-02  0.1089689E+00
         21   -1    0    0  501  502  0.00000000000E+00  0.00000000000E+00  0.11267336328E+03  0.11267336328E+03  0.00000000000E+00 0. -1.
         21   -1    0    0  502  503 -0.00000000000E+00 -0.00000000000E+00 -0.98109743829E+03  0.98109743829E+03  0.00000000000E+00 0.  1.
         -6    2    1    2    0  503 -0.21616364713E+03  0.92874275032E+02 -0.69830387296E+03  0.75599812391E+03  0.16897488295E+03 0.  0.
        -24    2    3    3    0    0 -0.90027599043E+02  0.76825344646E+02 -0.23659325340E+03  0.27707573249E+03  0.82386235571E+02 0.  0.
          6    2    1    2  501    0  0.21616364713E+03 -0.92874275032E+02 -0.17012020206E+03  0.33777267766E+03  0.17261849647E+03 0.  0.
         24    2    5    5    0    0  0.50440683251E+02 -0.41553436203E+02 -0.11756438305E+03  0.15643836385E+03  0.79878826573E+02 0.  0.
          5    1    5    5  501    0  0.16572296388E+03 -0.51320838829E+02 -0.52555819003E+02  0.18133431381E+03  0.47000000000E+01 0. -1.
        -13    1    6    6    0    0  0.70484921876E+02 -0.42524858234E+02 -0.86111246030E+02  0.11912864673E+03  0.00000000000E+00 0.  1.
         14    1    6    6    0    0 -0.20044238625E+02  0.97142203086E+00 -0.31453137023E+02  0.37309717118E+02  0.00000000000E+00 0. -1.
         -5    1    3    3    0  503 -0.12613604808E+03  0.16048930386E+02 -0.46171061955E+03  0.47892239142E+03  0.47000000000E+01 0.  1.
         13    1    4    4    0    0 -0.14648704934E+01 -0.15822808053E+02 -0.22387379602E+02  0.27453631193E+02  0.00000000000E+00 0. -1.
        -14    1    4    4    0    0 -0.88562728550E+02  0.92648152699E+02 -0.21420587380E+03  0.24962210130E+03  0.00000000000E+00 0.  1.
<mgrwt>
<rscale>  2 0.29126727E+03</rscale>
<asrwt>0</asrwt>
<pdfrwt beam="1">  1       21 0.17334364E-01 0.29180387E+03</pdfrwt>
<pdfrwt beam="2">  1       21 0.15093807E+00 0.29180387E+03</pdfrwt>
<totfact> 0.83005916E+03</totfact>
</mgrwt>
</event>
<event>
12    1  0.1013215E-001  0.3510044E+03  0.7546771E-02  0.1062327E+00
         21   -1    0    0  501  502  0.00000000000E+00  0.00000000000E+00  0.17959157034E+03  0.17959157034E+03  0.00000000000E+00 0. -1.
         21   -1    0    0  502  503 -0.00000000000E+00 -0.00000000000E+00 -0.70223999360E+03  0.70223999360E+03  0.00000000000E+00 0.  1.
         -6    2    1    2    0  503  0.30234001708E+03 -0.35533115776E+02 -0.33258052603E+03  0.48267005609E+03  0.17230347792E+03 0.  0.
        -24    2    3    3    0    0  0.12635421673E+03  0.43123033562E+02 -0.12404890938E+03  0.19865365358E+03  0.79057941105E+02 0.  0.
          6    2    1    2  501    0 -0.30234001708E+03  0.35533115776E+02 -0.19006789723E+03  0.39916150785E+03  0.17473412816E+03 0.  0.
         24    2    5    5    0    0 -0.28088970198E+03  0.32083185792E+02 -0.10428217352E+03  0.31054266997E+03  0.75057462444E+02 0.  0.
          5    1    5    5  501    0 -0.21450315099E+02  0.34499299838E+01 -0.85785723706E+02  0.88618837876E+02  0.47000000000E+01 0. -1.
        -11    1    6    6    0    0 -0.58639304520E+02  0.20676090792E+02 -0.54084090558E+02  0.82408480246E+02  0.00000000000E+00 0.  1.
         12    1    6    6    0    0 -0.22225039746E+03  0.11407095000E+02 -0.50198082965E+02  0.22813418973E+03  0.00000000000E+00 0. -1.
         -5    1    3    3    0  503  0.17598580036E+03 -0.78656149338E+02 -0.20853161665E+03  0.28401640251E+03  0.47000000000E+01 0.  1.
         11    1    4    4    0    0  0.12877039210E+03  0.29641101694E+02 -0.12843535814E+03  0.18427167447E+03  0.00000000000E+00 0. -1.
        -12    1    4    4    0    0 -0.24161753672E+01  0.13481931868E+02  0.43864487617E+01  0.14381979107E+02  0.00000000000E+00 0.  1.
<mgrwt>
<rscale>  2 0.35070312E+03</rscale>
<asrwt>0</asrwt>
<pdfrwt beam="1">  1       21 0.27629471E-01 0.35100442E+03</pdfrwt>
<pdfrwt beam="2">  1       21 0.10803693E+00 0.35100442E+03</pdfrwt>
<totfact> 0.78139647E+03</totfact>
</mgrwt>
</event>
<event>
12    1  0.1013215E-001  0.2107551E+03  0.7546771E-02  0.1141279E+00
         21   -1    0    0  501  502  0.00000000000E+00  0.00000000000E+00  0.19043398568E+03  0.19043398568E+03  0.00000000000E+00 0. -1.
         21   -1    0    0  502  503 -0.00000000000E+00 -0.00000000000E+00 -0.68958815798E+03  0.68958815798E+03  0.00000000000E+00 0.  1.
         -6    2    1    2    0  503 -0.88900119386E+02  0.80512055968E+02 -0.60851023690E+03  0.64397391320E+03  0.17329821144E+03 0.  0.
        -24    2    3    3    0    0 -0.63689876443E+02  0.98704536798E+02 -0.27710813069E+03  0.31108358785E+03  0.78645385070E+02 0.  0.
          6    2    1    2  501    0  0.88900119386E+02 -0.80512055968E+02  0.10935606459E+03  0.23604823046E+03  0.17139018600E+03 0.  0.
         24    2    5    5    0    0  0.34731714477E+02 -0.32537400547E+02 -0.12962469538E+02  0.93852247944E+02  0.79845127608E+02 0.  0.
          5    1    5    5  501    0  0.54168404910E+02 -0.47974655421E+02  0.12231853413E+03  0.14219598252E+03  0.47000000000E+01 0. -1.
        -13    1    6    6    0    0  0.10104160902E+02  0.23297386154E+02  0.11791031812E+02  0.27998048153E+02  0.00000000000E+00 0.  1.
         14    1    6    6    0    0  0.24627553575E+02 -0.55834786701E+02 -0.24753501350E+02  0.65854199791E+02  0.00000000000E+00 0. -1.
         -5    1    3    3    0  503 -0.25210242943E+02 -0.18192480830E+02 -0.33140210621E+03  0.33289032534E+03  0.47000000000E+01 0.  1.
         13    1    4    4    0    0 -0.40317192631E+02  0.37016717979E+01 -0.54218202446E+02  0.67666770812E+02  0.00000000000E+00 0. -1.
        -14    1    4    4    0    0 -0.23372683813E+02  0.95002865000E+02 -0.22288992824E+03  0.24341681704E+03  0.00000000000E+00 0.  1.
<mgrwt>
<rscale>  2 0.21036243E+03</rscale>
<asrwt>0</asrwt>
<pdfrwt beam="1">  1       21 0.29297537E-01 0.21075505E+03</pdfrwt>
<pdfrwt beam="2">  1       21 0.10609048E+00 0.21075505E+03</pdfrwt>
<totfact> 0.78488280E+03</totfact>
</mgrwt>
</event>
<event>
12    1  0.1013215E-001  0.1939809E+03  0.7546771E-02  0.1155094E+00
         21   -1    0    0  503  502  0.00000000000E+00  0.00000000000E+00  0.76075966526E+03  0.76075966526E+03  0.00000000000E+00 0. -1.
         21   -1    0    0  501  503 -0.00000000000E+00 -0.00000000000E+00 -0.56557840910E+02  0.56557840910E+02  0.00000000000E+00 0. -1.
          6    2    1    2  501    0 -0.76445962188E+02 -0.42188426433E+02  0.20592474497E+03  0.28290210326E+03  0.17321879510E+03 0.  0.
         24    2    3    3    0    0 -0.44298938041E+02  0.11876077984E+02  0.19900666699E+03  0.21944856433E+03  0.80315513703E+02 0.  0.
         -6    2    1    2    0  502  0.76445962188E+02  0.42188426433E+02  0.49827707939E+03  0.53441540292E+03  0.17232506078E+03 0.  0.
        -24    2    5    5    0    0  0.13709124090E+02  0.23561972884E+02  0.43467373128E+03  0.44303525455E+03  0.81215007562E+02 0.  0.
          5    1    3    3  501    0 -0.32147024147E+02 -0.54064504416E+02  0.69180779796E+01  0.63453538926E+02  0.47000000000E+01 0. -1.
        -13    1    4    4    0    0  0.18346223473E+02  0.22318779606E+02  0.66706084378E+02  0.72693971771E+02  0.00000000000E+00 0.  1.
         14    1    4    4    0    0 -0.62645161514E+02 -0.10442701623E+02  0.13230058261E+03  0.14675459256E+03  0.00000000000E+00 0. -1.
         -5    1    5    5    0  502  0.62736838098E+02  0.18626453548E+02  0.63603348104E+02  0.91380148371E+02  0.47000000000E+01 0.  1.
         11    1    6    6    0    0  0.27172886154E+02  0.33804553059E+02  0.11488430868E+03  0.12279868863E+03  0.00000000000E+00 0. -1.
        -12    1    6    6    0    0 -0.13463762064E+02 -0.10242580175E+02  0.31978942261E+03  0.32023656592E+03  0.00000000000E+00 0.  1.
<mgrwt>
<rscale>  2 0.19378120E+03</rscale>
<asrwt>0</asrwt>
<pdfrwt beam="1">  1       21 0.11703994E+00 0.19398093E+03</pdfrwt>
<pdfrwt beam="2">  1       21 0.87012068E-02 0.19398093E+03</pdfrwt>
<totfact> 0.58166839E+04</totfact>
</mgrwt>
</event>
<event>
12    1  0.1013215E-001  0.2370364E+03  0.7546771E-02  0.1122274E+00
         21   -1    0    0  503  502  0.00000000000E+00  0.00000000000E+00  0.99821650651E+03  0.99821650651E+03  0.00000000000E+00 0.  1.
         21   -1    0    0  501  503 -0.00000000000E+00 -0.00000000000E+00 -0.11595489151E+03  0.11595489151E+03  0.00000000000E+00 0.  1.
          6    2    1    2  501    0 -0.14684867445E+03  0.67324515680E+02  0.37942814442E+02  0.23721046503E+03  0.16950523281E+03 0.  0.
         24    2    3    3    0    0 -0.92368893993E+02  0.40760317358E+01 -0.32361977922E+02  0.12797095281E+03  0.82344644851E+02 0.  0.
         -6    2    1    2    0  502  0.14684867445E+03 -0.67324515680E+02  0.84431880055E+03  0.87696093299E+03  0.17346214981E+03 0.  0.
        -24    2    5    5    0    0  0.10300464126E+02 -0.64724640318E+02  0.44773853031E+03  0.45749678215E+03  0.67365685059E+02 0.  0.
          5    1    3    3  501    0 -0.54479780458E+02  0.63248483944E+02  0.70304792364E+02  0.10923951222E+03  0.47000000000E+01 0. -1.
        -13    1    4    4    0    0 -0.93336932665E+01  0.33813907631E+02 -0.14626944619E+02  0.38005863865E+02  0.00000000000E+00 0.  1.
         14    1    4    4    0    0 -0.83035200726E+02 -0.29737875895E+02 -0.17735033303E+02  0.89965088944E+02  0.00000000000E+00 0. -1.
         -5    1    5    5    0  502  0.13654821033E+03 -0.25998753620E+01  0.39658027024E+03  0.41946415084E+03  0.47000000000E+01 0.  1.
         13    1    6    6    0    0 -0.11278381365E+02 -0.27802101759E+02  0.56900148091E+02  0.64325621654E+02  0.00000000000E+00 0. -1.
        -14    1    6    6    0    0  0.21578845491E+02 -0.36922538559E+02  0.39083838222E+03  0.39317116049E+03  0.00000000000E+00 0.  1.
<mgrwt>
<rscale>  2 0.23631304E+03</rscale>
<asrwt>0</asrwt>
<pdfrwt beam="1">  1       21 0.15357176E+00 0.23703637E+03</pdfrwt>
<pdfrwt beam="2">  1       21 0.17839215E-01 0.23703637E+03</pdfrwt>
<totfact> 0.77600754E+03</totfact>
</mgrwt>
</event>
<event>
11    1  0.1013215E-001  0.1783148E+03  0.7546771E-02  0.1169491E+00
         21   -1    0    0  503  502  0.00000000000E+00  0.00000000000E+00  0.17341341941E+04  0.17341341941E+04  0.00000000000E+00 0.  1.
         21   -1    0    0  501  503 -0.00000000000E+00 -0.00000000000E+00 -0.20921576613E+02  0.20921576613E+02  0.00000000000E+00 0.  1.
          6    2    1    2  501    0  0.25356166502E+02  0.33204480679E+02  0.11658971755E+04  0.11794253588E+04  0.17315449838E+03 0.  0.
         -6    2    1    2    0  502 -0.25356166502E+02 -0.33204480679E+02  0.54731544193E+03  0.57563041190E+03  0.17335139289E+03 0.  0.
        -24    2    4    4    0    0  0.53171488860E+02 -0.11606342338E+02  0.26358325570E+03  0.28040318460E+03  0.78663198769E+02 0.  0.
          5    1    3    3  501    0  0.56456276622E+02  0.38388950241E+02  0.19033705880E+03  0.20226544100E+03  0.47000000000E+01 0. -1.
        -11    1    3    3    0    0 -0.19105874867E+02  0.18083751560E+02  0.65683006589E+03  0.65735667029E+03  0.00000000000E+00 0.  1.
         12    1    3    3    0    0 -0.11994235253E+02 -0.23268221121E+02  0.31873005086E+03  0.31980324750E+03  0.00000000000E+00 0. -1.
         -5    1    4    4    0  502 -0.78527655362E+02 -0.21598138342E+02  0.28373218623E+03  0.29522722730E+03  0.47000000000E+01 0.  1.
         11    1    5    5    0    0 -0.66721907999E+01  0.13134606230E+02  0.14099366888E+03  0.14176124532E+03  0.00000000000E+00 0. -1.
        -12    1    5    5    0    0  0.59843679660E+02 -0.24740948568E+02  0.12258958682E+03  0.13864193928E+03  0.00000000000E+00 0.  1.
<mgrwt>
<rscale>  2 0.17826696E+03</rscale>
<asrwt>0</asrwt>
<pdfrwt beam="1">  1       21 0.26678976E+00 0.17831483E+03</pdfrwt>
<pdfrwt beam="2">  1       21 0.32187055E-02 0.17831483E+03</pdfrwt>
<totfact> 0.30262363E+04</totfact>
</mgrwt>
</event>
<event>
12    1  0.1013215E-001  0.1785994E+03  0.7546771E-02  0.1169210E+00
         21   -1    0    0  501  502  0.00000000000E+00  0.00000000000E+00  0.34743297370E+02  0.34743297370E+02  0.00000000000E+00 0. -1.
         21   -1    0    0  502  503 -0.00000000000E+00 -0.00000000000E+00 -0.12023570557E+04  0.12023570557E+04  0.00000000000E+00 0. -1.
         -6    2    1    2    0  503  0.11904330937E+02 -0.44219484421E+02 -0.88483089535E+03  0.90263973691E+03  0.17244044010E+03 0.  0.
        -24    2    3    3    0    0 -0.38256537242E+02 -0.61087435306E+02 -0.38967695555E+03  0.40464359780E+03  0.81811210494E+02 0.  0.
          6    2    1    2  501    0 -0.11904330937E+02  0.44219484421E+02 -0.28278286297E+03  0.33446061615E+03  0.17262873535E+03 0.  0.
         24    2    5    5    0    0 -0.39597519699E+02  0.87247123703E+02 -0.24623804122E+03  0.27140584280E+03  0.62031720928E+02 0.  0.
          5    1    5    5  501    0  0.27693188761E+02 -0.43027639282E+02 -0.36544821753E+02  0.63054773355E+02  0.47000000000E+01 0. -1.
        -13    1    6    6    0    0 -0.85281199464E+01 -0.80629198836E+01 -0.46032218273E+02  0.47504785296E+02  0.00000000000E+00 0.  1.
         14    1    6    6    0    0 -0.31069399752E+02  0.95310043587E+02 -0.20020582294E+03  0.22390105750E+03  0.00000000000E+00 0. -1.
         -5    1    3    3    0  503  0.50160868179E+02  0.16867950884E+02 -0.49515393981E+03  0.49799613911E+03  0.47000000000E+01 0.  1.
         13    1    4    4    0    0  0.15202151632E+02 -0.50411208076E+02 -0.15430837492E+03  0.16304438011E+03  0.00000000000E+00 0. -1.
        -14    1    4    4    0    0 -0.53458688874E+02 -0.10676227230E+02 -0.23536858062E+03  0.24159921769E+03  0.00000000000E+00 0.  1.
<mgrwt>
<rscale>  2 0.17855391E+03</rscale>
<asrwt>0</asrwt>
<pdfrwt beam="1">  1       21 0.53451237E-02 0.17859943E+03</pdfrwt>
<pdfrwt beam="2">  1       21 0.18497797E+00 0.17859943E+03</pdfrwt>
<totfact> 0.40820680E+04</totfact>
</mgrwt>
</event>
<event>
12    1  0.1013215E-001  0.3073578E+03  0.7546771E-02  0.1081732E+00
         21   -1    0    0  503  502  0.00000000000E+00  0.00000000000E+00  0.15043764666E+04  0.15043764666E+04  0.00000000000E+00 0. -1.
         21   -1    0    0  501  503 -0.00000000000E+00 -0.00000000000E+00 -0.70164972653E+02  0.70164972653E+02  0.00000000000E+00 0.  1.
          6    2    1    2  501    0 -0.25329752063E+03  0.36043327698E+01  0.97645447743E+03  0.10236855685E+04  0.17405795452E+03 0.  0.
         24    2    3    3    0    0 -0.11787061770E+03 -0.53516987451E+02  0.61308565279E+03  0.63168775733E+03  0.79986590339E+02 0.  0.
         -6    2    1    2    0  502  0.25329752063E+03 -0.36043327698E+01  0.45775701652E+03  0.55085587073E+03  0.17241832554E+03 0.  0.
        -24    2    5    5    0    0  0.11216072761E+03  0.59281495452E+02  0.20850371305E+03  0.25755820449E+03  0.82268498372E+02 0.  0.
          5    1    3    3  501    0 -0.13542690293E+03  0.57121320221E+02  0.36336882463E+03  0.39199781119E+03  0.47000000000E+01 0. -1.
        -11    1    4    4    0    0 -0.21198079111E+02 -0.41923833869E+02  0.11591716453E+03  0.12507499925E+03  0.00000000000E+00 0.  1.
         12    1    4    4    0    0 -0.96672538585E+02 -0.11593153582E+02  0.49716848826E+03  0.50661275808E+03  0.00000000000E+00 0. -1.
         -5    1    5    5    0  502  0.14113679302E+03 -0.62885828222E+02  0.24925330346E+03  0.29329766624E+03  0.47000000000E+01 0.  1.
         11    1    6    6    0    0  0.64348742766E+02  0.44471477580E+02  0.18771370669E+03  0.20335906346E+03  0.00000000000E+00 0. -1.
        -12    1    6    6    0    0  0.47811984841E+02  0.14810017872E+02  0.20790006365E+02  0.54199141031E+02  0.00000000000E+00 0.  1.
<mgrwt>
<rscale>  2 0.30712612E+03</rscale>
<asrwt>0</asrwt>
<pdfrwt beam="1">  1       21 0.23144251E+00 0.30735777E+03</pdfrwt>
<pdfrwt beam="2">  1       21 0.10794612E-01 0.30735777E+03</pdfrwt>
<totfact> 0.55570116E+03</totfact>
</mgrwt>
</event>
<event>
12    1  0.1013215E-001  0.1875613E+03  0.7546771E-02  0.1161558E+00
         21   -1    0    0  503  502  0.00000000000E+00  0.00000000000E+00  0.25826201295E+04  0.25826201295E+04  0.00000000000E+00 0. -1.
         21   -1    0    0  501  503 -0.00000000000E+00 -0.00000000000E+00 -0.13557082778E+02  0.13557082778E+02  0.00000000000E+00 0. -1.
          6    2    1    2  501    0 -0.56139950437E+02  0.21532582500E+02  0.11103305437E+04  0.11254359812E+04  0.17365737883E+03 0.  0.
         24    2    3    3    0    0 -0.72995492814E+02  0.22714366746E+02  0.10988701429E+04  0.11044851647E+04  0.80793587136E+02 0.  0.
         -6    2    1    2    0  502  0.56139950437E+02 -0.21532582500E+02  0.14587325030E+04  0.14707412311E+04  0.17766234114E+03 0.  0.
        -24    2    5    5    0    0 -0.14090692829E+02 -0.59001046230E+02  0.58387360032E+03  0.59225593322E+03  0.78606858490E+02 0.  0.
          5    1    3    3  501    0  0.16855542378E+02 -0.11817842452E+01  0.11460400864E+02  0.20950816471E+02  0.47000000000E+01 0. -1.
        -13    1    4    4    0    0 -0.16257974290E+02  0.61292960975E+01  0.77931736613E+03  0.77951103080E+03  0.00000000000E+00 0.  1.
         14    1    4    4    0    0 -0.56737518524E+02  0.16585070648E+02  0.31955277674E+03  0.32497413390E+03  0.00000000000E+00 0. -1.
         -5    1    5    5    0  502  0.70230643265E+02  0.37468463729E+02  0.87485890265E+03  0.87848529787E+03  0.47000000000E+01 0.  1.
         11    1    6    6    0    0  0.29418842613E+02 -0.33498419682E+02  0.36129077801E+03  0.36403109578E+03  0.00000000000E+00 0. -1.
        -12    1    6    6    0    0 -0.43509535442E+02 -0.25502626548E+02  0.22258282232E+03  0.22822483744E+03  0.00000000000E+00 0.  1.
<mgrwt>
<rscale>  2 0.18660679E+03</rscale>
<asrwt>0</asrwt>
<pdfrwt beam="1">  1       21 0.39732578E+00 0.18756133E+03</pdfrwt>
<pdfrwt beam="2">  1       21 0.20857071E-02 0.18756133E+03</pdfrwt>
<totfact> 0.10474872E+04</totfact>
</mgrwt>
</event>
<event>
12    1  0.1013215E-001  0.2542018E+03  0.7546771E-02  0.1110929E+00
         21   -1    0    0  503  502  0.00000000000E+00  0.00000000000E+00  0.22082716522E+03  0.22082716522E+03  0.00000000000E+00 0.  1.
         21   -1    0    0  501  503 -0.00000000000E+00 -0.00000000000E+00 -0.32184038869E+03  0.32184038869E+03  0.00000000000E+00 0.  1.
          6    2    1    2  501    0  0.22075135470E+02  0.18404291673E+03  0.33665204891E+02  0.25642135213E+03  0.17395245616E+03 0.  0.
         24    2    3    3    0    0 -0.10733051469E+02  0.15232294656E+03 -0.32458477132E+02  0.17594175868E+03  0.81144755013E+02 0.  0.
         -6    2    1    2    0  502 -0.22075135470E+02 -0.18404291673E+03 -0.13467842836E+03  0.28624620178E+03  0.17157943396E+03 0.  0.
        -24    2    5    5    0    0  0.62233555193E+01 -0.47807168523E+02 -0.11951851456E+01  0.93370983300E+02  0.79952839466E+02 0.  0.
          5    1    3    3  501    0  0.32808186939E+02  0.31719970170E+02  0.66123682022E+02  0.80479593451E+02  0.47000000000E+01 0. -1.
        -11    1    4    4    0    0 -0.46452263410E+01  0.12633949994E+03  0.88811352229E+01  0.12673642703E+03  0.00000000000E+00 0.  1.
         12    1    4    4    0    0 -0.60878251280E+01  0.25983446620E+02 -0.41339612354E+02  0.49205331649E+02  0.00000000000E+00 0. -1.
         -5    1    5    5    0  502 -0.28298490990E+02 -0.13623574821E+03 -0.13348324322E+03  0.19287521848E+03  0.47000000000E+01 0.  1.
         11    1    6    6    0    0  0.15363593977E+02 -0.64064535126E+02  0.16225788243E+02  0.67849693330E+02  0.00000000000E+00 0. -1.
        -12    1    6    6    0    0 -0.91402384575E+01  0.16257366603E+02 -0.17420973388E+02  0.25521289970E+02  0.00000000000E+00 0.  1.
<mgrwt>
<rscale>  2 0.25379636E+03</rscale>
<asrwt>0</asrwt>
<pdfrwt beam="1">  1       21 0.33973410E-01 0.25420182E+03</pdfrwt>
<pdfrwt beam="2">  1       21 0.49513905E-01 0.25420182E+03</pdfrwt>
<totfact> 0.31496054E+04</totfact>
</mgrwt>
</event>
<event>
12    1  0.1013215E-001  0.1808734E+03  0.7546771E-02  0.1167200E+00
         21   -1    0    0  501  502  0.00000000000E+00  0.00000000000E+00  0.32159184239E+03  0.32159184239E+03  0.00000000000E+00 0.  1.
         21   -1    0    0  502  503 -0.00000000000E+00 -0.00000000000E+00 -0.13086120653E+03  0.13086120653E+03  0.00000000000E+00 0. -1.
         -6    2    1    2    0  503 -0.44076845581E+02 -0.15756599980E+02 -0.12592527955E+02  0.18032164548E+03  0.17368444176E+03 0.  0.
        -24    2    3    3    0    0  0.31571670193E+02 -0.31771645214E+02  0.22504239924E+02  0.95274289679E+02  0.81021859154E+02 0.  0.
          6    2    1    2  501    0  0.44076845581E+02  0.15756599980E+02  0.20332316381E+03  0.27213140344E+03  0.17471162823E+03 0.  0.
         24    2    5    5    0    0  0.64951432387E+02  0.67586542850E+02  0.13149144706E+03  0.18100524428E+03  0.81769605984E+02 0.  0.
          5    1    5    5  501    0 -0.20874586806E+02 -0.51829942871E+02  0.71831716753E+02  0.91126159164E+02  0.47000000000E+01 0. -1.
        -13    1    6    6    0    0  0.80259851587E+02  0.35226977521E+02  0.82840291935E+02  0.12060305838E+03  0.00000000000E+00 0.  1.
         14    1    6    6    0    0 -0.15308419200E+02  0.32359565330E+02  0.48651155122E+02  0.60402185899E+02  0.00000000000E+00 0. -1.
         -5    1    3    3    0  503 -0.75648515775E+02  0.16015045234E+02 -0.35096767879E+02  0.85047355798E+02  0.47000000000E+01 0.  1.
         11    1    4    4    0    0  0.33396048055E+01 -0.54743191587E+02  0.55588048976E+01  0.55125949400E+02  0.00000000000E+00 0. -1.
        -12    1    4    4    0    0  0.28232065388E+02  0.22971546374E+02  0.16945435026E+02  0.40148340278E+02  0.00000000000E+00 0.  1.
<mgrwt>
<rscale>  2 0.18062490E+03</rscale>
<asrwt>0</asrwt>
<pdfrwt beam="1">  1       21 0.49475668E-01 0.18087341E+03</pdfrwt>
<pdfrwt beam="2">  1       21 0.20132493E-01 0.18087341E+03</pdfrwt>
<totfact> 0.89219499E+04</totfact>
</mgrwt>
</event>
<event>
12    1  0.1013215E-001  0.2093889E+03  0.7546771E-02  0.1142220E+00
         21   -1    0    0  503  502  0.00000000000E+00  0.00000000000E+00  0.33244205667E+03  0.33244205667E+03  0.00000000000E+00 0. -1.
         21   -1    0    0  501  503 -0.00000000000E+00 -0.00000000000E+00 -0.13604400185E+03  0.13604400185E+03  0.00000000000E+00 0. -1.
          6    2    1    2  501    0 -0.91445634457E+02  0.73392437777E+02  0.14190214137E+03  0.25294251528E+03  0.17347894491E+03 0.  0.
         24    2    3    3    0    0  0.81527478118E+01  0.10376983585E+02  0.22742710163E+02  0.85276641402E+02  0.81121671691E+02 0.  0.
         -6    2    1    2    0  502  0.91445634457E+02 -0.73392437777E+02  0.54495913446E+02  0.21554354324E+03  0.17245422716E+03 0.  0.
        -24    2    5    5    0    0  0.13127565083E+03 -0.66057855267E+02  0.54787152174E+02  0.17477098966E+03  0.77112450612E+02 0.  0.
          5    1    3    3  501    0 -0.99598382269E+02  0.63015454193E+02  0.11915943121E+03  0.16766587388E+03  0.47000000000E+01 0. -1.
        -11    1    4    4    0    0 -0.12970501224E+02 -0.30769757337E+02  0.20044466127E+02  0.38946020219E+02  0.00000000000E+00 0.  1.
         12    1    4    4    0    0  0.21123249036E+02  0.41146740921E+02  0.26982440363E+01  0.46330621183E+02  0.00000000000E+00 0. -1.
         -5    1    5    5    0  502 -0.39830016378E+02 -0.73345825102E+01 -0.29123872844E+00  0.40772553578E+02  0.47000000000E+01 0.  1.
         11    1    6    6    0    0  0.58943866907E+02 -0.28137899736E+02  0.65382701780E+02  0.92417631107E+02  0.00000000000E+00 0. -1.
        -12    1    6    6    0    0  0.72331783928E+02 -0.37919955532E+02 -0.10595549606E+02  0.82353358554E+02  0.00000000000E+00 0.  1.
<mgrwt>
<rscale>  2 0.20917650E+03</rscale>
<asrwt>0</asrwt>
<pdfrwt beam="1">  1       21 0.51144931E-01 0.20938887E+03</pdfrwt>
<pdfrwt beam="2">  1       21 0.20929847E-01 0.20938887E+03</pdfrwt>
<totfact> 0.76494395E+04</totfact>
</mgrwt>
</event>
<event>
12    1  0.1013215E-001  0.1770218E+03  0.7546771E-02  0.1170907E+00
         21   -1    0    0  501  502  0.00000000000E+00  0.00000000000E+00  0.77096960229E+02  0.77096960229E+02  0.00000000000E+00 0. -1.
         21   -1    0    0  502  503 -0.00000000000E+00 -0.00000000000E+00 -0.59933584893E+03  0.59933584893E+03  0.00000000000E+00 0. -1.
         -6    2    1    2    0  503 -0.17413417053E+02  0.28792454425E+02 -0.45424326989E+03  0.48751785331E+03  0.17379435127E+03 0.  0.
        -24    2    3    3    0    0  0.40174468235E+02  0.57338174676E+01 -0.13698827865E+03  0.16422095457E+03  0.80968320170E+02 0.  0.
          6    2    1    2  501    0  0.17413417053E+02 -0.28792454425E+02 -0.67995618805E+02  0.18891495584E+03  0.17301220720E+03 0.  0.
         24    2    5    5    0    0  0.35670111821E+02 -0.60690977972E+02  0.56560407165E+01  0.10646812656E+03  0.79672576788E+02 0.  0.
          5    1    5    5  501    0 -0.18256694768E+02  0.31898523547E+02 -0.73651659522E+02  0.82446829282E+02  0.47000000000E+01 0. -1.
        -11    1    6    6    0    0  0.45114676539E+02 -0.15633093980E+02 -0.22204568152E+02  0.52657103162E+02  0.00000000000E+00 0.  1.
         12    1    6    6    0    0 -0.94445647182E+01 -0.45057883992E+02  0.27860608869E+02  0.53811023398E+02  0.00000000000E+00 0. -1.
         -5    1    3    3    0  503 -0.57587885288E+02  0.23058636957E+02 -0.31725499124E+03  0.32329689874E+03  0.47000000000E+01 0.  1.
         11    1    4    4    0    0 -0.21258845186E+01  0.26120379091E+02 -0.10292837462E+03  0.10621225867E+03  0.00000000000E+00 0. -1.
        -12    1    4    4    0    0  0.42300352754E+02 -0.20386561624E+02 -0.34059904032E+02  0.58008695905E+02  0.00000000000E+00 0.  1.
<mgrwt>
<rscale>  2 0.17682951E+03</rscale>
<asrwt>0</asrwt>
<pdfrwt beam="1">  1       21 0.11861071E-01 0.17702178E+03</pdfrwt>
<pdfrwt beam="2">  1       21 0.92205516E-01 0.17702178E+03</pdfrwt>
<totfact> 0.59949780E+04</totfact>
</mgrwt>
</event>
<event>
12    1  0.1013215E-001  0.2154223E+03  0.7546771E-02  0.1139068E+00
         21   -1    0    0  503  502  0.00000000000E+00  0.00000000000E+00  0.45682538636E+02  0.45682538636E+02  0.00000000000E+00 0.  1.
         21   -1    0    0  501  503 -0.00000000000E+00 -0.00000000000E+00 -0.10770933277E+04  0.10770933277E+04  0.00000000000E+00 0. -1.
          6    2    1    2  501    0 -0.38845105745E+02  0.10697367655E+03 -0.67899243086E+03  0.70973173141E+03  0.17244158340E+03 0.  0.
         24    2    3    3    0    0 -0.85112877190E+02  0.66674730749E+02 -0.35003483180E+03  0.37506786469E+03  0.80385310013E+02 0.  0.
         -6    2    1    2    0  502  0.38845105745E+02 -0.10697367655E+03 -0.35241835818E+03  0.41304413490E+03  0.18290557258E+03 0.  0.
        -24    2    5    5    0    0 -0.37881126304E+02 -0.18880651562E+02 -0.10072977393E+03  0.13552561448E+03  0.80182579719E+02 0.  0.
          5    1    3    3  501    0  0.46267771445E+02  0.40298945806E+02 -0.32895759907E+03  0.33466386672E+03  0.47000000000E+01 0. -1.
        -11    1    4    4    0    0 -0.83893639356E+02  0.82904146404E+02 -0.29593622768E+03  0.31857415317E+03  0.00000000000E+00 0.  1.
         12    1    4    4    0    0 -0.12192378340E+01 -0.16229415656E+02 -0.54098604116E+02  0.56493711515E+02  0.00000000000E+00 0. -1.
         -5    1    5    5    0  502  0.76726232049E+02 -0.88093024993E+02 -0.25168858425E+03  0.27751852042E+03  0.47000000000E+01 0.  1.
         11    1    6    6    0    0  0.14721704137E+02  0.16105050341E+02 -0.78332904778E+01  0.23183219339E+02  0.00000000000E+00 0. -1.
        -12    1    6    6    0    0 -0.52602830442E+02 -0.34985701903E+02 -0.92896483451E+02  0.11234239514E+03  0.00000000000E+00 0.  1.
<mgrwt>
<rscale>  2 0.21318503E+03</rscale>
<asrwt>0</asrwt>
<pdfrwt beam="1">  1       21 0.70280830E-02 0.21542228E+03</pdfrwt>
<pdfrwt beam="2">  1       21 0.16570666E+00 0.21542228E+03</pdfrwt>
<totfact> 0.33897481E+04</totfact>
</mgrwt>
</event>
<event>
12    1  0.1013215E-001  0.1959531E+03  0.7546771E-02  0.1153817E+00
         21   -1    0    0  501  502  0.00000000000E+00  0.00000000000E+00  0.14943197184E+04  0.14943197184E+04  0.00000000000E+00 0. -1.
         21   -1    0    0  502  503 -0.00000000000E+00 -0.00000000000E+00 -0.31419654791E+02  0.31419654791E+02  0.00000000000E+00 0. -1.
         -6    2    1    2    0  503 -0.86275853363E+02 -0.29715559126E+02  0.39119448531E+03  0.43626680768E+03  0.17020301060E+03 0.  0.
        -24    2    3    3    0    0 -0.73005020414E+02  0.66980497234E+01  0.11814607185E+03  0.16044151513E+03  0.80052411632E+02 0.  0.
          6    2    1    2  501    0  0.86275853363E+02  0.29715559126E+02  0.10717055783E+04  0.10894725655E+04  0.17341017016E+03 0.  0.
         24    2    5    5    0    0 -0.11675036818E+02  0.10775507348E+01  0.67916590046E+03  0.68385698262E+03  0.79098575969E+02 0.  0.
          5    1    5    5  501    0  0.97950890181E+02  0.28638008392E+02  0.39253967784E+03  0.40561558290E+03  0.47000000000E+01 0. -1.
        -11    1    6    6    0    0 -0.53096260947E+01  0.34946007773E+02  0.17611865180E+03  0.17963071870E+03  0.00000000000E+00 0.  1.
         12    1    6    6    0    0 -0.63654107230E+01 -0.33868457038E+02  0.50304724867E+03  0.50422626392E+03  0.00000000000E+00 0. -1.
         -5    1    3    3    0  503 -0.13270832950E+02 -0.36413608850E+02  0.27304841346E+03  0.27582529255E+03  0.47000000000E+01 0.  1.
         13    1    4    4    0    0 -0.68386569375E+02 -0.27528905435E+02  0.85830091178E+02  0.11314313084E+03  0.00000000000E+00 0. -1.
        -14    1    4    4    0    0 -0.46184510390E+01  0.34226955159E+02  0.32315980671E+02  0.47298384287E+02  0.00000000000E+00 0.  1.
<mgrwt>
<rscale>  2 0.19524114E+03</rscale>
<asrwt>0</asrwt>
<pdfrwt beam="1">  1       21 0.22989529E+00 0.19595312E+03</pdfrwt>
<pdfrwt beam="2">  1       21 0.48337942E-02 0.19595312E+03</pdfrwt>
<totfact> 0.24881271E+04</totfact>
</mgrwt>
</event>
<event>
12    1  0.1013215E-001  0.1923950E+03  0.7546771E-02  0.1159227E+00
         21   -1    0    0  501  502  0.00000000000E+00  0.00000000000E+00  0.48677193912E+02  0.48677193912E+02  0.00000000000E+00 0. -1.
         21   -1    0    0  502  503 -0.00000000000E+00 -0.00000000000E+00 -0.12645793472E+04  0.12645793472E+04  0.00000000000E+00 0. -1.
         -6    2    1    2    0  503 -0.44604174821E+02  0.17810632821E+02 -0.10537576783E+04  0.10711774309E+04  0.18630376501E+03 0.  0.
        -24    2    3    3    0    0  0.42658744939E+02  0.39693408054E+02 -0.57956291866E+03  0.58850110760E+03  0.83934747230E+02 0.  0.
          6    2    1    2  501    0  0.44604174821E+02 -0.17810632821E+02 -0.16214447498E+03  0.24207911019E+03  0.17321868771E+03 0.  0.
         24    2    5    5    0    0  0.53639014500E+02 -0.42984309177E+02 -0.39694677475E+02  0.11665429121E+03  0.85485446276E+02 0.  0.
          5    1    5    5  501    0 -0.90348396792E+01  0.25173676356E+02 -0.12244979750E+03  0.12542481899E+03  0.47000000000E+01 0. -1.
        -11    1    6    6    0    0 -0.40858559866E+01  0.10988244206E+02 -0.35645765339E+02  0.37524076491E+02  0.00000000000E+00 0.  1.
         12    1    6    6    0    0  0.57724870487E+02 -0.53972553383E+02 -0.40489121353E+01  0.79130214715E+02  0.00000000000E+00 0. -1.
         -5    1    3    3    0  503 -0.87262919760E+02 -0.21882775233E+02 -0.47419475966E+03  0.48267632333E+03  0.47000000000E+01 0.  1.
         11    1    4    4    0    0  0.45038085865E+02 -0.49420094726E+01 -0.43057971031E+03  0.43295697196E+03  0.00000000000E+00 0. -1.
        -12    1    4    4    0    0 -0.23793409265E+01  0.44635417527E+02 -0.14898320835E+03  0.15554413564E+03  0.00000000000E+00 0.  1.
<mgrwt>
<rscale>  2 0.18915375E+03</rscale>
<asrwt>0</asrwt>
<pdfrwt beam="1">  1       21 0.74887981E-02 0.19239502E+03</pdfrwt>
<pdfrwt beam="2">  1       21 0.19455069E+00 0.19239502E+03</pdfrwt>
<totfact> 0.19603225E+04</totfact>
</mgrwt>
</event>
<event>
12    1  0.1013215E-001  0.2629613E+03  0.7546771E-02  0.1105614E+00
         21   -1    0    0  503  502  0.00000000000E+00  0.00000000000E+00  0.12265114123E+04  0.12265114123E+04  0.00000000000E+00 0. -1.
         21   -1    0    0  501  503 -0.00000000000E+00 -0.00000000000E+00 -0.57310907123E+02  0.57310907123E+02  0.00000000000E+00 0. -1.
          6    2    1    2  501    0 -0.19617171158E+03  0.24792678578E+02  0.48714277959E+03  0.55282891222E+03  0.17092016016E+03 0.  0.
         24    2    3    3    0    0 -0.17310009358E+02 -0.26946796605E+02  0.97343318601E+02  0.12081711655E+03  0.63994434946E+02 0.  0.
         -6    2    1    2    0  502  0.19617171158E+03 -0.24792678578E+02  0.68205772562E+03  0.73099340723E+03  0.17335109748E+03 0.  0.
        -24    2    5    5    0    0  0.15089984397E+03 -0.15449076983E+01  0.29839421040E+03  0.34394071862E+03  0.80516852125E+02 0.  0.
          5    1    3    3  501    0 -0.17886170223E+03  0.51739475182E+02  0.38979946099E+03  0.43201179567E+03  0.47000000000E+01 0. -1.
        -13    1    4    4    0    0 -0.21232142622E+02 -0.26725172201E+02  0.10597359730E+03  0.11133481951E+03  0.00000000000E+00 0.  1.
         14    1    4    4    0    0  0.39221332639E+01 -0.22162440321E+00 -0.86302787025E+01  0.94822970423E+01  0.00000000000E+00 0. -1.
         -5    1    5    5    0  502  0.45271867617E+02 -0.23247770880E+02  0.38366351522E+03  0.38705268861E+03  0.47000000000E+01 0.  1.
         13    1    6    6    0    0  0.34600423688E+02 -0.21014121208E+02  0.14450564327E+03  0.15006886268E+03  0.00000000000E+00 0. -1.
        -14    1    6    6    0    0  0.11629942028E+03  0.19469213510E+02  0.15388856712E+03  0.19387185593E+03  0.00000000000E+00 0.  1.
<mgrwt>
<rscale>  2 0.26256130E+03</rscale>
<asrwt>0</asrwt>
<pdfrwt beam="1">  1       21 0.18869404E+00 0.26296125E+03</pdfrwt>
<pdfrwt beam="2">  1       21 0.88170636E-02 0.26296125E+03</pdfrwt>
<totfact> 0.15363943E+04</totfact>
</mgrwt>
</event>
<event>
12    1  0.1013215E-001  0.2288558E+03  0.7546771E-02  0.1128357E+00
         21   -1    0    0  503  502  0.00000000000E+00  0.00000000000E+00  0.16900647142E+03  0.16900647142E+03  0.00000000000E+00 0.  1.
         21   -1    0    0  501  503 -0.00000000000E+00 -0.00000000000E+00 -0.44709780068E+03  0.44709780068E+03  0.00000000000E+00 0.  1.
          6    2    1    2  501    0  0.10046493817E+03  0.10047571670E+03  0.34734077644E+02  0.23147666034E+03  0.17940572646E+03 0.  0.
         24    2    3    3    0    0  0.14528322485E+02  0.99666873978E+02  0.59293874169E+02  0.14197230432E+03  0.80596611324E+02 0.  0.
         -6    2    1    2    0  502 -0.10046493817E+03 -0.10047571670E+03 -0.31282540690E+03  0.38462761175E+03  0.17288750987E+03 0.  0.
        -24    2    5    5    0    0 -0.22763278755E+02  0.10251567581E+02 -0.90115587171E+02  0.12401327376E+03  0.81456807701E+02 0.  0.
          5    1    3    3  501    0  0.85936615682E+02  0.80884271848E+00 -0.24559796525E+02  0.89504356021E+02  0.47000000000E+01 0. -1.
        -13    1    4    4    0    0  0.40888740294E+02  0.26939841554E+02  0.37285576882E+02  0.61545579770E+02  0.00000000000E+00 0.  1.
         14    1    4    4    0    0 -0.26360417809E+02  0.72727032423E+02  0.22008297288E+02  0.80426724549E+02  0.00000000000E+00 0. -1.
         -5    1    5    5    0  502 -0.77701659412E+02 -0.11072728428E+03 -0.22270981973E+03  0.26061433799E+03  0.47000000000E+01 0.  1.
         13    1    6    6    0    0 -0.67687681020E+01 -0.26228350097E+02 -0.18199067363E+01  0.27148750081E+02  0.00000000000E+00 0. -1.
        -14    1    6    6    0    0 -0.15994510653E+02  0.36479917678E+02 -0.88295680434E+02  0.96864523682E+02  0.00000000000E+00 0.  1.
<mgrwt>
<rscale>  2 0.22757684E+03</rscale>
<asrwt>0</asrwt>
<pdfrwt beam="1">  1       21 0.26000995E-01 0.22885582E+03</pdfrwt>
<pdfrwt beam="2">  1       21 0.68784278E-01 0.22885582E+03</pdfrwt>
<totfact> 0.26531957E+04</totfact>
</mgrwt>
</event>
<event>
12    1  0.1013215E-001  0.2006559E+03  0.7546771E-02  0.1149384E+00
         21   -1    0    0  503  502  0.00000000000E+00  0.00000000000E+00  0.39660768441E+02  0.39660768441E+02  0.00000000000E+00 0.  1.
         21   -1    0    0  501  503 -0.00000000000E+00 -0.00000000000E+00 -0.12094321401E+04  0.12094321401E+04  0.00000000000E+00 0. -1.
          6    2    1    2  501    0 -0.33714452523E+02 -0.95393782695E+02 -0.83935668867E+03  0.86300778813E+03  0.17328056286E+03 0.  0.
         24    2    3    3    0    0 -0.66410608089E+02 -0.84137610657E+02 -0.39010743452E+03  0.41240516679E+03  0.80029399199E+02 0.  0.
         -6    2    1    2    0  502  0.33714452523E+02  0.95393782695E+02 -0.33041468298E+03  0.38608512040E+03  0.17219529431E+03 0.  0.
        -24    2    5    5    0    0  0.72007095913E+02  0.11233416735E+03 -0.24395888734E+03  0.28990821169E+03  0.82017348632E+02 0.  0.
          5    1    3    3  501    0  0.32696155566E+02 -0.11256172038E+02 -0.44924925415E+03  0.45060262133E+03  0.47000000000E+01 0. -1.
        -11    1    4    4    0    0 -0.28890310901E+02  0.26221222796E+01 -0.37863809726E+02  0.47698990306E+02  0.00000000000E+00 0.  1.
         12    1    4    4    0    0 -0.37520297188E+02 -0.86759732936E+02 -0.35224362479E+03  0.36470617649E+03  0.00000000000E+00 0. -1.
         -5    1    5    5    0  502 -0.38292643390E+02 -0.16940384658E+02 -0.86455795633E+02  0.96176908709E+02  0.47000000000E+01 0.  1.
         13    1    6    6    0    0 -0.54431981444E+01  0.64057996024E+02 -0.11777857079E+03  0.13418214113E+03  0.00000000000E+00 0. -1.
        -14    1    6    6    0    0  0.77450294058E+02  0.48276171328E+02 -0.12618031655E+03  0.15572607056E+03  0.00000000000E+00 0.  1.
<mgrwt>
<rscale>  2 0.20042138E+03</rscale>
<asrwt>0</asrwt>
<pdfrwt beam="1">  1       21 0.61016558E-02 0.20065590E+03</pdfrwt>
<pdfrwt beam="2">  1       21 0.18606651E+00 0.20065590E+03</pdfrwt>
<totfact> 0.31557997E+04</totfact>
</mgrwt>
</event>
<event>
12    1  0.1013215E-001  0.1823964E+03  0.7546771E-02  0.1166491E+00
         21   -1    0    0  503  502  0.00000000000E+00  0.00000000000E+00  0.14036180283E+03  0.14036180283E+03  0.00000000000E+00 0. -1.
         21   -1    0    0  501  503 -0.00000000000E+00 -0.00000000000E+00 -0.30145641327E+03  0.30145641327E+03  0.00000000000E+00 0. -1.
          6    2    1    2  501    0 -0.43816139455E+02 -0.33660260076E+02 -0.18608812905E+03  0.25771734337E+03  0.16951864238E+03 0.  0.
         24    2    3    3    0    0 -0.83637507565E+02 -0.24812620981E+02 -0.72412544381E+02  0.13685274713E+03  0.76643323131E+02 0.  0.
         -6    2    1    2    0  502  0.43816139455E+02  0.33660260076E+02  0.24993518609E+02  0.18410087273E+03  0.17382631614E+03 0.  0.
        -24    2    5    5    0    0 -0.46471341631E+02  0.17872920737E+02  0.57826775950E+01  0.90334056979E+02  0.75151683956E+02 0.  0.
          5    1    3    3  501    0  0.39821368110E+02 -0.88476390949E+01 -0.11367558467E+03  0.12086459624E+03  0.47000000000E+01 0. -1.
        -13    1    4    4    0    0 -0.53578437053E+02  0.22820271744E+02 -0.25599368362E+02  0.63614003019E+02  0.00000000000E+00 0.  1.
         14    1    4    4    0    0 -0.30059070511E+02 -0.47632892725E+02 -0.46813176019E+02  0.73238744107E+02  0.00000000000E+00 0. -1.
         -5    1    5    5    0  502  0.90287481086E+02  0.15787339339E+02  0.19210841014E+02  0.93766815754E+02  0.47000000000E+01 0.  1.
         11    1    6    6    0    0 -0.30956207291E+02  0.43919452471E+02 -0.12178624818E+02  0.55095589457E+02  0.00000000000E+00 0. -1.
        -12    1    6    6    0    0 -0.15515134340E+02 -0.26046531734E+02  0.17961302413E+02  0.35238467522E+02  0.00000000000E+00 0.  1.
<mgrwt>
<rscale>  2 0.18136254E+03</rscale>
<asrwt>0</asrwt>
<pdfrwt beam="1">  1       21 0.21594123E-01 0.18239642E+03</pdfrwt>
<pdfrwt beam="2">  1       21 0.46377910E-01 0.18239642E+03</pdfrwt>
<totfact> 0.89391830E+04</totfact>
</mgrwt>
</event>
<event>
12    1  0.1013215E-001  0.2109484E+03  0.7546771E-02  0.1140869E+00
         21   -1    0    0  501  502  0.00000000000E+00  0.00000000000E+00  0.30156245293E+03  0.30156245293E+03  0.00000000000E+00 0.  1.
         21   -1    0    0  502  503 -0.00000000000E+00 -0.00000000000E+00 -0.15378503348E+03  0.15378503348E+03  0.00000000000E+00 0.  1.
         -6    2    1    2    0  503 -0.69581347077E+02 -0.97590988192E+02  0.27467343686E+02  0.21272917027E+03  0.17359055296E+03 0.  0.
        -24    2    3    3    0    0  0.79492509269E+01 -0.87976066239E+02 -0.18824714280E+02  0.12179796010E+03  0.81715325346E+02 0.  0.
          6    2    1    2  501    0  0.69581347077E+02  0.97590988192E+02  0.12031007577E+03  0.24261831615E+03  0.17327310282E+03 0.  0.
         24    2    5    5    0    0  0.12772039477E+02 -0.37800649630E+01  0.92392281202E+02  0.12301530155E+03  0.80118767500E+02 0.  0.
          5    1    5    5  501    0  0.56809307600E+02  0.10137105316E+03  0.27917794566E+02  0.11960301460E+03  0.47000000000E+01 0. -1.
        -11    1    6    6    0    0  0.34668015378E+02 -0.11983561139E+02  0.10946082109E+02  0.38279155442E+02  0.00000000000E+00 0.  1.
         12    1    6    6    0    0 -0.21895975901E+02  0.82034961763E+01  0.81446199093E+02  0.84736146106E+02  0.00000000000E+00 0. -1.
         -5    1    3    3    0  503 -0.77530598004E+02 -0.96149219529E+01  0.46292057966E+02  0.90931210163E+02  0.47000000000E+01 0.  1.
         13    1    4    4    0    0 -0.11841812818E+02 -0.39811015701E+02  0.29350404744E+02  0.50858546584E+02  0.00000000000E+00 0. -1.
        -14    1    4    4    0    0  0.19791063745E+02 -0.48165050539E+02 -0.48175119024E+02  0.70939413520E+02  0.00000000000E+00 0.  1.
<mgrwt>
<rscale>  2 0.21088312E+03</rscale>
<asrwt>0</asrwt>
<pdfrwt beam="1">  1       21 0.46394223E-01 0.21094844E+03</pdfrwt>
<pdfrwt beam="2">  1       21 0.23659236E-01 0.21094844E+03</pdfrwt>
<totfact> 0.74270430E+04</totfact>
</mgrwt>
</event>
<event>
12    1  0.1013215E-001  0.2267969E+03  0.7546771E-02  0.1129446E+00
         21   -1    0    0  503  502  0.00000000000E+00  0.00000000000E+00  0.25774219458E+03  0.25774219458E+03  0.00000000000E+00 0.  1.
         21   -1    0    0  501  503 -0.00000000000E+00 -0.00000000000E+00 -0.34130695446E+03  0.34130695446E+03  0.00000000000E+00 0. -1.
          6    2    1    2  501    0  0.13404423455E+03  0.59279848915E+02 -0.23639493512E+03  0.32556444087E+03  0.16919717051E+03 0.  0.
         24    2    3    3    0    0  0.13744626124E+02  0.52675361452E+02 -0.72263072003E+02  0.12190547708E+03  0.81703031255E+02 0.  0.
         -6    2    1    2    0  502 -0.13404423455E+03 -0.59279848915E+02  0.15283017523E+03  0.27348470816E+03  0.17307474059E+03 0.  0.
        -24    2    5    5    0    0 -0.60692868033E+02 -0.60463211465E+02  0.18112816048E+02  0.12001588337E+03  0.82075050929E+02 0.  0.
          5    1    3    3  501    0  0.12029960843E+03  0.66044874633E+01 -0.16413186311E+03  0.20365896379E+03  0.47000000000E+01 0. -1.
        -11    1    4    4    0    0  0.21349789507E+02  0.43374489719E+02 -0.89011971027E+02  0.10129309382E+03  0.00000000000E+00 0.  1.
         12    1    4    4    0    0 -0.76051633833E+01  0.93008717335E+01  0.16748899024E+02  0.20612383259E+02  0.00000000000E+00 0. -1.
         -5    1    5    5    0  502 -0.73351366521E+02  0.11833625491E+01  0.13471735918E+03  0.15346882479E+03  0.47000000000E+01 0.  1.
         13    1    6    6    0    0 -0.36140881324E+02  0.97413713600E+01 -0.12678998792E+02  0.39519800470E+02  0.00000000000E+00 0. -1.
        -14    1    6    6    0    0 -0.24551986709E+02 -0.70204582825E+02  0.30791814840E+02  0.80496082899E+02  0.00000000000E+00 0.  1.
<mgrwt>
<rscale>  2 0.22605700E+03</rscale>
<asrwt>0</asrwt>
<pdfrwt beam="1">  1       21 0.39652645E-01 0.22679688E+03</pdfrwt>
<pdfrwt beam="2">  1       21 0.52508762E-01 0.22679688E+03</pdfrwt>
<totfact> 0.20678585E+04</totfact>
</mgrwt>
</event>
<event>
12    1  0.1013215E-001  0.1741479E+03  0.7546771E-02  0.1175169E+00
         21   -1    0    0  503  502  0.00000000000E+00  0.00000000000E+00  0.46650301769E+02  0.46650301769E+02  0.00000000000E+00 0. -1.
         21   -1    0    0  501  503 -0.00000000000E+00 -0.00000000000E+00 -0.68565782002E+03  0.68565782002E+03  0.00000000000E+00 0. -1.
          6    2    1    2  501    0  0.13616901403E+02 -0.19062675098E+02 -0.43145089923E+03  0.46527128982E+03  0.17256502861E+03 0.  0.
         24    2    3    3    0    0 -0.47540595790E+02 -0.24190078498E+02 -0.15745644284E+03  0.18444824614E+03  0.79895907073E+02 0.  0.
         -6    2    1    2    0  502 -0.13616901403E+02  0.19062675098E+02 -0.20755661902E+03  0.26703683197E+03  0.16637341718E+03 0.  0.
        -24    2    5    5    0    0 -0.23438329512E+02  0.51009397739E+02 -0.60406964318E+02  0.11606609170E+03  0.81676326782E+02 0.  0.
          5    1    3    3  501    0  0.61157497194E+02  0.51274034000E+01 -0.27399445639E+03  0.28082304368E+03  0.47000000000E+01 0. -1.
        -11    1    4    4    0    0 -0.36338035496E+02 -0.16510451993E+02 -0.16441295656E+03  0.16918826240E+03  0.00000000000E+00 0.  1.
         12    1    4    4    0    0 -0.11202560295E+02 -0.76796265049E+01  0.69565137270E+01  0.15259983737E+02  0.00000000000E+00 0. -1.
         -5    1    5    5    0  502  0.98214281089E+01 -0.31946722641E+02 -0.14714965471E+03  0.15097074027E+03  0.47000000000E+01 0.  1.
         13    1    6    6    0    0 -0.46498992200E+02  0.16430019895E+02 -0.92898061129E+01  0.50183685865E+02  0.00000000000E+00 0. -1.
        -14    1    6    6    0    0  0.23060662688E+02  0.34579377844E+02 -0.51117158205E+02  0.65882405836E+02  0.00000000000E+00 0.  1.
<mgrwt>
<rscale>  2 0.17259392E+03</rscale>
<asrwt>0</asrwt>
<pdfrwt beam="1">  1       21 0.71769696E-02 0.17414791E+03</pdfrwt>
<pdfrwt beam="2">  1       21 0.10548582E+00 0.17414791E+03</pdfrwt>
<totfact> 0.10548860E+05</totfact>
</mgrwt>
</event>
<event>
12    1  0.1013215E-001  0.1775587E+03  0.7546771E-02  0.1170225E+00
         21   -1    0    0  501  502  0.00000000000E+00  0.00000000000E+00  0.21761198645E+03  0.21761198645E+03  0.00000000000E+00 0. -1.
         21   -1    0    0  502  503 -0.00000000000E+00 -0.00000000000E+00 -0.15065723564E+03  0.15065723564E+03  0.00000000000E+00 0. -1.
         -6    2    1    2    0  503  0.42058431807E+02  0.28178662600E+01 -0.29915255101E+01  0.17743013015E+03  0.17232425774E+03 0.  0.
        -24    2    3    3    0    0 -0.19515288180E+01  0.47890110793E+02  0.39594070454E+02  0.10124609741E+03  0.79911267344E+02 0.  0.
          6    2    1    2  501    0 -0.42058431807E+02 -0.28178662600E+01  0.69946276312E+02  0.19083909194E+03  0.17248253647E+03 0.  0.
         24    2    5    5    0    0 -0.67189522681E+02 -0.13339815291E+02  0.10352648050E+03  0.14734192820E+03  0.79369572320E+02 0.  0.
          5    1    5    5  501    0  0.25131090873E+02  0.10521949031E+02 -0.33580204191E+02  0.43497163740E+02  0.47000000000E+01 0. -1.
        -11    1    6    6    0    0 -0.79473433270E+02  0.43853953288E+01  0.95525802487E+02  0.12434000655E+03  0.00000000000E+00 0.  1.
         12    1    6    6    0    0  0.12283910590E+02 -0.17725210620E+02  0.80006780171E+01  0.23001921651E+02  0.00000000000E+00 0. -1.
         -5    1    3    3    0  503  0.44009960626E+02 -0.45072244533E+02 -0.42585595964E+02  0.76184032744E+02  0.47000000000E+01 0.  1.
         11    1    4    4    0    0  0.27088974435E+02  0.44449687365E+02  0.37734790563E-01  0.52053709443E+02  0.00000000000E+00 0. -1.
        -12    1    4    4    0    0 -0.29040503253E+02  0.34404234274E+01  0.39556335663E+02  0.49192387965E+02  0.00000000000E+00 0.  1.
<mgrwt>
<rscale>  2 0.17752021E+03</rscale>
<asrwt>0</asrwt>
<pdfrwt beam="1">  1       21 0.33478767E-01 0.17755866E+03</pdfrwt>
<pdfrwt beam="2">  1       21 0.23178036E-01 0.17755866E+03</pdfrwt>
<totfact> 0.15103160E+05</totfact>
</mgrwt>
</event>
<event>
12    1  0.1013215E-001  0.1892789E+03  0.7546771E-02  0.1159617E+00
         21   -1    0    0  503  502  0.00000000000E+00  0.00000000000E+00  0.95599475182E+02  0.95599475182E+02  0.00000000000E+00 0. -1.
         21   -1    0    0  501  503 -0.00000000000E+00 -0.00000000000E+00 -0.40311156586E+03  0.40311156586E+03  0.00000000000E+00 0. -1.
          6    2    1    2  501    0 -0.43652142101E+02  0.60190338105E+02 -0.83548128281E+02  0.20689801571E+03  0.17406353109E+03 0.  0.
         24    2    3    3    0    0 -0.27365201022E+02 -0.34025399373E+02 -0.44513245148E+02  0.10351677109E+03  0.82629963534E+02 0.  0.
         -6    2    1    2    0  502  0.43652142101E+02 -0.60190338105E+02 -0.22396396240E+03  0.29181302534E+03  0.17165837874E+03 0.  0.
        -24    2    5    5    0    0  0.54939561086E+02  0.16639297977E+02 -0.79927197718E+02  0.12810939560E+03  0.82027060760E+02 0.  0.
          5    1    3    3  501    0 -0.16286941079E+02  0.94215737478E+02 -0.39034883134E+02  0.10338124462E+03  0.47000000000E+01 0. -1.
        -11    1    4    4    0    0 -0.27617470777E+02 -0.31057522331E+02 -0.68079594963E+02  0.79762933972E+02  0.00000000000E+00 0.  1.
         12    1    4    4    0    0  0.25226975423E+00 -0.29678770428E+01  0.23566349816E+02  0.23753837117E+02  0.00000000000E+00 0. -1.
         -5    1    5    5    0  502 -0.11287418985E+02 -0.76829636081E+02 -0.14403676468E+03  0.16370362973E+03  0.47000000000E+01 0.  1.
         13    1    6    6    0    0  0.52848863630E+01 -0.12614279728E+02 -0.67865000358E+02  0.69229389356E+02  0.00000000000E+00 0. -1.
        -14    1    6    6    0    0  0.49654674724E+02  0.29253577705E+02 -0.12062197360E+02  0.58880006246E+02  0.00000000000E+00 0.  1.
<mgrwt>
<rscale>  2 0.18872410E+03</rscale>
<asrwt>0</asrwt>
<pdfrwt beam="1">  1       21 0.14707612E-01 0.18927889E+03</pdfrwt>
<pdfrwt beam="2">  1       21 0.62017163E-01 0.18927889E+03</pdfrwt>
<totfact> 0.98244065E+04</totfact>
</mgrwt>
</event>
<event>
12    1  0.1013215E-001  0.2290569E+03  0.7546771E-02  0.1130148E+00
         21   -1    0    0  503  502  0.00000000000E+00  0.00000000000E+00  0.11516645768E+04  0.11516645768E+04  0.00000000000E+00 0. -1.
         21   -1    0    0  501  503 -0.00000000000E+00 -0.00000000000E+00 -0.42531157705E+02  0.42531157705E+02  0.00000000000E+00 0. -1.
          6    2    1    2  501    0 -0.12653086186E+03 -0.13505511798E+02  0.53616664108E+03  0.57713984504E+03  0.17153214238E+03 0.  0.
         24    2    3    3    0    0 -0.90527444604E+02  0.56174387255E+02  0.29301427762E+03  0.32160766263E+03  0.78888159861E+02 0.  0.
         -6    2    1    2    0  502  0.12653086186E+03  0.13505511798E+02  0.57296677798E+03  0.61705588943E+03  0.19045887788E+03 0.  0.
        -24    2    5    5    0    0  0.13362690041E+03 -0.51830636245E+02  0.40958634092E+03  0.44088999257E+03  0.77977249979E+02 0.  0.
          5    1    3    3  501    0 -0.36003417257E+02 -0.69679899054E+02  0.24315236346E+03  0.25553218240E+03  0.47000000000E+01 0. -1.
        -13    1    4    4    0    0 -0.10451055017E+02  0.26707062102E+02  0.16686285324E+03  0.16930949031E+03  0.00000000000E+00 0.  1.
         14    1    4    4    0    0 -0.80076389587E+02  0.29467325153E+02  0.12615142438E+03  0.15229817233E+03  0.00000000000E+00 0. -1.
         -5    1    5    5    0  502 -0.70960385447E+01  0.65336148043E+02  0.16338043706E+03  0.17616589686E+03  0.47000000000E+01 0.  1.
         11    1    6    6    0    0  0.95427084000E+02 -0.42855401257E+01  0.18547649336E+03  0.20862939344E+03  0.00000000000E+00 0. -1.
        -12    1    6    6    0    0  0.38199816407E+02 -0.47545096120E+02  0.22410984755E+03  0.23226059913E+03  0.00000000000E+00 0.  1.
<mgrwt>
<rscale>  2 0.22508513E+03</rscale>
<asrwt>0</asrwt>
<pdfrwt beam="1">  1       21 0.17717914E+00 0.22905685E+03</pdfrwt>
<pdfrwt beam="2">  1       21 0.65432559E-02 0.22905685E+03</pdfrwt>
<totfact> 0.31587984E+04</totfact>
</mgrwt>
</event>
<event>
12    1  0.1013215E-001  0.1834706E+03  0.7546771E-02  0.1165423E+00
         21   -1    0    0  501  502  0.00000000000E+00  0.00000000000E+00  0.17959177151E+04  0.17959177151E+04  0.00000000000E+00 0.  1.
         21   -1    0    0  502  503 -0.00000000000E+00 -0.00000000000E+00 -0.18387131537E+02  0.18387131537E+02  0.00000000000E+00 0.  1.
         -6    2    1    2    0  503 -0.28513772166E+02  0.44396034351E+02  0.83557631121E+03  0.85464902606E+03  0.17161917962E+03 0.  0.
        -24    2    3    3    0    0 -0.39823457359E+02 -0.28083735156E+02  0.60470776218E+03  0.61236076200E+03  0.83304389218E+02 0.  0.
          6    2    1    2  501    0  0.28513772166E+02 -0.44396034351E+02  0.94195427232E+03  0.95965582055E+03  0.17571966225E+03 0.  0.
         24    2    5    5    0    0  0.60663639356E+02 -0.75007945125E+02  0.82364272133E+03  0.83320260335E+03  0.80826832548E+02 0.  0.
          5    1    5    5  501    0 -0.32149867191E+02  0.30611910774E+02  0.11831155099E+03  0.12645321720E+03  0.47000000000E+01 0. -1.
        -13    1    6    6    0    0  0.43138099965E+00  0.68431199956E+01  0.55480529545E+01  0.88201628345E+01  0.00000000000E+00 0.  1.
         14    1    6    6    0    0  0.60232258357E+02 -0.81851065121E+02  0.81809466837E+03  0.82438244052E+03  0.00000000000E+00 0. -1.
         -5    1    3    3    0  503  0.11309685193E+02  0.72479769507E+02  0.23086854903E+03  0.24228826405E+03  0.47000000000E+01 0.  1.
         13    1    4    4    0    0 -0.17526357084E+02 -0.22113089361E+02  0.51924838474E+02  0.59096114629E+02  0.00000000000E+00 0. -1.
        -14    1    4    4    0    0 -0.22297100275E+02 -0.59706457952E+01  0.55278292371E+03  0.55326464737E+03  0.00000000000E+00 0.  1.
<mgrwt>
<rscale>  2 0.18248174E+03</rscale>
<asrwt>0</asrwt>
<pdfrwt beam="1">  1       21 0.27629489E+00 0.18347055E+03</pdfrwt>
<pdfrwt beam="2">  1       21 0.28287909E-02 0.18347055E+03</pdfrwt>
<totfact> 0.32866202E+04</totfact>
</mgrwt>
</event>
<event>
12    1  0.1013215E-001  0.1834066E+03  0.7546771E-02  0.1164702E+00
         21   -1    0    0  501  502  0.00000000000E+00  0.00000000000E+00  0.20447354428E+03  0.20447354428E+03  0.00000000000E+00 0. -1.
         21   -1    0    0  502  503 -0.00000000000E+00 -0.00000000000E+00 -0.34945918829E+03  0.34945918829E+03  0.00000000000E+00 0. -1.
         -6    2    1    2    0  503  0.28552447706E+02 -0.51977236261E+02 -0.27424285783E+03  0.32955492165E+03  0.17285955557E+03 0.  0.
        -24    2    3    3    0    0  0.28792528010E+02 -0.11130335496E+02 -0.27517396524E+03  0.28842726791E+03  0.80725979045E+02 0.  0.
          6    2    1    2  501    0 -0.28552447706E+02  0.51977236261E+02  0.12925721382E+03  0.22437781092E+03  0.17355431239E+03 0.  0.
         24    2    5    5    0    0 -0.57662208428E+02  0.14476801435E+02  0.15951445480E+02  0.10143901346E+03  0.80628262897E+02 0.  0.
          5    1    5    5  501    0  0.29109760722E+02  0.37500434825E+02  0.11330576834E+03  0.12293879746E+03  0.47000000000E+01 0. -1.
        -11    1    6    6    0    0 -0.31270296826E+02  0.48095100508E+02  0.11012311494E+02  0.58414391727E+02  0.00000000000E+00 0.  1.
         12    1    6    6    0    0 -0.26391911602E+02 -0.33618299072E+02  0.49391339851E+01  0.43024621730E+02  0.00000000000E+00 0. -1.
         -5    1    3    3    0  503 -0.24008030391E+00 -0.40846900764E+02  0.93110741347E+00  0.41127653733E+02  0.47000000000E+01 0.  1.
         11    1    4    4    0    0 -0.22891282494E+02 -0.54682120251E+01 -0.31802806952E+02  0.39564260223E+02  0.00000000000E+00 0. -1.
        -12    1    4    4    0    0  0.51683810504E+02 -0.56621234712E+01 -0.24337115829E+03  0.24886300769E+03  0.00000000000E+00 0.  1.
<mgrwt>
<rscale>  2 0.18324204E+03</rscale>
<asrwt>0</asrwt>
<pdfrwt beam="1">  1       21 0.31457468E-01 0.18340658E+03</pdfrwt>
<pdfrwt beam="2">  1       21 0.53762952E-01 0.18340658E+03</pdfrwt>
<totfact> 0.31942624E+04</totfact>
</mgrwt>
</event>
<event>
12    1  0.1013215E-001  0.1748455E+03  0.7546771E-02  0.1175119E+00
         21   -1    0    0  501  502  0.00000000000E+00  0.00000000000E+00  0.46014512669E+03  0.46014512669E+03  0.00000000000E+00 0. -1.
         21   -1    0    0  502  503 -0.00000000000E+00 -0.00000000000E+00 -0.77306817600E+02  0.77306817600E+02  0.00000000000E+00 0. -1.
         -6    2    1    2    0  503 -0.31378032546E+01  0.14529326892E+02  0.72663444356E+02  0.18139102504E+03  0.16553483220E+03 0.  0.
        -24    2    3    3    0    0  0.60935015402E+02  0.31157630340E+01  0.64139227742E+02  0.11558564685E+03  0.74319695507E+02 0.  0.
          6    2    1    2  501    0  0.31378032546E+01 -0.14529326892E+02  0.31017486473E+03  0.35606091925E+03  0.17421246899E+03 0.  0.
         24    2    5    5    0    0 -0.37482602493E+02  0.49259845968E+02  0.16079206624E+03  0.18856051202E+03  0.76612663517E+02 0.  0.
          5    1    5    5  501    0  0.40620405747E+02 -0.63789172859E+02  0.14938279849E+03  0.16750040723E+03  0.47000000000E+01 0. -1.
        -11    1    6    6    0    0  0.21533406957E+02  0.12094165235E+02  0.21336882103E+02  0.32637692715E+02  0.00000000000E+00 0.  1.
         12    1    6    6    0    0 -0.59016009449E+02  0.37165680733E+02  0.13945518414E+03  0.15592281930E+03  0.00000000000E+00 0. -1.
         -5    1    3    3    0  503 -0.64072818657E+02  0.11413563858E+02  0.85242166145E+01  0.65805378196E+02  0.47000000000E+01 0.  1.
         13    1    4    4    0    0  0.31639981418E+02  0.21976047099E+02 -0.43257873781E+01  0.38765287394E+02  0.00000000000E+00 0. -1.
        -14    1    4    4    0    0  0.29295033984E+02 -0.18860284065E+02  0.68465015120E+02  0.76820359453E+02  0.00000000000E+00 0.  1.
<mgrwt>
<rscale>  2 0.17264304E+03</rscale>
<asrwt>0</asrwt>
<pdfrwt beam="1">  1       21 0.70791556E-01 0.17484545E+03</pdfrwt>
<pdfrwt beam="2">  1       21 0.11893357E-01 0.17484545E+03</pdfrwt>
<totfact> 0.10850911E+05</totfact>
</mgrwt>
</event>
<event>
12    1  0.1013215E-001  0.2031522E+03  0.7546771E-02  0.1147417E+00
         21   -1    0    0  503  502  0.00000000000E+00  0.00000000000E+00  0.18024780057E+03  0.18024780057E+03  0.00000000000E+00 0. -1.
         21   -1    0    0  501  503 -0.00000000000E+00 -0.00000000000E+00 -0.19686293134E+04  0.19686293134E+04  0.00000000000E+00 0. -1.
          6    2    1    2  501    0  0.46480124414E+02  0.95554392584E+02 -0.19043219767E+04  0.19149689552E+04  0.17138513535E+03 0.  0.
         24    2    3    3    0    0  0.35615275067E+02  0.11658437254E+03 -0.10400027966E+04  0.10503129311E+04  0.81798976210E+02 0.  0.
         -6    2    1    2    0  502 -0.46480124414E+02 -0.95554392584E+02  0.11594046387E+03  0.23390815876E+03  0.17314673448E+03 0.  0.
        -24    2    5    5    0    0  0.34902450315E+02 -0.56473247842E+02  0.97854177411E+02  0.14171454129E+03  0.78103536512E+02 0.  0.
          5    1    3    3  501    0  0.10864849347E+02 -0.21029979952E+02 -0.86431918003E+03  0.86465602408E+03  0.47000000000E+01 0. -1.
        -13    1    4    4    0    0 -0.22939237072E+02  0.10105463180E+02 -0.15717910976E+03  0.15916532766E+03  0.00000000000E+00 0.  1.
         14    1    4    4    0    0  0.58554512139E+02  0.10647890936E+03 -0.88282368688E+03  0.89114760345E+03  0.00000000000E+00 0. -1.
         -5    1    5    5    0  502 -0.81382574730E+02 -0.39081144742E+02  0.18086286459E+02  0.92193617468E+02  0.47000000000E+01 0.  1.
         11    1    6    6    0    0  0.46869857469E+02 -0.55990296547E+02  0.10490560118E+03  0.12781581282E+03  0.00000000000E+00 0. -1.
        -12    1    6    6    0    0 -0.11967407153E+02 -0.48295129501E+00 -0.70514237706E+01  0.13898728471E+02  0.00000000000E+00 0.  1.
<mgrwt>
<rscale>  2 0.20277638E+03</rscale>
<asrwt>0</asrwt>
<pdfrwt beam="1">  1       21 0.27730429E-01 0.20315225E+03</pdfrwt>
<pdfrwt beam="2">  1       21 0.30286607E+00 0.20315225E+03</pdfrwt>
<totfact> 0.40184834E+02</totfact>
</mgrwt>
</event>
<event>
12    1  0.1013215E-001  0.2373683E+03  0.7546771E-02  0.1121835E+00
         21   -1    0    0  503  502  0.00000000000E+00  0.00000000000E+00  0.40283503723E+03  0.40283503723E+03  0.00000000000E+00 0. -1.
         21   -1    0    0  501  503 -0.00000000000E+00 -0.00000000000E+00 -0.21824817456E+03  0.21824817456E+03  0.00000000000E+00 0. -1.
          6    2    1    2  501    0  0.14366681134E+03 -0.70458163803E+02 -0.94740820660E+02  0.25557683951E+03  0.17532596004E+03 0.  0.
         24    2    3    3    0    0  0.11051908663E+03  0.21558689131E+02 -0.47171284810E+02  0.14671535128E+03  0.81369641791E+02 0.  0.
         -6    2    1    2    0  502 -0.14366681134E+03  0.70458163803E+02  0.27932768333E+03  0.36550637228E+03  0.17310819731E+03 0.  0.
        -24    2    5    5    0    0 -0.76355510125E+02  0.63357734363E+02  0.69975353676E+02  0.14543430386E+03  0.80063850680E+02 0.  0.
          5    1    3    3  501    0  0.33147724715E+02 -0.92016852935E+02 -0.47569535850E+02  0.10886148823E+03  0.47000000000E+01 0. -1.
        -11    1    4    4    0    0  0.35178477768E+02  0.46942905657E+02 -0.12481034998E+02  0.59974477273E+02  0.00000000000E+00 0.  1.
         12    1    4    4    0    0  0.75340608858E+02 -0.25384216525E+02 -0.34690249812E+02  0.86740874008E+02  0.00000000000E+00 0. -1.
         -5    1    5    5    0  502 -0.67311301216E+02  0.71004294404E+01  0.20935232965E+03  0.22007206842E+03  0.47000000000E+01 0.  1.
         11    1    6    6    0    0 -0.17777656178E+02  0.48708864475E+02  0.67346991806E+02  0.84995387186E+02  0.00000000000E+00 0. -1.
        -12    1    6    6    0    0 -0.58577853947E+02  0.14648869888E+02  0.26283618703E+01  0.60438916669E+02  0.00000000000E+00 0.  1.
<mgrwt>
<rscale>  2 0.23695888E+03</rscale>
<asrwt>0</asrwt>
<pdfrwt beam="1">  1       21 0.61974621E-01 0.23736827E+03</pdfrwt>
<pdfrwt beam="2">  1       21 0.33576642E-01 0.23736827E+03</pdfrwt>
<totfact> 0.20135081E+04</totfact>
</mgrwt>
</event>
<event>
12    1  0.1013215E-001  0.2783305E+03  0.7546771E-02  0.1096812E+00
         21   -1    0    0  501  502  0.00000000000E+00  0.00000000000E+00  0.85672862148E+02  0.85672862148E+02  0.00000000000E+00 0. -1.
         21   -1    0    0  502  503 -0.00000000000E+00 -0.00000000000E+00 -0.91212796248E+03  0.91212796248E+03  0.00000000000E+00 0.  1.
         -6    2    1    2    0  503  0.11282360033E+03  0.18473500282E+03 -0.47117607456E+03  0.54647937173E+03  0.17255904621E+03 0.  0.
        -24    2    3    3    0    0  0.12158079962E+03  0.16929438571E+03 -0.29658650329E+03  0.37092678818E+03  0.78617099810E+02 0.  0.
          6    2    1    2  501    0 -0.11282360033E+03 -0.18473500282E+03 -0.35527902577E+03  0.45132145290E+03  0.17496194340E+03 0.  0.
         24    2    5    5    0    0 -0.13986177841E+03 -0.17277344967E+03 -0.34755114934E+03  0.42040298104E+03  0.80838623782E+02 0.  0.
          5    1    5    5  501    0  0.27038178082E+02 -0.11961553144E+02 -0.77278764362E+01  0.30918471855E+02  0.47000000000E+01 0. -1.
        -11    1    6    6    0    0 -0.95434390523E+02 -0.67387933751E+02 -0.21993383400E+03  0.24903764343E+03  0.00000000000E+00 0.  1.
         12    1    6    6    0    0 -0.44427387887E+02 -0.10538551592E+03 -0.12761731534E+03  0.17136533761E+03  0.00000000000E+00 0. -1.
         -5    1    3    3    0  503 -0.87571992923E+01  0.15440617105E+02 -0.17458957126E+03  0.17555258355E+03  0.47000000000E+01 0.  1.
         13    1    4    4    0    0  0.28400465692E+02  0.10600036160E+03 -0.15717939922E+03  0.19169774816E+03  0.00000000000E+00 0. -1.
        -14    1    4    4    0    0  0.93180333928E+02  0.63294024111E+02 -0.13940710407E+03  0.17922904001E+03  0.00000000000E+00 0.  1.
<mgrwt>
<rscale>  2 0.27795369E+03</rscale>
<asrwt>0</asrwt>
<pdfrwt beam="1">  1       21 0.13180440E-01 0.27833050E+03</pdfrwt>
<pdfrwt beam="2">  1       21 0.14032738E+00 0.27833050E+03</pdfrwt>
<totfact> 0.16776092E+04</totfact>
</mgrwt>
</event>
<event>
12    1  0.1013215E-001  0.3083889E+03  0.7546771E-02  0.1081213E+00
         21   -1    0    0  503  502  0.00000000000E+00  0.00000000000E+00  0.94997814140E+02  0.94997814140E+02  0.00000000000E+00 0. -1.
         21   -1    0    0  501  503 -0.00000000000E+00 -0.00000000000E+00 -0.10300905448E+04  0.10300905448E+04  0.00000000000E+00 0. -1.
          6    2    1    2  501    0 -0.48972619643E+02 -0.25111870166E+03 -0.56640130077E+03  0.64491405739E+03  0.17217661893E+03 0.  0.
         24    2    3    3    0    0 -0.28438895422E+02 -0.71525769032E+02 -0.32432131433E+03  0.34275505104E+03  0.79824831221E+02 0.  0.
         -6    2    1    2    0  502  0.48972619643E+02  0.25111870166E+03 -0.36869142992E+03  0.48017430158E+03  0.17080711227E+03 0.  0.
        -24    2    5    5    0    0  0.81571152733E+02  0.10252097759E+03 -0.15968882970E+03  0.22162425834E+03  0.80326743683E+02 0.  0.
          5    1    3    3  501    0 -0.20533724221E+02 -0.17959293263E+03 -0.24207998645E+03  0.30215900635E+03  0.47000000000E+01 0. -1.
        -11    1    4    4    0    0  0.21716695480E+01  0.53635605072E+00  0.43476319987E+01  0.48893486718E+01  0.00000000000E+00 0.  1.
         12    1    4    4    0    0 -0.30610564970E+02 -0.72062125083E+02 -0.32866894632E+03  0.33786570237E+03  0.00000000000E+00 0. -1.
         -5    1    5    5    0  502 -0.32598533090E+02  0.14859772407E+03 -0.20900260022E+03  0.25855004324E+03  0.47000000000E+01 0.  1.
         11    1    6    6    0    0  0.22858238196E+01  0.56615217214E+02 -0.33967501871E+02  0.66062841251E+02  0.00000000000E+00 0. -1.
        -12    1    6    6    0    0  0.79285328913E+02  0.45905760377E+02 -0.12572132783E+03  0.15556141709E+03  0.00000000000E+00 0.  1.
<mgrwt>
<rscale>  2 0.30819809E+03</rscale>
<asrwt>0</asrwt>
<pdfrwt beam="1">  1       21 0.14615047E-01 0.30838889E+03</pdfrwt>
<pdfrwt beam="2">  1       21 0.15847548E+00 0.30838889E+03</pdfrwt>
<totfact> 0.98890207E+03</totfact>
</mgrwt>
</event>
<event>
12    1  0.1013215E-001  0.1844759E+03  0.7546771E-02  0.1163759E+00
         21   -1    0    0  501  502  0.00000000000E+00  0.00000000000E+00  0.51077673132E+02  0.51077673132E+02  0.00000000000E+00 0.  1.
         21   -1    0    0  502  503 -0.00000000000E+00 -0.00000000000E+00 -0.87603384107E+03  0.87603384107E+03  0.00000000000E+00 0. -1.
         -6    2    1    2    0  503 -0.23237140980E+02 -0.57947903558E+02 -0.18305011668E+03  0.25922325847E+03  0.17260193588E+03 0.  0.
        -24    2    3    3    0    0 -0.58977619733E+02 -0.67498311163E+02 -0.18640219589E+03  0.22178105579E+03  0.80041716831E+02 0.  0.
          6    2    1    2  501    0  0.23237140980E+02  0.57947903558E+02 -0.64190605126E+03  0.66788825572E+03  0.17358980168E+03 0.  0.
         24    2    5    5    0    0 -0.18850864069E+02 -0.26671983241E+02 -0.24466299070E+03  0.25953049032E+03  0.80183206589E+02 0.  0.
          5    1    5    5  501    0  0.42088005049E+02  0.84619886799E+02 -0.39724306055E+03  0.40835776541E+03  0.47000000000E+01 0. -1.
        -13    1    6    6    0    0 -0.22898637115E+02 -0.48977394113E+00 -0.12957100966E+02  0.26314899309E+02  0.00000000000E+00 0.  1.
         14    1    6    6    0    0  0.40477730462E+01 -0.26182209300E+02 -0.23170588974E+03  0.23321559101E+03  0.00000000000E+00 0. -1.
         -5    1    3    3    0  503  0.35740478752E+02  0.95504076050E+01  0.33520792156E+01  0.37442202685E+02  0.47000000000E+01 0.  1.
         11    1    4    4    0    0  0.18090438926E+02 -0.27391524544E+02 -0.42734332594E+02  0.53886758853E+02  0.00000000000E+00 0. -1.
        -12    1    4    4    0    0 -0.77068058659E+02 -0.40106786619E+02 -0.14366786330E+03  0.16789429694E+03  0.00000000000E+00 0.  1.
<mgrwt>
<rscale>  2 0.18424310E+03</rscale>
<asrwt>0</asrwt>
<pdfrwt beam="1">  1       21 0.78581032E-02 0.18447586E+03</pdfrwt>
<pdfrwt beam="2">  1       21 0.13477444E+00 0.18447586E+03</pdfrwt>
<totfact> 0.49054670E+04</totfact>
</mgrwt>
</event>
<event>
12    1  0.1013215E-001  0.1872481E+03  0.7546771E-02  0.1161049E+00
         21   -1    0    0  501  502  0.00000000000E+00  0.00000000000E+00  0.52441011235E+02  0.52441011235E+02  0.00000000000E+00 0.  1.
         21   -1    0    0  502  503 -0.00000000000E+00 -0.00000000000E+00 -0.74692781633E+03  0.74692781633E+03  0.00000000000E+00 0.  1.
         -6    2    1    2    0  503  0.23069130398E+02  0.67545357372E+02 -0.47801867621E+03  0.51338456696E+03  0.17311065454E+03 0.  0.
        -24    2    3    3    0    0  0.41534966994E+02  0.99605970095E+02 -0.27445557019E+03  0.30643312788E+03  0.83240008954E+02 0.  0.
          6    2    1    2  501    0 -0.23069130398E+02 -0.67545357372E+02 -0.21646812889E+03  0.28598426060E+03  0.17272517595E+03 0.  0.
         24    2    5    5    0    0 -0.44736027257E+02  0.19782721858E+02 -0.12783055684E+03  0.15959455762E+03  0.82079859527E+02 0.  0.
          5    1    5    5  501    0  0.21666896859E+02 -0.87328079230E+02 -0.88637572049E+02  0.12638970298E+03  0.47000000000E+01 0. -1.
        -13    1    6    6    0    0 -0.23456055524E+02 -0.11733406308E+02 -0.11721450901E+03  0.12011286562E+03  0.00000000000E+00 0.  1.
         14    1    6    6    0    0 -0.21279971733E+02  0.31516128166E+02 -0.10616047829E+02  0.39481691998E+02  0.00000000000E+00 0. -1.
         -5    1    3    3    0  503 -0.18465836596E+02 -0.32060612724E+02 -0.20356310602E+03  0.20695143909E+03  0.47000000000E+01 0.  1.
         11    1    4    4    0    0 -0.28308205758E+01  0.23487757882E+02 -0.67492280743E+01  0.24601633991E+02  0.00000000000E+00 0. -1.
        -12    1    4    4    0    0  0.44365787569E+02  0.76118212214E+02 -0.26770634212E+03  0.28183149389E+03  0.00000000000E+00 0.  1.
<mgrwt>
<rscale>  2 0.18715898E+03</rscale>
<asrwt>0</asrwt>
<pdfrwt beam="1">  1       21 0.80678478E-02 0.18724812E+03</pdfrwt>
<pdfrwt beam="2">  1       21 0.11491197E+00 0.18724812E+03</pdfrwt>
<totfact> 0.69631680E+04</totfact>
</mgrwt>
</event>
<event>
12    1  0.1013215E-001  0.2320790E+03  0.7546771E-02  0.1125362E+00
         21   -1    0    0  501  502  0.00000000000E+00  0.00000000000E+00  0.21136539078E+04  0.21136539078E+04  0.00000000000E+00 0.  1.
         21   -1    0    0  502  503 -0.00000000000E+00 -0.00000000000E+00 -0.28708365148E+02  0.28708365148E+02  0.00000000000E+00 0. -1.
         -6    2    1    2    0  503  0.12428460129E+03  0.89885261463E+02  0.67926866488E+03  0.71782071179E+03  0.17416840368E+03 0.  0.
        -24    2    3    3    0    0  0.27480933643E+02 -0.16094555693E+02  0.26614029302E+03  0.28044237059E+03  0.82480489916E+02 0.  0.
          6    2    1    2  501    0 -0.12428460129E+03 -0.89885261463E+02  0.14056768778E+04  0.14245415612E+04  0.17281537089E+03 0.  0.
         24    2    5    5    0    0 -0.33356731393E+01 -0.64159690675E+02  0.77462634473E+03  0.78147289183E+03  0.80785605763E+02 0.  0.
          5    1    5    5  501    0 -0.12094892815E+03 -0.25725570788E+02  0.63105053308E+03  0.64306866936E+03  0.47000000000E+01 0. -1.
        -11    1    6    6    0    0 -0.32806405421E+02 -0.62401698665E+02  0.44778014442E+03  0.45329602907E+03  0.00000000000E+00 0.  1.
         12    1    6    6    0    0  0.29470732282E+02 -0.17579920102E+01  0.32684620030E+03  0.32817686276E+03  0.00000000000E+00 0. -1.
         -5    1    3    3    0  503  0.96803667649E+02  0.10597981716E+03  0.41312837186E+03  0.43737834120E+03  0.47000000000E+01 0.  1.
         13    1    4    4    0    0  0.32788612757E+02 -0.14232793259E+02  0.37768071332E+02  0.52000891748E+02  0.00000000000E+00 0. -1.
        -14    1    4    4    0    0 -0.53076791137E+01 -0.18617624344E+01  0.22837222169E+03  0.22844147885E+03  0.00000000000E+00 0.  1.
<mgrwt>
<rscale>  2 0.23182515E+03</rscale>
<asrwt>0</asrwt>
<pdfrwt beam="1">  1       21 0.32517740E+00 0.23207898E+03</pdfrwt>
<pdfrwt beam="2">  1       21 0.44166732E-02 0.23207898E+03</pdfrwt>
<totfact> 0.77653411E+03</totfact>
</mgrwt>
</event>
<event>
12    1  0.1013215E-001  0.2318596E+03  0.7546771E-02  0.1126717E+00
         21   -1    0    0  501  502  0.00000000000E+00  0.00000000000E+00  0.43800766274E+03  0.43800766274E+03  0.00000000000E+00 0.  1.
         21   -1    0    0  502  503 -0.00000000000E+00 -0.00000000000E+00 -0.13639333122E+03  0.13639333122E+03  0.00000000000E+00 0. -1.
         -6    2    1    2    0  503  0.15282194309E+03 -0.92435758975E+01  0.25661396385E+03  0.34584619615E+03  0.17412316033E+03 0.  0.
        -24    2    3    3    0    0  0.18188972995E+02 -0.81382399450E+01  0.45155369551E+02  0.95119082527E+02  0.81311516856E+02 0.  0.
          6    2    1    2  501    0 -0.15282194309E+03  0.92435758975E+01  0.45000367678E+02  0.22855479781E+03  0.16362234726E+03 0.  0.
         24    2    5    5    0    0 -0.70426285760E+02  0.59091326162E+02  0.48489049413E+02  0.13207628490E+03  0.81494236394E+02 0.  0.
          5    1    5    5  501    0 -0.82395657329E+02 -0.49847750265E+02 -0.34886817353E+01  0.96478512911E+02  0.47000000000E+01 0. -1.
        -13    1    6    6    0    0 -0.28038903213E+02  0.34008114527E+02  0.66374627561E+02  0.79676364945E+02  0.00000000000E+00 0.  1.
         14    1    6    6    0    0 -0.42387382547E+02  0.25083211636E+02 -0.17885578148E+02  0.52399919951E+02  0.00000000000E+00 0. -1.
         -5    1    3    3    0  503  0.13463297009E+03 -0.11053359525E+01  0.21145859429E+03  0.25072711362E+03  0.47000000000E+01 0.  1.
         13    1    4    4    0    0  0.33247496106E+02 -0.37775376039E+02  0.24375346988E+02  0.55915405507E+02  0.00000000000E+00 0. -1.
        -14    1    4    4    0    0 -0.15058523112E+02  0.29637136094E+02  0.20780022563E+02  0.39203677020E+02  0.00000000000E+00 0.  1.
<mgrwt>
<rscale>  2 0.22988996E+03</rscale>
<asrwt>0</asrwt>
<pdfrwt beam="1">  1       21 0.67385794E-01 0.23185958E+03</pdfrwt>
<pdfrwt beam="2">  1       21 0.20983590E-01 0.23185958E+03</pdfrwt>
<totfact> 0.41698823E+04</totfact>
</mgrwt>
</event>
<event>
12    1  0.1013215E-001  0.2940023E+03  0.7546771E-02  0.1088555E+00
         21   -1    0    0  503  502  0.00000000000E+00  0.00000000000E+00  0.14502443626E+03  0.14502443626E+03  0.00000000000E+00 0. -1.
         21   -1    0    0  501  503 -0.00000000000E+00 -0.00000000000E+00 -0.63742455462E+03  0.63742455462E+03  0.00000000000E+00 0.  1.
          6    2    1    2  501    0 -0.16063658372E+03 -0.17116880152E+03 -0.14221119432E+03  0.32659052111E+03  0.17701546272E+03 0.  0.
         24    2    3    3    0    0  0.75568840128E+00 -0.47254768874E+02 -0.40681092002E+02  0.99142494812E+02  0.77075928699E+02 0.  0.
         -6    2    1    2    0  502  0.16063658372E+03  0.17116880152E+03 -0.35018892404E+03  0.45585846978E+03  0.17341220056E+03 0.  0.
        -24    2    5    5    0    0  0.15217539404E+03  0.13608777605E+03 -0.18251264459E+03  0.28427847453E+03  0.76329236249E+02 0.  0.
          5    1    3    3  501    0 -0.16139227213E+03 -0.12391403264E+03 -0.10153010232E+03  0.22744802630E+03  0.47000000000E+01 0. -1.
        -11    1    4    4    0    0  0.26276258989E+02 -0.49958066253E+01 -0.41958739321E+02  0.49758774861E+02  0.00000000000E+00 0.  1.
         12    1    4    4    0    0 -0.25520570588E+02 -0.42258962249E+02  0.12776473186E+01  0.49383719951E+02  0.00000000000E+00 0. -1.
         -5    1    5    5    0  502  0.84611896887E+01  0.35081025470E+02 -0.16767627945E+03  0.17157999525E+03  0.47000000000E+01 0.  1.
         11    1    6    6    0    0  0.90346036045E+02  0.43070037522E+02 -0.12007714499E+03  0.15632004065E+03  0.00000000000E+00 0. -1.
        -12    1    6    6    0    0  0.61829357992E+02  0.93017738526E+02 -0.62435499604E+02  0.12795843388E+03  0.00000000000E+00 0.  1.
<mgrwt>
<rscale>  2 0.29346197E+03</rscale>
<asrwt>0</asrwt>
<pdfrwt beam="1">  1       21 0.22311452E-01 0.29400229E+03</pdfrwt>
<pdfrwt beam="2">  1       21 0.98065315E-01 0.29400229E+03</pdfrwt>
<totfact> 0.15300178E+04</totfact>
</mgrwt>
</event>
<event>
11    1  0.1013215E-001  0.1917814E+03  0.7546771E-02  0.1158684E+00
         21   -1    0    0  503  502  0.00000000000E+00  0.00000000000E+00  0.13225042570E+04  0.13225042570E+04  0.00000000000E+00 0. -1.
         21   -1    0    0  501  503 -0.00000000000E+00 -0.00000000000E+00 -0.29003431835E+02  0.29003431835E+02  0.00000000000E+00 0. -1.
          6    2    1    2  501    0 -0.52122213736E+02  0.58384300874E+02  0.46755842208E+03  0.50536222168E+03  0.17508468032E+03 0.  0.
         24    2    3    3    0    0 -0.60023496153E+02 -0.19064755547E+02  0.34982021562E+03  0.36413488060E+03  0.79080610918E+02 0.  0.
         -6    2    1    2    0  502  0.52122213736E+02 -0.58384300874E+02  0.82594240306E+03  0.84614546713E+03  0.16630047093E+03 0.  0.
          5    1    3    3  501    0  0.79012824168E+01  0.77449056420E+02  0.11773820647E+03  0.14122734107E+03  0.47000000000E+01 0. -1.
        -13    1    4    4    0    0 -0.29474387073E+02  0.51700515583E+01  0.29687581891E+03  0.29838016151E+03  0.00000000000E+00 0.  1.
         14    1    4    4    0    0 -0.30549109080E+02 -0.24234807105E+02  0.52944396707E+02  0.65754719098E+02  0.00000000000E+00 0. -1.
         -5    1    5    5    0  502  0.83734969549E+02 -0.74038212201E+02  0.36558933318E+03  0.38232296887E+03  0.47000000000E+01 0.  1.
         13    1    5    5    0    0 -0.21349432103E+02 -0.35506867660E+01  0.80893380182E+02  0.83738548978E+02  0.00000000000E+00 0. -1.
        -14    1    5    5    0    0 -0.10263323711E+02  0.19204598093E+02  0.37945968970E+03  0.38008394929E+03  0.00000000000E+00 0.  1.
<mgrwt>
<rscale>  2 0.18975331E+03</rscale>
<asrwt>0</asrwt>
<pdfrwt beam="1">  1       21 0.20346215E+00 0.19178138E+03</pdfrwt>
<pdfrwt beam="2">  1       21 0.44620675E-02 0.19178138E+03</pdfrwt>
<totfact> 0.41632103E+04</totfact>
</mgrwt>
</event>
<event>
12    1  0.1013215E-001  0.2709600E+03  0.7546771E-02  0.1100775E+00
         21   -1    0    0  501  502  0.00000000000E+00  0.00000000000E+00  0.18193598507E+03  0.18193598507E+03  0.00000000000E+00 0. -1.
         21   -1    0    0  502  503 -0.00000000000E+00 -0.00000000000E+00 -0.50414191681E+03  0.50414191681E+03  0.00000000000E+00 0. -1.
         -6    2    1    2    0  503 -0.16778837004E+03 -0.12271688324E+03 -0.75929533617E+01  0.27106633699E+03  0.17380142565E+03 0.  0.
        -24    2    3    3    0    0 -0.12963360765E+03 -0.11817410182E+03  0.52430422099E+02  0.19964282295E+03  0.79613547985E+02 0.  0.
          6    2    1    2  501    0  0.16778837004E+03  0.12271688324E+03 -0.31461297837E+03  0.41501156488E+03  0.17332311524E+03 0.  0.
         24    2    5    5    0    0  0.11483391390E+02  0.50348773014E+02 -0.14759608676E+03  0.17504256311E+03  0.78666554851E+02 0.  0.
          5    1    5    5  501    0  0.15630497865E+03  0.72368110224E+02 -0.16701689161E+03  0.23996900177E+03  0.47000000000E+01 0. -1.
        -13    1    6    6    0    0  0.34183912855E+02  0.97849937384E+00 -0.87902436046E+02  0.94320388156E+02  0.00000000000E+00 0.  1.
         14    1    6    6    0    0 -0.22700521465E+02  0.49370273640E+02 -0.59693650718E+02  0.80722174959E+02  0.00000000000E+00 0. -1.
         -5    1    3    3    0  503 -0.38154762393E+02 -0.45427814176E+01 -0.60023375461E+02  0.71423514041E+02  0.47000000000E+01 0.  1.
         11    1    4    4    0    0 -0.12469941081E+03 -0.75762818920E+02  0.22823915658E+02  0.14768506666E+03  0.00000000000E+00 0. -1.
        -12    1    4    4    0    0 -0.49341968340E+01 -0.42411282901E+02  0.29606506441E+02  0.51957756296E+02  0.00000000000E+00 0.  1.
<mgrwt>
<rscale>  2 0.27088330E+03</rscale>
<asrwt>0</asrwt>
<pdfrwt beam="1">  1       21 0.27990152E-01 0.27095997E+03</pdfrwt>
<pdfrwt beam="2">  1       21 0.77560294E-01 0.27095997E+03</pdfrwt>
<totfact> 0.17231169E+04</totfact>
</mgrwt>
</event>
<event>
12    1  0.1013215E-001  0.2247593E+03  0.7546771E-02  0.1130643E+00
         21   -1    0    0  501  502  0.00000000000E+00  0.00000000000E+00  0.10848577130E+03  0.10848577130E+03  0.00000000000E+00 0. -1.
         21   -1    0    0  502  503 -0.00000000000E+00 -0.00000000000E+00 -0.57079371663E+03  0.57079371663E+03  0.00000000000E+00 0.  1.
         -6    2    1    2    0  503  0.42496020700E+02 -0.13356759588E+03 -0.37955096869E+03  0.44110734381E+03  0.17570013229E+03 0.  0.
        -24    2    3    3    0    0  0.60823300808E+02 -0.15601511091E+03 -0.26946386409E+03  0.32717297355E+03  0.79944929914E+02 0.  0.
          6    2    1    2  501    0 -0.42496020700E+02  0.13356759588E+03 -0.82756976639E+02  0.23817214413E+03  0.17387075260E+03 0.  0.
         24    2    5    5    0    0  0.20284236975E+01  0.11703124280E+03 -0.11326697417E+03  0.18152563434E+03  0.80135648682E+02 0.  0.
          5    1    5    5  501    0 -0.44524444397E+02  0.16536353082E+02  0.30509997529E+02  0.56646509790E+02  0.47000000000E+01 0. -1.
        -13    1    6    6    0    0 -0.20512962288E+02  0.41636235905E+02 -0.86925444566E+02  0.98541314560E+02  0.00000000000E+00 0.  1.
         14    1    6    6    0    0  0.22541385985E+02  0.75395006896E+02 -0.26341529602E+02  0.82984319776E+02  0.00000000000E+00 0. -1.
         -5    1    3    3    0  503 -0.18327280108E+02  0.22447515029E+02 -0.11008710460E+03  0.11393437026E+03  0.47000000000E+01 0.  1.
         11    1    4    4    0    0  0.50859616147E+01 -0.10028900654E+03 -0.10783133438E+03  0.14734771296E+03  0.00000000000E+00 0. -1.
        -12    1    4    4    0    0  0.55737339194E+02 -0.55726104368E+02 -0.16163252971E+03  0.17982526060E+03  0.00000000000E+00 0.  1.
<mgrwt>
<rscale>  2 0.22440168E+03</rscale>
<asrwt>0</asrwt>
<pdfrwt beam="1">  1       21 0.16690119E-01 0.22475932E+03</pdfrwt>
<pdfrwt beam="2">  1       21 0.87814418E-01 0.22475932E+03</pdfrwt>
<totfact> 0.35283273E+04</totfact>
</mgrwt>
</event>
<event>
12    1  0.1013215E-001  0.1830436E+03  0.7546771E-02  0.1165436E+00
         21   -1    0    0  503  502  0.00000000000E+00  0.00000000000E+00  0.25348861245E+03  0.25348861245E+03  0.00000000000E+00 0. -1.
         21   -1    0    0  501  503 -0.00000000000E+00 -0.00000000000E+00 -0.22912603205E+03  0.22912603205E+03  0.00000000000E+00 0. -1.
          6    2    1    2  501    0 -0.56192234918E+02 -0.24175875730E+02 -0.14615721311E+03  0.23245077464E+03  0.17008642348E+03 0.  0.
         24    2    3    3    0    0  0.27596589126E+02  0.10734346362E+02 -0.93294627085E+02  0.12730405028E+03  0.81398008899E+02 0.  0.
         -6    2    1    2    0  502  0.56192234918E+02  0.24175875730E+02  0.17051979351E+03  0.25016386986E+03  0.17251933682E+03 0.  0.
        -24    2    5    5    0    0  0.46282258388E+02  0.28474185106E+02  0.21624136036E+02  0.10080293149E+03  0.82102381687E+02 0.  0.
          5    1    3    3  501    0 -0.83788824044E+02 -0.34910222092E+02 -0.52862586023E+02  0.10514672435E+03  0.47000000000E+01 0. -1.
        -11    1    4    4    0    0  0.18338655349E+02  0.42631323758E+02 -0.77946307710E+02  0.90715836165E+02  0.00000000000E+00 0.  1.
         12    1    4    4    0    0  0.92579337770E+01 -0.31896977397E+02 -0.15348319375E+02  0.36588214120E+02  0.00000000000E+00 0. -1.
         -5    1    5    5    0  502  0.99099765300E+01 -0.42983093761E+01  0.14889565747E+03  0.14936093837E+03  0.47000000000E+01 0.  1.
         11    1    6    6    0    0  0.43688802789E+02  0.31130416576E+01  0.47407931031E+02  0.64543895467E+02  0.00000000000E+00 0. -1.
        -12    1    6    6    0    0  0.25934555995E+01  0.25361143449E+02 -0.25783794995E+02  0.36259036023E+02  0.00000000000E+00 0.  1.
<mgrwt>
<rscale>  2 0.18246810E+03</rscale>
<asrwt>0</asrwt>
<pdfrwt beam="1">  1       21 0.38998248E-01 0.18304361E+03</pdfrwt>
<pdfrwt beam="2">  1       21 0.35250159E-01 0.18304361E+03</pdfrwt>
<totfact> 0.49410436E+04</totfact>
</mgrwt>
</event>
<event>
12    1  0.1013215E-001  0.1818051E+03  0.7546771E-02  0.1166741E+00
         21   -1    0    0  503  502  0.00000000000E+00  0.00000000000E+00  0.34131207016E+02  0.34131207016E+02  0.00000000000E+00 0.  1.
         21   -1    0    0  501  503 -0.00000000000E+00 -0.00000000000E+00 -0.99130840445E+03  0.99130840445E+03  0.00000000000E+00 0.  1.
          6    2    1    2  501    0  0.33774635339E+02 -0.32418703136E+02 -0.37498729544E+03  0.41552306928E+03  0.17277803986E+03 0.  0.
         24    2    3    3    0    0  0.57684616158E+02 -0.75514798334E+02 -0.22644068779E+03  0.25894355195E+03  0.82136339701E+02 0.  0.
         -6    2    1    2    0  502 -0.33774635339E+02  0.32418703136E+02 -0.58218990199E+03  0.60991654218E+03  0.17567415331E+03 0.  0.
        -24    2    5    5    0    0  0.38691519873E+02  0.50949294689E+02 -0.32107504736E+03  0.33825906707E+03  0.85071417527E+02 0.  0.
          5    1    3    3  501    0 -0.23909980819E+02  0.43096095197E+02 -0.14854660765E+03  0.15657951734E+03  0.47000000000E+01 0. -1.
        -11    1    4    4    0    0  0.17513039068E+02 -0.19241838024E+02 -0.44007668346E+01  0.26387906637E+02  0.00000000000E+00 0.  1.
         12    1    4    4    0    0  0.40171577090E+02 -0.56272960310E+02 -0.22203992095E+03  0.23255564531E+03  0.00000000000E+00 0. -1.
         -5    1    5    5    0  502 -0.72466155212E+02 -0.18530591552E+02 -0.26111485463E+03  0.27165747511E+03  0.47000000000E+01 0.  1.
         11    1    6    6    0    0 -0.84136057027E+01  0.54608938480E+02 -0.21763836060E+03  0.22454260381E+03  0.00000000000E+00 0. -1.
        -12    1    6    6    0    0  0.47105125575E+02 -0.36596437909E+01 -0.10343668676E+03  0.11371646326E+03  0.00000000000E+00 0.  1.
<mgrwt>
<rscale>  2 0.18110184E+03</rscale>
<asrwt>0</asrwt>
<pdfrwt beam="1">  1       21 0.52509557E-02 0.18180513E+03</pdfrwt>
<pdfrwt beam="2">  1       21 0.15250896E+00 0.18180513E+03</pdfrwt>
<totfact> 0.71221315E+04</totfact>
</mgrwt>
</event>
<event>
12    1  0.1013215E-001  0.1775473E+03  0.7546771E-02  0.1170513E+00
         21   -1    0    0  501  502  0.00000000000E+00  0.00000000000E+00  0.18119545757E+03  0.18119545757E+03  0.00000000000E+00 0. -1.
         21   -1    0    0  502  503 -0.00000000000E+00 -0.00000000000E+00 -0.18217354471E+03  0.18217354471E+03  0.00000000000E+00 0. -1.
         -6    2    1    2    0  503 -0.28565693646E+02 -0.19737921986E+02 -0.41858918100E+02  0.18117601071E+03  0.17282069730E+03 0.  0.
        -24    2    3    3    0    0  0.47790637801E+02 -0.17679862029E+02  0.88602096526E+00  0.93519038493E+02  0.78412390250E+02 0.  0.
          6    2    1    2  501    0  0.28565693646E+02  0.19737921986E+02  0.40880830955E+02  0.18219299157E+03  0.17411909551E+03 0.  0.
         24    2    5    5    0    0  0.60223730340E+02  0.21948337853E+02 -0.28764807347E+02  0.10551364520E+03  0.78721585034E+02 0.  0.
          5    1    5    5  501    0 -0.31658036694E+02 -0.22104158669E+01  0.69645638303E+02  0.76679346373E+02  0.47000000000E+01 0. -1.
        -13    1    6    6    0    0  0.42198560709E+02  0.51155373708E+02 -0.12292422225E+02  0.67444009588E+02  0.00000000000E+00 0.  1.
         14    1    6    6    0    0  0.18025169631E+02 -0.29207035856E+02 -0.16472385122E+02  0.38069635608E+02  0.00000000000E+00 0. -1.
         -5    1    3    3    0  503 -0.76356331447E+02 -0.20580599568E+01 -0.42744939065E+02  0.87656972219E+02  0.47000000000E+01 0.  1.
         11    1    4    4    0    0  0.65791860055E+02 -0.76165652571E+01 -0.14486320181E+02  0.67797008696E+02  0.00000000000E+00 0. -1.
        -12    1    4    4    0    0 -0.18001222253E+02 -0.10063296772E+02  0.15372341147E+02  0.25722029797E+02  0.00000000000E+00 0.  1.
<mgrwt>
<rscale>  2 0.17722815E+03</rscale>
<asrwt>0</asrwt>
<pdfrwt beam="1">  1       21 0.27876224E-01 0.17754730E+03</pdfrwt>
<pdfrwt beam="2">  1       21 0.28026699E-01 0.17754730E+03</pdfrwt>
<totfact> 0.15016701E+05</totfact>
</mgrwt>
</event>
<event>
12    1  0.1013215E-001  0.1852704E+03  0.7546771E-02  0.1163857E+00
         21   -1    0    0  503  502  0.00000000000E+00  0.00000000000E+00  0.20423336165E+02  0.20423336165E+02  0.00000000000E+00 0.  1.
         21   -1    0    0  501  503 -0.00000000000E+00 -0.00000000000E+00 -0.17577484612E+04  0.17577484612E+04  0.00000000000E+00 0.  1.
          6    2    1    2  501    0 -0.57580189786E+02  0.19637859494E+02 -0.11084545412E+04  0.11238312126E+04  0.17499714518E+03 0.  0.
         24    2    3    3    0    0 -0.45149948770E+02 -0.26595122548E+02 -0.32061512752E+03  0.33452453506E+03  0.79792143401E+02 0.  0.
         -6    2    1    2    0  502  0.57580189786E+02 -0.19637859494E+02 -0.62887058387E+03  0.65434058475E+03  0.17024178635E+03 0.  0.
        -24    2    5    5    0    0  0.92151026784E+02 -0.44906816867E+02 -0.37629469066E+03  0.39811737189E+03  0.79945691869E+02 0.  0.
          5    1    3    3  501    0 -0.12430241016E+02  0.46232982042E+02 -0.78783941364E+03  0.78930667754E+03  0.47000000000E+01 0. -1.
        -11    1    4    4    0    0 -0.50993915931E+02 -0.29469959693E+02 -0.32242878997E+03  0.32776391288E+03  0.00000000000E+00 0.  1.
         12    1    4    4    0    0  0.58439671612E+01  0.28748371453E+01  0.18136624514E+01  0.67606221815E+01  0.00000000000E+00 0. -1.
         -5    1    5    5    0  502 -0.34570836998E+02  0.25268957372E+02 -0.25257589321E+03  0.25622321286E+03  0.47000000000E+01 0.  1.
         11    1    6    6    0    0  0.50873779835E+01 -0.40370879590E+02 -0.88470554435E+02  0.97379301372E+02  0.00000000000E+00 0. -1.
        -12    1    6    6    0    0  0.87063648801E+02 -0.45359372772E+01 -0.28782413622E+03  0.30073807052E+03  0.00000000000E+00 0.  1.
<mgrwt>
<rscale>  2 0.18413885E+03</rscale>
<asrwt>0</asrwt>
<pdfrwt beam="1">  1       21 0.31420516E-02 0.18527041E+03</pdfrwt>
<pdfrwt beam="2">  1       21 0.27042285E+00 0.18527041E+03</pdfrwt>
<totfact> 0.29819881E+04</totfact>
</mgrwt>
</event>
<event>
12    1  0.1013215E-001  0.1866531E+03  0.7546771E-02  0.1161628E+00
         21   -1    0    0  503  502  0.00000000000E+00  0.00000000000E+00  0.36185141645E+02  0.36185141645E+02  0.00000000000E+00 0.  1.
         21   -1    0    0  501  503 -0.00000000000E+00 -0.00000000000E+00 -0.10737841823E+04  0.10737841823E+04  0.00000000000E+00 0.  1.
          6    2    1    2  501    0 -0.62898337960E+02  0.18584480117E+02 -0.69982701645E+03  0.72429084603E+03  0.17475065915E+03 0.  0.
         24    2    3    3    0    0 -0.83223109615E+02  0.13637294554E+02 -0.27045705871E+03  0.29438594772E+03  0.80025020019E+02 0.  0.
         -6    2    1    2    0  502  0.62898337960E+02 -0.18584480117E+02 -0.33777202420E+03  0.38567847790E+03  0.17423077848E+03 0.  0.
        -24    2    5    5    0    0  0.60422194772E+02  0.18382592339E+02 -0.91610291287E+02  0.13669979512E+03  0.79407979412E+02 0.  0.
          5    1    3    3  501    0  0.20324771655E+02  0.49471855626E+01 -0.42936995774E+03  0.42990489832E+03  0.47000000000E+01 0. -1.
        -11    1    4    4    0    0 -0.94996115061E+02  0.26634587926E+02 -0.22607595932E+03  0.24666577090E+03  0.00000000000E+00 0.  1.
         12    1    4    4    0    0  0.11773005446E+02 -0.12997293372E+02 -0.44381099389E+02  0.47720176815E+02  0.00000000000E+00 0. -1.
         -5    1    5    5    0  502  0.24761431876E+01 -0.36967072456E+02 -0.24616173291E+03  0.24897868278E+03  0.47000000000E+01 0.  1.
         11    1    6    6    0    0  0.73848209103E+00  0.24779557855E+02 -0.67684435440E+02  0.72081583252E+02  0.00000000000E+00 0. -1.
        -12    1    6    6    0    0  0.59683712681E+02 -0.63969655158E+01 -0.23925855847E+02  0.64618211870E+02  0.00000000000E+00 0.  1.
<mgrwt>
<rscale>  2 0.18653131E+03</rscale>
<asrwt>0</asrwt>
<pdfrwt beam="1">  1       21 0.55669441E-02 0.18665309E+03</pdfrwt>
<pdfrwt beam="2">  1       21 0.16519759E+00 0.18665309E+03</pdfrwt>
<totfact> 0.51900831E+04</totfact>
</mgrwt>
</event>
<event>
12    1  0.1013215E-001  0.1984293E+03  0.7546771E-02  0.1152774E+00
         21   -1    0    0  501  502  0.00000000000E+00  0.00000000000E+00  0.21871354201E+03  0.21871354201E+03  0.00000000000E+00 0. -1.
         21   -1    0    0  502  503 -0.00000000000E+00 -0.00000000000E+00 -0.19414077837E+03  0.19414077837E+03  0.00000000000E+00 0.  1.
         -6    2    1    2    0  503 -0.36592330625E+02 -0.80569572261E+02 -0.55602200322E+02  0.20607228494E+03  0.17760553850E+03 0.  0.
        -24    2    3    3    0    0  0.69592309979E+01 -0.59650744034E+02  0.32619590537E+02  0.10537714962E+03  0.80210122902E+02 0.  0.
          6    2    1    2  501    0  0.36592330625E+02  0.80569572261E+02  0.80174963962E+02  0.20678203543E+03  0.16882040960E+03 0.  0.
         24    2    5    5    0    0  0.66706229392E+02  0.49668412324E+02  0.10506837973E+03  0.15674704035E+03  0.81324030994E+02 0.  0.
          5    1    5    5  501    0 -0.30113898767E+02  0.30901159937E+02 -0.24893415768E+02  0.50034995084E+02  0.47000000000E+01 0. -1.
        -11    1    6    6    0    0  0.56055461060E+01  0.15561091859E+02 -0.11947950727E+02  0.20404000921E+02  0.00000000000E+00 0.  1.
         12    1    6    6    0    0  0.61100683286E+02  0.34107320465E+02  0.11701633046E+03  0.13634303943E+03  0.00000000000E+00 0. -1.
         -5    1    3    3    0  503 -0.43551561623E+02 -0.20918828227E+02 -0.88221790859E+02  0.10069513532E+03  0.47000000000E+01 0.  1.
         11    1    4    4    0    0  0.16920395509E+02 -0.58075873740E+01  0.45702583725E+02  0.49079058818E+02  0.00000000000E+00 0. -1.
        -12    1    4    4    0    0 -0.99611645108E+01 -0.53843156660E+02 -0.13082993189E+02  0.56298090805E+02  0.00000000000E+00 0.  1.
<mgrwt>
<rscale>  2 0.19644396E+03</rscale>
<asrwt>0</asrwt>
<pdfrwt beam="1">  1       21 0.33648237E-01 0.19842929E+03</pdfrwt>
<pdfrwt beam="2">  1       21 0.29867812E-01 0.19842929E+03</pdfrwt>
<totfact> 0.91226044E+04</totfact>
</mgrwt>
</event>
<event>
12    1  0.1013215E-001  0.2166630E+03  0.7546771E-02  0.1136397E+00
         21   -1    0    0  503  502  0.00000000000E+00  0.00000000000E+00  0.54468220155E+02  0.54468220155E+02  0.00000000000E+00 0. -1.
         21   -1    0    0  501  503 -0.00000000000E+00 -0.00000000000E+00 -0.10349988201E+04  0.10349988201E+04  0.00000000000E+00 0.  1.
          6    2    1    2  501    0  0.78515395441E+02 -0.10506594470E+03 -0.71310448081E+03  0.74529247324E+03  0.17245100771E+03 0.  0.
         24    2    3    3    0    0  0.11175254991E+03 -0.10308917814E+03 -0.66397220062E+03  0.68575519920E+03  0.79278616141E+02 0.  0.
         -6    2    1    2    0  502 -0.78515395441E+02  0.10506594470E+03 -0.26742611915E+03  0.34417456703E+03  0.17244095607E+03 0.  0.
        -24    2    5    5    0    0 -0.21330498061E+02  0.12731025721E+03 -0.16143842623E+03  0.22161681338E+03  0.79929686439E+02 0.  0.
          5    1    3    3  501    0 -0.33237154467E+02 -0.19767665548E+01 -0.49132280194E+02  0.59537274040E+02  0.47000000000E+01 0. -1.
        -13    1    4    4    0    0  0.21331038324E+02 -0.48758083174E+02 -0.36192600987E+03  0.36581798820E+03  0.00000000000E+00 0.  1.
         14    1    4    4    0    0  0.90421511584E+02 -0.54331094968E+02 -0.30204619075E+03  0.31993721100E+03  0.00000000000E+00 0. -1.
         -5    1    5    5    0  502 -0.57184897380E+02 -0.22244312510E+02 -0.10598769293E+03  0.12255775365E+03  0.47000000000E+01 0.  1.
         11    1    6    6    0    0  0.30049172285E+02  0.34607687047E+02 -0.49646169508E+02  0.67567646877E+02  0.00000000000E+00 0. -1.
        -12    1    6    6    0    0 -0.51379670345E+02  0.92702570160E+02 -0.11179225672E+03  0.15404916651E+03  0.00000000000E+00 0.  1.
<mgrwt>
<rscale>  2 0.21666103E+03</rscale>
<asrwt>0</asrwt>
<pdfrwt beam="1">  1       21 0.83797264E-02 0.21666303E+03</pdfrwt>
<pdfrwt beam="2">  1       21 0.15923058E+00 0.21666303E+03</pdfrwt>
<totfact> 0.27796624E+04</totfact>
</mgrwt>
</event>
<event>
12    1  0.1013215E-001  0.2145671E+03  0.7546771E-02  0.1141912E+00
         21   -1    0    0  501  502  0.00000000000E+00  0.00000000000E+00  0.52080898934E+03  0.52080898934E+03  0.00000000000E+00 0.  1.
         21   -1    0    0  502  503 -0.00000000000E+00 -0.00000000000E+00 -0.82132256780E+02  0.82132256780E+02  0.00000000000E+00 0.  1.
         -6    2    1    2    0  503  0.88891743195E+02  0.65184449236E+01  0.16827659272E+03  0.25775249382E+03  0.17370982781E+03 0.  0.
        -24    2    3    3    0    0 -0.11760644493E+02  0.35625204937E+02  0.86238962115E+02  0.12459706035E+03  0.81730048792E+02 0.  0.
          6    2    1    2  501    0 -0.88891743195E+02 -0.65184449236E+01  0.27040013984E+03  0.34518875231E+03  0.19517891013E+03 0.  0.
         24    2    5    5    0    0 -0.40294231919E+02 -0.38972128787E+02  0.38282429925E+02  0.10578181641E+03  0.81128270621E+02 0.  0.
          5    1    5    5  501    0 -0.48597511277E+02  0.32453683863E+02  0.23211770992E+03  0.23940693590E+03  0.47000000000E+01 0. -1.
        -11    1    6    6    0    0 -0.35924375527E+01 -0.56421701867E+02  0.31060454669E+02  0.64506324445E+02  0.00000000000E+00 0.  1.
         12    1    6    6    0    0 -0.36701794366E+02  0.17449573080E+02  0.72219752557E+01  0.41275491965E+02  0.00000000000E+00 0. -1.
         -5    1    3    3    0  503  0.10065238769E+03 -0.29106760013E+02  0.82037630605E+02  0.13315543346E+03  0.47000000000E+01 0.  1.
         11    1    4    4    0    0  0.16422502375E+02  0.69577567962E+01  0.82292273917E+02  0.84202893717E+02  0.00000000000E+00 0. -1.
        -12    1    4    4    0    0 -0.28183146868E+02  0.28667448141E+02  0.39466881984E+01  0.40394166634E+02  0.00000000000E+00 0.  1.
<mgrwt>
<rscale>  2 0.20956344E+03</rscale>
<asrwt>0</asrwt>
<pdfrwt beam="1">  1       21 0.80124458E-01 0.21456710E+03</pdfrwt>
<pdfrwt beam="2">  1       21 0.12635732E-01 0.21456710E+03</pdfrwt>
<totfact> 0.72601517E+04</totfact>
</mgrwt>
</event>
<event>
12    1  0.1013215E-001  0.1969672E+03  0.7546771E-02  0.1152363E+00
         21   -1    0    0  501  502  0.00000000000E+00  0.00000000000E+00  0.13315547429E+04  0.13315547429E+04  0.00000000000E+00 0. -1.
         21   -1    0    0  502  503 -0.00000000000E+00 -0.00000000000E+00 -0.48765009573E+02  0.48765009573E+02  0.00000000000E+00 0. -1.
         -6    2    1    2    0  503  0.70246392741E+02 -0.63551442257E+02  0.20339913631E+03  0.28313824821E+03  0.17269255178E+03 0.  0.
        -24    2    3    3    0    0  0.11269122301E+03 -0.33919743501E+02  0.16597326768E+03  0.21908837053E+03  0.81257170613E+02 0.  0.
          6    2    1    2  501    0 -0.70246392741E+02  0.63551442257E+02  0.10793905970E+04  0.10971815043E+04  0.17248145081E+03 0.  0.
         24    2    5    5    0    0 -0.65018613451E+02  0.38401557706E+02  0.34330689533E+03  0.36063472893E+03  0.80595803867E+02 0.  0.
          5    1    5    5  501    0 -0.52277792906E+01  0.25149884551E+02  0.73608370170E+03  0.73654677535E+03  0.47000000000E+01 0. -1.
        -11    1    6    6    0    0 -0.83147043247E+02  0.30404260709E+02  0.30381018730E+03  0.31644664602E+03  0.00000000000E+00 0.  1.
         12    1    6    6    0    0  0.18128429797E+02  0.79972969971E+01  0.39496708027E+02  0.44188082908E+02  0.00000000000E+00 0. -1.
         -5    1    3    3    0  503 -0.42444830265E+02 -0.29631698756E+02  0.37425868634E+02  0.64049877677E+02  0.47000000000E+01 0.  1.
         11    1    4    4    0    0  0.42177435422E+02 -0.52694765322E+02  0.59302127098E+02  0.89846628370E+02  0.00000000000E+00 0. -1.
        -12    1    4    4    0    0  0.70513787585E+02  0.18775021821E+02  0.10667114058E+03  0.12924174216E+03  0.00000000000E+00 0.  1.
<mgrwt>
<rscale>  2 0.19692087E+03</rscale>
<asrwt>0</asrwt>
<pdfrwt beam="1">  1       21 0.20485455E+00 0.19696715E+03</pdfrwt>
<pdfrwt beam="2">  1       21 0.75023102E-02 0.19696715E+03</pdfrwt>
<totfact> 0.16718050E+04</totfact>
</mgrwt>
</event>
<event>
12    1  0.1013215E-001  0.1814901E+03  0.7546771E-02  0.1166764E+00
         21   -1    0    0  503  502  0.00000000000E+00  0.00000000000E+00  0.16555083257E+03  0.16555083257E+03  0.00000000000E+00 0. -1.
         21   -1    0    0  501  503 -0.00000000000E+00 -0.00000000000E+00 -0.29780351674E+03  0.29780351674E+03  0.00000000000E+00 0. -1.
          6    2    1    2  501    0  0.45081310461E+02 -0.23899195608E+02 -0.20100333111E+03  0.27081543416E+03  0.17416992898E+03 0.  0.
         24    2    3    3    0    0  0.82765525450E+02 -0.24109702393E+02 -0.20166914407E+03  0.23283283711E+03  0.78161860336E+02 0.  0.
         -6    2    1    2    0  502 -0.45081310461E+02  0.23899195608E+02  0.68750646945E+02  0.19253891514E+03  0.17245604160E+03 0.  0.
        -24    2    5    5    0    0 -0.95593199001E+01 -0.49945695132E+02  0.32692639649E+02  0.10288876404E+03  0.83254645635E+02 0.  0.
          5    1    3    3  501    0 -0.37684214989E+02  0.21050678510E+00  0.66581295926E+00  0.37982597059E+02  0.47000000000E+01 0. -1.
        -11    1    4    4    0    0 -0.10769302559E+02 -0.13669453207E+02 -0.62128107376E+02  0.64519249490E+02  0.00000000000E+00 0.  1.
         12    1    4    4    0    0  0.93534828009E+02 -0.10440249186E+02 -0.13954103670E+03  0.16831358762E+03  0.00000000000E+00 0. -1.
         -5    1    5    5    0  502 -0.35521990561E+02  0.73844890740E+02  0.36058007296E+02  0.89650151098E+02  0.47000000000E+01 0.  1.
         11    1    6    6    0    0 -0.29944046457E+02 -0.64575943500E+02  0.31300467981E+02  0.77758714579E+02  0.00000000000E+00 0. -1.
        -12    1    6    6    0    0  0.20384726557E+02  0.14630248368E+02  0.13921716675E+01  0.25130049464E+02  0.00000000000E+00 0.  1.
<mgrwt>
<rscale>  2 0.18107768E+03</rscale>
<asrwt>0</asrwt>
<pdfrwt beam="1">  1       21 0.25469359E-01 0.18149011E+03</pdfrwt>
<pdfrwt beam="2">  1       21 0.45815925E-01 0.18149011E+03</pdfrwt>
<totfact> 0.67077157E+04</totfact>
</mgrwt>
</event>
<event>
12    1  0.1013215E-001  0.3960725E+03  0.7546771E-02  0.1045183E+00
         21   -1    0    0  503  502  0.00000000000E+00  0.00000000000E+00  0.11031247421E+03  0.11031247421E+03  0.00000000000E+00 0.  1.
         21   -1    0    0  501  503 -0.00000000000E+00 -0.00000000000E+00 -0.14221647538E+04  0.14221647538E+04  0.00000000000E+00 0. -1.
          6    2    1    2  501    0 -0.35115140953E+03  0.55662441330E+02 -0.63075424443E+03  0.74458894520E+03  0.17365529265E+03 0.  0.
         24    2    3    3    0    0 -0.33397406924E+03  0.66523718346E+01 -0.52520441372E+03  0.62686084875E+03  0.74376841368E+02 0.  0.
         -6    2    1    2    0  502  0.35115140953E+03 -0.55662441330E+02 -0.68109803517E+03  0.78788828282E+03  0.17455025897E+03 0.  0.
        -24    2    5    5    0    0  0.31573805878E+03 -0.85305876478E+02 -0.64945413236E+03  0.73170763452E+03  0.81472560099E+02 0.  0.
          5    1    3    3  501    0 -0.17177340291E+02  0.49010069495E+02 -0.10554983071E+03  0.11772809645E+03  0.47000000000E+01 0. -1.
        -13    1    4    4    0    0 -0.15372653843E+03  0.31761640640E+02 -0.28662753846E+03  0.32679656705E+03  0.00000000000E+00 0.  1.
         14    1    4    4    0    0 -0.18024753081E+03 -0.25109268806E+02 -0.23857687526E+03  0.30006428170E+03  0.00000000000E+00 0. -1.
         -5    1    5    5    0  502  0.35413350752E+02  0.29643435148E+02 -0.31643902810E+02  0.56180648304E+02  0.47000000000E+01 0.  1.
         11    1    6    6    0    0  0.10315523821E+03 -0.32956730431E+00 -0.26334811796E+03  0.28283094423E+03  0.00000000000E+00 0. -1.
        -12    1    6    6    0    0  0.21258282057E+03 -0.84976309173E+02 -0.38610601440E+03  0.44887669028E+03  0.00000000000E+00 0.  1.
<mgrwt>
<rscale>  2 0.39597405E+03</rscale>
<asrwt>0</asrwt>
<pdfrwt beam="1">  1       21 0.16971149E-01 0.39607248E+03</pdfrwt>
<pdfrwt beam="2">  1       21 0.21879459E+00 0.39607248E+03</pdfrwt>
<totfact> 0.27749515E+03</totfact>
</mgrwt>
</event>
<event>
12    1  0.1013215E-001  0.1762909E+03  0.7546771E-02  0.1171692E+00
         21   -1    0    0  501  502  0.00000000000E+00  0.00000000000E+00  0.94358360567E+02  0.94358360567E+02  0.00000000000E+00 0.  1.
         21   -1    0    0  502  503 -0.00000000000E+00 -0.00000000000E+00 -0.48285699024E+03  0.48285699024E+03  0.00000000000E+00 0.  1.
         -6    2    1    2    0  503  0.54019810936E+01  0.35322786473E+02 -0.35833591101E+03  0.39935336049E+03  0.17263140147E+03 0.  0.
        -24    2    3    3    0    0  0.28941146593E+02 -0.27825093899E+02 -0.11225740478E+03  0.14417015506E+03  0.81064683218E+02 0.  0.
          6    2    1    2  501    0 -0.54019810936E+01 -0.35322786473E+02 -0.30162718667E+02  0.17786199032E+03  0.17160482907E+03 0.  0.
         24    2    5    5    0    0 -0.34624116521E+02 -0.77258216257E+02 -0.41000749782E+02  0.12540184937E+03  0.82927081932E+02 0.  0.
          5    1    5    5  501    0  0.29222135427E+02  0.41935429785E+02  0.10838031114E+02  0.52460140951E+02  0.47000000000E+01 0. -1.
        -13    1    6    6    0    0 -0.25189631316E+02  0.64484235413E+00 -0.39575732154E+02  0.46916648677E+02  0.00000000000E+00 0.  1.
         14    1    6    6    0    0 -0.94344852042E+01 -0.77903058612E+02 -0.14250176277E+01  0.78485200690E+02  0.00000000000E+00 0. -1.
         -5    1    3    3    0  503 -0.23539165500E+02  0.63147880371E+02 -0.24607850622E+03  0.25518320543E+03  0.47000000000E+01 0.  1.
         13    1    4    4    0    0  0.10689088405E+02 -0.27146468862E+02 -0.12060835444E+03  0.12408691528E+03  0.00000000000E+00 0. -1.
        -14    1    4    4    0    0  0.18252058188E+02 -0.67862503659E+00  0.83509496564E+01  0.20083239784E+02  0.00000000000E+00 0.  1.
<mgrwt>
<rscale>  2 0.17603908E+03</rscale>
<asrwt>0</asrwt>
<pdfrwt beam="1">  1       21 0.14516671E-01 0.17629090E+03</pdfrwt>
<pdfrwt beam="2">  1       21 0.74285690E-01 0.17629090E+03</pdfrwt>
<totfact> 0.68118521E+04</totfact>
</mgrwt>
</event>
<event>
12    1  0.1013215E-001  0.1854017E+03  0.7546771E-02  0.1162860E+00
         21   -1    0    0  501  502  0.00000000000E+00  0.00000000000E+00  0.10081671741E+03  0.10081671741E+03  0.00000000000E+00 0.  1.
         21   -1    0    0  502  503 -0.00000000000E+00 -0.00000000000E+00 -0.44122095382E+03  0.44122095382E+03  0.00000000000E+00 0.  1.
         -6    2    1    2    0  503 -0.75341882195E+01  0.65603364751E+02 -0.30061079978E+03  0.35318638879E+03  0.17324320139E+03 0.  0.
        -24    2    3    3    0    0  0.35759050075E+02  0.46956336868E+02 -0.28762871523E+03  0.30406775028E+03  0.79014629639E+02 0.  0.
          6    2    1    2  501    0  0.75341882195E+01 -0.65603364751E+02 -0.39793436634E+02  0.18885128244E+03  0.17239699481E+03 0.  0.
         24    2    5    5    0    0  0.69420863735E+02 -0.20545502609E+02 -0.12285207105E+02  0.10737144298E+03  0.78334707849E+02 0.  0.
          5    1    5    5  501    0 -0.61886675516E+02 -0.45057862142E+02 -0.27508229529E+02  0.81479839463E+02  0.47000000000E+01 0. -1.
        -11    1    6    6    0    0  0.36593783704E+02  0.20027918235E+02  0.19727472612E+02  0.46145375610E+02  0.00000000000E+00 0.  1.
         12    1    6    6    0    0  0.32827080031E+02 -0.40573420844E+02 -0.32012679717E+02  0.61226067365E+02  0.00000000000E+00 0. -1.
         -5    1    3    3    0  503 -0.43293238295E+02  0.18647027883E+02 -0.12982084544E+02  0.49118638519E+02  0.47000000000E+01 0.  1.
         13    1    4    4    0    0 -0.40380380888E+01 -0.12179856767E+02 -0.71835530772E+01  0.14705716483E+02  0.00000000000E+00 0. -1.
        -14    1    4    4    0    0  0.39797088164E+02  0.59136193635E+02 -0.28044516215E+03  0.28936203379E+03  0.00000000000E+00 0.  1.
<mgrwt>
<rscale>  2 0.18520372E+03</rscale>
<asrwt>0</asrwt>
<pdfrwt beam="1">  1       21 0.15510264E-01 0.18540165E+03</pdfrwt>
<pdfrwt beam="2">  1       21 0.67880147E-01 0.18540165E+03</pdfrwt>
<totfact> 0.73395298E+04</totfact>
</mgrwt>
</event>
<event>
12    1  0.1013215E-001  0.1756448E+03  0.7546771E-02  0.1172100E+00
         21   -1    0    0  501  502  0.00000000000E+00  0.00000000000E+00  0.25800820886E+02  0.25800820886E+02  0.00000000000E+00 0. -1.
         21   -1    0    0  502  503 -0.00000000000E+00 -0.00000000000E+00 -0.13447291773E+04  0.13447291773E+04  0.00000000000E+00 0. -1.
         -6    2    1    2    0  503  0.25016120670E+02 -0.12527556595E+02 -0.88776143841E+03  0.90495938813E+03  0.17334467594E+03 0.  0.
        -24    2    3    3    0    0 -0.31890387132E+02 -0.48419745416E+02 -0.66088527040E+03  0.66827080484E+03  0.80343384541E+02 0.  0.
          6    2    1    2  501    0 -0.25016120670E+02  0.12527556595E+02 -0.43116691805E+03  0.46557061010E+03  0.17340223700E+03 0.  0.
         24    2    5    5    0    0 -0.28529265543E+02  0.11219597787E+02 -0.44396598818E+03  0.45142991919E+03  0.75785057349E+02 0.  0.
          5    1    5    5  501    0  0.35131448733E+01  0.13079588078E+01  0.12799070127E+02  0.14140690905E+02  0.47000000000E+01 0. -1.
        -13    1    6    6    0    0 -0.12744896003E+02  0.38472264524E+02 -0.34973260159E+03  0.35207306078E+03  0.00000000000E+00 0.  1.
         14    1    6    6    0    0 -0.15784369540E+02 -0.27252666737E+02 -0.94233386586E+02  0.99356858412E+02  0.00000000000E+00 0. -1.
         -5    1    3    3    0  503  0.56906507802E+02  0.35892188821E+02 -0.22687616801E+03  0.23668858329E+03  0.47000000000E+01 0.  1.
         11    1    4    4    0    0 -0.46233858008E+01 -0.49591447172E+00 -0.45808635936E+03  0.45810995870E+03  0.00000000000E+00 0. -1.
        -12    1    4    4    0    0 -0.27267001331E+02 -0.47923830944E+02 -0.20279891104E+03  0.21016084614E+03  0.00000000000E+00 0.  1.
<mgrwt>
<rscale>  2 0.17563055E+03</rscale>
<asrwt>0</asrwt>
<pdfrwt beam="1">  1       21 0.39693571E-02 0.17564476E+03</pdfrwt>
<pdfrwt beam="2">  1       21 0.20688141E+00 0.17564476E+03</pdfrwt>
<totfact> 0.48750440E+04</totfact>
</mgrwt>
</event>
<event>
12    1  0.1013215E-001  0.2209540E+03  0.7546771E-02  0.1133189E+00
         21   -1    0    0  501  502  0.00000000000E+00  0.00000000000E+00  0.13939420611E+04  0.13939420611E+04  0.00000000000E+00 0.  1.
         21   -1    0    0  502  503 -0.00000000000E+00 -0.00000000000E+00 -0.41750182594E+02  0.41750182594E+02  0.00000000000E+00 0. -1.
         -6    2    1    2    0  503  0.11692704897E+03  0.73550168007E+02  0.96461479270E+03  0.98959708217E+03  0.17245035440E+03 0.  0.
        -24    2    3    3    0    0  0.89665905579E+02 -0.12535111183E+02  0.39002012133E+03  0.40793139502E+03  0.78071917897E+02 0.  0.
          6    2    1    2  501    0 -0.11692704897E+03 -0.73550168007E+02  0.38757708576E+03  0.44609516149E+03  0.17234655117E+03 0.  0.
         24    2    5    5    0    0 -0.97724406819E+02 -0.64795469717E+02  0.14735673126E+03  0.20490375425E+03  0.80765275180E+02 0.  0.
          5    1    5    5  501    0 -0.19202642151E+02 -0.87546982899E+01  0.24022035450E+03  0.24119140724E+03  0.47000000000E+01 0. -1.
        -11    1    6    6    0    0 -0.32491598400E+01 -0.34035349321E+01  0.65423767742E+02  0.65592762369E+02  0.00000000000E+00 0.  1.
         12    1    6    6    0    0 -0.94475246979E+02 -0.61391934785E+02  0.81932963517E+02  0.13931099188E+03  0.00000000000E+00 0. -1.
         -5    1    3    3    0  503  0.27261143391E+02  0.86085279190E+02  0.57459467137E+03  0.58166568714E+03  0.47000000000E+01 0.  1.
         11    1    4    4    0    0  0.17763932591E+02 -0.35947921096E+02  0.89994324416E+02  0.98523036693E+02  0.00000000000E+00 0. -1.
        -12    1    4    4    0    0  0.71901972989E+02  0.23412809913E+02  0.30002579692E+03  0.30940835833E+03  0.00000000000E+00 0.  1.
<mgrwt>
<rscale>  2 0.22093378E+03</rscale>
<asrwt>0</asrwt>
<pdfrwt beam="1">  1       21 0.21445259E+00 0.22095404E+03</pdfrwt>
<pdfrwt beam="2">  1       21 0.64231061E-02 0.22095404E+03</pdfrwt>
<totfact> 0.18685310E+04</totfact>
</mgrwt>
</event>
<event>
12    1  0.1013215E-001  0.1955143E+03  0.7546771E-02  0.1153810E+00
         21   -1    0    0  501  502  0.00000000000E+00  0.00000000000E+00  0.31453230680E+03  0.31453230680E+03  0.00000000000E+00 0.  1.
         21   -1    0    0  502  503 -0.00000000000E+00 -0.00000000000E+00 -0.14744101933E+03  0.14744101933E+03  0.00000000000E+00 0. -1.
         -6    2    1    2    0  503  0.43470338800E+02  0.78313844732E+02 -0.14313507939E+02  0.19603756569E+03  0.17379045434E+03 0.  0.
        -24    2    3    3    0    0  0.16659539058E+02  0.49714955142E+02  0.60056225089E+02  0.11183743114E+03  0.78433053140E+02 0.  0.
          6    2    1    2  501    0 -0.43470338800E+02 -0.78313844732E+02  0.18140479541E+03  0.26593576044E+03  0.17260185472E+03 0.  0.
         24    2    5    5    0    0 -0.86776130799E+02 -0.25214001159E+02  0.92553508257E+02  0.15363426341E+03  0.82894464658E+02 0.  0.
          5    1    5    5  501    0  0.43305791998E+02 -0.53099843573E+02  0.88851287151E+02  0.11230149704E+03  0.47000000000E+01 0. -1.
        -13    1    6    6    0    0 -0.55607634292E+02 -0.30436000632E+02  0.10248621140E+03  0.12050718921E+03  0.00000000000E+00 0.  1.
         14    1    6    6    0    0 -0.31168496507E+02  0.52219994726E+01 -0.99327031379E+01  0.33127074194E+02  0.00000000000E+00 0. -1.
         -5    1    3    3    0  503  0.26810799743E+02  0.28598889590E+02 -0.74369733029E+02  0.84200134557E+02  0.47000000000E+01 0.  1.
         11    1    4    4    0    0  0.38067924886E+02  0.95237249298E+00  0.11523770605E+02  0.39785313967E+02  0.00000000000E+00 0. -1.
        -12    1    4    4    0    0 -0.21408385828E+02  0.48762582649E+02  0.48532454484E+02  0.72052117170E+02  0.00000000000E+00 0.  1.
<mgrwt>
<rscale>  2 0.19524984E+03</rscale>
<asrwt>0</asrwt>
<pdfrwt beam="1">  1       21 0.48389585E-01 0.19551432E+03</pdfrwt>
<pdfrwt beam="2">  1       21 0.22683234E-01 0.19551432E+03</pdfrwt>
<totfact> 0.74228889E+04</totfact>
</mgrwt>
</event>
<event>
12    1  0.1013215E-001  0.3022828E+03  0.7546771E-02  0.1084212E+00
         21   -1    0    0  503  502  0.00000000000E+00  0.00000000000E+00  0.11721434711E+03  0.11721434711E+03  0.00000000000E+00 0.  1.
         21   -1    0    0  501  503 -0.00000000000E+00 -0.00000000000E+00 -0.78026076424E+03  0.78026076424E+03  0.00000000000E+00 0. -1.
          6    2    1    2  501    0  0.16401450216E+03  0.18574062621E+03 -0.30352478087E+03  0.42776170366E+03  0.17161714767E+03 0.  0.
         24    2    3    3    0    0  0.17360006762E+02  0.62604790252E+02 -0.67047296814E+02  0.12343676945E+03  0.80750024427E+02 0.  0.
         -6    2    1    2    0  502 -0.16401450216E+03 -0.18574062621E+03 -0.35952163626E+03  0.46971340768E+03  0.17313157212E+03 0.  0.
        -24    2    5    5    0    0 -0.10758438478E+03 -0.42769955436E+02 -0.22774311360E+03  0.26719763080E+03  0.78255857131E+02 0.  0.
          5    1    3    3  501    0  0.14665449540E+03  0.12313583596E+03 -0.23647748406E+03  0.30432493421E+03  0.47000000000E+01 0. -1.
        -11    1    4    4    0    0  0.72108800166E+01  0.76843373459E+02 -0.30625305261E+02  0.83034993572E+02  0.00000000000E+00 0.  1.
         12    1    4    4    0    0  0.10149126745E+02 -0.14238583207E+02 -0.36421991552E+02  0.40401775878E+02  0.00000000000E+00 0. -1.
         -5    1    5    5    0  502 -0.56430117380E+02 -0.14297067078E+03 -0.13177852267E+03  0.20251577688E+03  0.47000000000E+01 0.  1.
         13    1    6    6    0    0 -0.92082446393E+01 -0.20440847100E+02 -0.10949106080E+03  0.11176275048E+03  0.00000000000E+00 0. -1.
        -14    1    6    6    0    0 -0.98376140143E+02 -0.22329108335E+02 -0.11825205280E+03  0.15543488032E+03  0.00000000000E+00 0.  1.
<mgrwt>
<rscale>  2 0.30206634E+03</rscale>
<asrwt>0</asrwt>
<pdfrwt beam="1">  1       21 0.18032976E-01 0.30228278E+03</pdfrwt>
<pdfrwt beam="2">  1       21 0.12004012E+00 0.30228278E+03</pdfrwt>
<totfact> 0.13891926E+04</totfact>
</mgrwt>
</event>
<event>
12    1  0.1013215E-001  0.1805667E+03  0.7546771E-02  0.1167754E+00
         21   -1    0    0  501  502  0.00000000000E+00  0.00000000000E+00  0.24829120843E+03  0.24829120843E+03  0.00000000000E+00 0.  1.
         21   -1    0    0  502  503 -0.00000000000E+00 -0.00000000000E+00 -0.13349005952E+03  0.13349005952E+03  0.00000000000E+00 0.  1.
         -6    2    1    2    0  503  0.14049169356E+02 -0.47653796988E+02  0.26086696640E+02  0.18244131828E+03  0.17359739441E+03 0.  0.
        -24    2    3    3    0    0  0.56146799286E+02  0.16349675364E+02  0.33321014298E+02  0.10534994217E+03  0.81046562954E+02 0.  0.
          6    2    1    2  501    0 -0.14049169356E+02  0.47653796988E+02  0.88714452262E+02  0.19933994967E+03  0.17145815223E+03 0.  0.
         24    2    5    5    0    0 -0.46609564286E+02  0.70582315392E+02  0.16799655222E+02  0.11700086838E+03  0.79073763396E+02 0.  0.
          5    1    5    5  501    0  0.32560394930E+02 -0.22928518404E+02  0.71914797040E+02  0.82339081289E+02  0.47000000000E+01 0. -1.
        -11    1    6    6    0    0  0.11692943177E+02  0.31991224196E+02 -0.18410116995E+02  0.38718157930E+02  0.00000000000E+00 0.  1.
         12    1    6    6    0    0 -0.58302507463E+02  0.38591091196E+02  0.35209772218E+02  0.78282710452E+02  0.00000000000E+00 0. -1.
         -5    1    3    3    0  503 -0.42097629930E+02 -0.64003472352E+02 -0.72343176579E+01  0.77091376112E+02  0.47000000000E+01 0.  1.
         13    1    4    4    0    0  0.30627866169E+02 -0.27157831649E+01  0.57603069410E+02  0.65295905459E+02  0.00000000000E+00 0. -1.
        -14    1    4    4    0    0  0.25518933117E+02  0.19065458529E+02 -0.24282055112E+02  0.40054036710E+02  0.00000000000E+00 0.  1.
<mgrwt>
<rscale>  2 0.18005053E+03</rscale>
<asrwt>0</asrwt>
<pdfrwt beam="1">  1       21 0.38198647E-01 0.18056666E+03</pdfrwt>
<pdfrwt beam="2">  1       21 0.20536932E-01 0.18056666E+03</pdfrwt>
<totfact> 0.14575578E+05</totfact>
</mgrwt>
</event>
<event>
12    1  0.1013215E-001  0.2034238E+03  0.7546771E-02  0.1147319E+00
         21   -1    0    0  503  502  0.00000000000E+00  0.00000000000E+00  0.34846457297E+02  0.34846457297E+02  0.00000000000E+00 0.  1.
         21   -1    0    0  501  503 -0.00000000000E+00 -0.00000000000E+00 -0.17598467166E+04  0.17598467166E+04  0.00000000000E+00 0. -1.
          6    2    1    2  501    0  0.40470328901E+02 -0.96876713629E+02 -0.13766829873E+04  0.13913246442E+04  0.17177098992E+03 0.  0.
         24    2    3    3    0    0  0.50994525743E+02 -0.95660492191E+02 -0.62139109021E+03  0.63594382788E+03  0.80909170081E+02 0.  0.
         -6    2    1    2    0  502 -0.40470328901E+02  0.96876713629E+02 -0.34831727204E+03  0.40336852970E+03  0.17423634404E+03 0.  0.
        -24    2    5    5    0    0 -0.26821534420E+02  0.42813079014E+02 -0.33184098775E+03  0.34503565627E+03  0.79867443313E+02 0.  0.
          5    1    3    3  501    0 -0.10524196842E+02 -0.12162214379E+01 -0.75529189705E+03  0.75538081632E+03  0.47000000000E+01 0. -1.
        -11    1    4    4    0    0  0.52039355632E+01 -0.88721000379E+02 -0.41889500066E+03  0.42821900755E+03  0.00000000000E+00 0.  1.
         12    1    4    4    0    0  0.45790590179E+02 -0.69394918122E+01 -0.20249608955E+03  0.20772482033E+03  0.00000000000E+00 0. -1.
         -5    1    5    5    0  502 -0.13648794481E+02  0.54063634615E+02 -0.16476284291E+02  0.58332873430E+02  0.47000000000E+01 0.  1.
         11    1    6    6    0    0 -0.40825859083E+02  0.53779267980E+02 -0.18161060508E+03  0.19375596072E+03  0.00000000000E+00 0. -1.
        -12    1    6    6    0    0  0.14004324664E+02 -0.10966188965E+02 -0.15023038267E+03  0.15127969555E+03  0.00000000000E+00 0.  1.
<mgrwt>
<rscale>  2 0.20289486E+03</rscale>
<asrwt>0</asrwt>
<pdfrwt beam="1">  1       21 0.53609938E-02 0.20342382E+03</pdfrwt>
<pdfrwt beam="2">  1       21 0.27074563E+00 0.20342382E+03</pdfrwt>
<totfact> 0.11902152E+04</totfact>
</mgrwt>
</event>
<event>
12    1  0.1013215E-001  0.1891894E+03  0.7546771E-02  0.1159801E+00
         21   -1    0    0  503  502  0.00000000000E+00  0.00000000000E+00  0.30064265481E+03  0.30064265481E+03  0.00000000000E+00 0. -1.
         21   -1    0    0  501  503 -0.00000000000E+00 -0.00000000000E+00 -0.13936117743E+03  0.13936117743E+03  0.00000000000E+00 0. -1.
          6    2    1    2  501    0 -0.35222486521E+02 -0.64952452481E+02 -0.62310233867E+01  0.18929193788E+03  0.17416419682E+03 0.  0.
         24    2    3    3    0    0  0.33881512809E+02 -0.68221892716E+02 -0.32976485760E+02  0.11497194245E+03  0.79554480593E+02 0.  0.
         -6    2    1    2    0  502  0.35222486521E+02  0.64952452481E+02  0.16751250076E+03  0.25071189436E+03  0.17127922063E+03 0.  0.
        -24    2    5    5    0    0 -0.26096844728E+02 -0.31603654770E+01  0.12334321373E+03  0.14886675568E+03  0.79099490252E+02 0.  0.
          5    1    3    3  501    0 -0.69103999329E+02  0.32694402346E+01  0.26745462373E+02  0.74319995427E+02  0.47000000000E+01 0. -1.
        -13    1    4    4    0    0  0.57279037318E+01 -0.75725013552E+02 -0.75760657221E+01  0.76318302722E+02  0.00000000000E+00 0.  1.
         14    1    4    4    0    0  0.28153609077E+02  0.75031208362E+01 -0.25400420038E+02  0.38653639731E+02  0.00000000000E+00 0. -1.
         -5    1    5    5    0  502  0.61319331249E+02  0.68112817958E+02  0.44169287027E+02  0.10184513867E+03  0.47000000000E+01 0.  1.
         13    1    6    6    0    0  0.24504169893E+02  0.77812790762E+01  0.69817112928E+02  0.74400483223E+02  0.00000000000E+00 0. -1.
        -14    1    6    6    0    0 -0.50601014622E+02 -0.10941644553E+02  0.53526100807E+02  0.74466272458E+02  0.00000000000E+00 0.  1.
<mgrwt>
<rscale>  2 0.18852273E+03</rscale>
<asrwt>0</asrwt>
<pdfrwt beam="1">  1       21 0.46252716E-01 0.18918936E+03</pdfrwt>
<pdfrwt beam="2">  1       21 0.21440181E-01 0.18918936E+03</pdfrwt>
<totfact> 0.90868383E+04</totfact>
</mgrwt>
</event>
<event>
12    1  0.1013215E-001  0.1899261E+03  0.7546771E-02  0.1158917E+00
         21   -1    0    0  503  502  0.00000000000E+00  0.00000000000E+00  0.18517579431E+03  0.18517579431E+03  0.00000000000E+00 0. -1.
         21   -1    0    0  501  503 -0.00000000000E+00 -0.00000000000E+00 -0.22657112992E+03  0.22657112992E+03  0.00000000000E+00 0. -1.
          6    2    1    2  501    0 -0.32969520293E+02 -0.70569501604E+02  0.58576994378E+02  0.19711607859E+03  0.17133721237E+03 0.  0.
         24    2    3    3    0    0  0.45632060203E+02 -0.45217369656E+02  0.49005892904E+02  0.11384162251E+03  0.80196271984E+02 0.  0.
         -6    2    1    2    0  502  0.32969520293E+02  0.70569501604E+02 -0.99972329989E+02  0.21463084564E+03  0.17321919441E+03 0.  0.
        -24    2    5    5    0    0  0.83469673304E+02  0.39463491190E+02 -0.37061733950E+02  0.12804168678E+03  0.80601165818E+02 0.  0.
          5    1    3    3  501    0 -0.78601580497E+02 -0.25352131949E+02  0.95711014731E+01  0.83274456073E+02  0.47000000000E+01 0. -1.
        -11    1    4    4    0    0  0.40729595228E+02  0.13653842199E+02  0.14036238596E+02  0.45192292796E+02  0.00000000000E+00 0.  1.
         12    1    4    4    0    0  0.49024649750E+01 -0.58871211855E+02  0.34969654308E+02  0.68649329717E+02  0.00000000000E+00 0. -1.
         -5    1    5    5    0  502 -0.50500153011E+02  0.31106010415E+02 -0.62910596038E+02  0.86589158859E+02  0.47000000000E+01 0.  1.
         13    1    6    6    0    0  0.44031946414E+02 -0.11612796919E+02 -0.43771995425E+02  0.63163731214E+02  0.00000000000E+00 0. -1.
        -14    1    6    6    0    0  0.39437726890E+02  0.51076288109E+02  0.67102614749E+01  0.64877955565E+02  0.00000000000E+00 0.  1.
<mgrwt>
<rscale>  2 0.18949595E+03</rscale>
<asrwt>0</asrwt>
<pdfrwt beam="1">  1       21 0.28488584E-01 0.18992613E+03</pdfrwt>
<pdfrwt beam="2">  1       21 0.34857097E-01 0.18992613E+03</pdfrwt>
<totfact> 0.93575466E+04</totfact>
</mgrwt>
</event>
<event>
12    1  0.1013215E-001  0.1925420E+03  0.7546771E-02  0.1157197E+00
         21   -1    0    0  501  502  0.00000000000E+00  0.00000000000E+00  0.34302830143E+02  0.34302830143E+02  0.00000000000E+00 0.  1.
         21   -1    0    0  502  503 -0.00000000000E+00 -0.00000000000E+00 -0.11397759926E+04  0.11397759926E+04  0.00000000000E+00 0.  1.
         -6    2    1    2    0  503  0.53249319521E+02 -0.61526325586E+02 -0.71824374504E+03  0.74360372778E+03  0.17450343238E+03 0.  0.
        -24    2    3    3    0    0 -0.20011335244E+02 -0.97946666082E+01 -0.19204725305E+03  0.20979840160E+03  0.81466759340E+02 0.  0.
          6    2    1    2  501    0 -0.53249319521E+02  0.61526325586E+02 -0.38722941738E+03  0.43047509493E+03  0.16953231815E+03 0.  0.
         24    2    5    5    0    0 -0.90525929984E+02  0.42080703872E+02 -0.23125958547E+03  0.26886953699E+03  0.94043088044E+02 0.  0.
          5    1    5    5  501    0  0.37276610464E+02  0.19445621713E+02 -0.15596983191E+03  0.16160555794E+03  0.47000000000E+01 0. -1.
        -11    1    6    6    0    0 -0.73881216148E+01  0.28905894586E+02 -0.89363566733E+01  0.31144719511E+02  0.00000000000E+00 0.  1.
         12    1    6    6    0    0 -0.83137808370E+02  0.13174809286E+02 -0.22232322880E+03  0.23772481748E+03  0.00000000000E+00 0. -1.
         -5    1    3    3    0  503  0.73260654765E+02 -0.51731658977E+02 -0.52619649199E+03  0.53380532618E+03  0.47000000000E+01 0.  1.
         13    1    4    4    0    0 -0.17995290461E+02  0.18903293723E+02 -0.17376053911E+03  0.17570967515E+03  0.00000000000E+00 0. -1.
        -14    1    4    4    0    0 -0.20160447828E+01 -0.28697960332E+02 -0.18286713943E+02  0.34088726444E+02  0.00000000000E+00 0.  1.
<mgrwt>
<rscale>  2 0.19140863E+03</rscale>
<asrwt>0</asrwt>
<pdfrwt beam="1">  1       21 0.52773591E-02 0.19254201E+03</pdfrwt>
<pdfrwt beam="2">  1       21 0.17535013E+00 0.19254201E+03</pdfrwt>
<totfact> 0.48067210E+04</totfact>
</mgrwt>
</event>
<event>
12    1  0.1013215E-001  0.2298202E+03  0.7546771E-02  0.1126801E+00
         21   -1    0    0  501  502  0.00000000000E+00  0.00000000000E+00  0.12625381538E+03  0.12625381538E+03  0.00000000000E+00 0. -1.
         21   -1    0    0  502  503 -0.00000000000E+00 -0.00000000000E+00 -0.52010763089E+03  0.52010763089E+03  0.00000000000E+00 0.  1.
         -6    2    1    2    0  503 -0.10574550710E+03  0.10631245635E+03 -0.34006322929E+03  0.41033020636E+03  0.17390637621E+03 0.  0.
        -24    2    3    3    0    0 -0.11154221805E+03  0.24420057830E+02 -0.15350207287E+03  0.20645004088E+03  0.77593346177E+02 0.  0.
          6    2    1    2  501    0  0.10574550710E+03 -0.10631245635E+03 -0.53790586224E+02  0.23603123992E+03  0.17416333828E+03 0.  0.
         24    2    5    5    0    0  0.36306556504E+02 -0.12302723435E+03 -0.63193754851E+02  0.16383940351E+03  0.79975202733E+02 0.  0.
          5    1    5    5  501    0  0.69438950600E+02  0.16714777998E+02  0.94031686271E+01  0.72191836409E+02  0.47000000000E+01 0. -1.
        -13    1    6    6    0    0  0.56476695042E+02 -0.80428853803E+02 -0.62944175300E+02  0.11670641290E+03  0.00000000000E+00 0.  1.
         14    1    6    6    0    0 -0.20170138538E+02 -0.42598380548E+02 -0.24957955163E+00  0.47132990611E+02  0.00000000000E+00 0. -1.
         -5    1    3    3    0  503  0.57967109419E+01  0.81892398523E+02 -0.18656115641E+03  0.20388016548E+03  0.47000000000E+01 0.  1.
         11    1    4    4    0    0 -0.69034609609E+02 -0.11521214875E+02 -0.12652275586E+03  0.14459088306E+03  0.00000000000E+00 0. -1.
        -12    1    4    4    0    0 -0.42507608437E+02  0.35941272705E+02 -0.26979317019E+02  0.61859157814E+02  0.00000000000E+00 0.  1.
<mgrwt>
<rscale>  2 0.22977151E+03</rscale>
<asrwt>0</asrwt>
<pdfrwt beam="1">  1       21 0.19423664E-01 0.22982019E+03</pdfrwt>
<pdfrwt beam="2">  1       21 0.80016559E-01 0.22982019E+03</pdfrwt>
<totfact> 0.32867033E+04</totfact>
</mgrwt>
</event>
<event>
12    1  0.1013215E-001  0.1840171E+03  0.7546771E-02  0.1164387E+00
         21   -1    0    0  503  502  0.00000000000E+00  0.00000000000E+00  0.13621639949E+03  0.13621639949E+03  0.00000000000E+00 0.  1.
         21   -1    0    0  501  503 -0.00000000000E+00 -0.00000000000E+00 -0.25298779268E+03  0.25298779268E+03  0.00000000000E+00 0.  1.
          6    2    1    2  501    0  0.49864106135E+02  0.36972928906E+02 -0.26285432289E+02  0.18414324530E+03  0.17136039299E+03 0.  0.
         24    2    3    3    0    0  0.38551803922E+02  0.28671590697E+02  0.49495487618E+02  0.10693108163E+03  0.81707718266E+02 0.  0.
         -6    2    1    2    0  502 -0.49864106135E+02 -0.36972928906E+02 -0.90485960904E+02  0.20506094687E+03  0.17323064468E+03 0.  0.
        -24    2    5    5    0    0 -0.29075546254E+02 -0.53521217709E+02 -0.12522449176E+03  0.16107383955E+03  0.80954927686E+02 0.  0.
          5    1    3    3  501    0  0.11312302213E+02  0.83013382090E+01 -0.75780919907E+02  0.77212163675E+02  0.47000000000E+01 0. -1.
        -11    1    4    4    0    0  0.53892295532E+02  0.17246023358E+02  0.62108158074E+02  0.84019212914E+02  0.00000000000E+00 0.  1.
         12    1    4    4    0    0 -0.15340491609E+02  0.11425567340E+02 -0.12612670456E+02  0.22911868712E+02  0.00000000000E+00 0. -1.
         -5    1    5    5    0  502 -0.20788559881E+02  0.16548288803E+02  0.34738530853E+02  0.43987107316E+02  0.47000000000E+01 0.  1.
         13    1    6    6    0    0 -0.67386474353E+00 -0.66612064866E+02 -0.10316455229E+03  0.12280287509E+03  0.00000000000E+00 0. -1.
        -14    1    6    6    0    0 -0.28401681511E+02  0.13090847157E+02 -0.22059939464E+02  0.38270964465E+02  0.00000000000E+00 0.  1.
<mgrwt>
<rscale>  2 0.18357560E+03</rscale>
<asrwt>0</asrwt>
<pdfrwt beam="1">  1       21 0.20956369E-01 0.18401707E+03</pdfrwt>
<pdfrwt beam="2">  1       21 0.38921198E-01 0.18401707E+03</pdfrwt>
<totfact> 0.13500934E+05</totfact>
</mgrwt>
</event>
<event>
12    1  0.1013215E-001  0.2104899E+03  0.7546771E-02  0.1141371E+00
         21   -1    0    0  503  502  0.00000000000E+00  0.00000000000E+00  0.12709018147E+04  0.12709018147E+04  0.00000000000E+00 0.  1.
         21   -1    0    0  501  503 -0.00000000000E+00 -0.00000000000E+00 -0.98093020359E+02  0.98093020359E+02  0.00000000000E+00 0.  1.
          6    2    1    2  501    0  0.10817668646E+03 -0.50767092269E+02  0.35664973793E+02  0.21253383308E+03  0.17210214030E+03 0.  0.
         24    2    3    3    0    0  0.10185511104E+03 -0.47120053843E-01 -0.25812282706E+02  0.13244624999E+03  0.80630449168E+02 0.  0.
         -6    2    1    2    0  502 -0.10817668646E+03  0.50767092269E+02  0.11371438206E+04  0.11564610020E+04  0.17328152627E+03 0.  0.
        -24    2    5    5    0    0 -0.13798235556E+03  0.48190873783E+02  0.75478127317E+03  0.77290106867E+03  0.79497175111E+02 0.  0.
          5    1    3    3  501    0  0.63215754221E+01 -0.50719972215E+02  0.61477256499E+02  0.80087583082E+02  0.47000000000E+01 0. -1.
        -11    1    4    4    0    0  0.86090881873E+02  0.19080597185E+02  0.10157668401E+02  0.88763096825E+02  0.00000000000E+00 0.  1.
         12    1    4    4    0    0  0.15764229169E+02 -0.19127717239E+02 -0.35969951107E+02  0.43683153168E+02  0.00000000000E+00 0. -1.
         -5    1    5    5    0  502  0.29805669093E+02  0.25762184861E+01  0.38236254742E+03  0.38355993336E+03  0.47000000000E+01 0.  1.
         11    1    6    6    0    0 -0.25957787482E+02  0.42064035928E+01  0.38775807147E+02  0.46851507788E+02  0.00000000000E+00 0. -1.
        -12    1    6    6    0    0 -0.11202456807E+03  0.43984470190E+02  0.71600546603E+03  0.72604956088E+03  0.00000000000E+00 0.  1.
<mgrwt>
<rscale>  2 0.21024698E+03</rscale>
<asrwt>0</asrwt>
<pdfrwt beam="1">  1       21 0.19552334E+00 0.21048986E+03</pdfrwt>
<pdfrwt beam="2">  1       21 0.15091235E-01 0.21048986E+03</pdfrwt>
<totfact> 0.54806481E+03</totfact>
</mgrwt>
</event>
<event>
12    1  0.1013215E-001  0.1835404E+03  0.7546771E-02  0.1164684E+00
         21   -1    0    0  501  502  0.00000000000E+00  0.00000000000E+00  0.17033667324E+03  0.17033667324E+03  0.00000000000E+00 0.  1.
         21   -1    0    0  502  503 -0.00000000000E+00 -0.00000000000E+00 -0.20213610049E+03  0.20213610049E+03  0.00000000000E+00 0.  1.
         -6    2    1    2    0  503  0.88783884242E+01 -0.56769134011E+02 -0.46858362011E+02  0.18942753217E+03  0.17431443858E+03 0.  0.
        -24    2    3    3    0    0  0.54337666995E+00 -0.10264468598E+03 -0.52480794930E+01  0.12675740930E+03  0.74186735035E+02 0.  0.
          6    2    1    2  501    0 -0.88783884242E+01  0.56769134011E+02  0.15058934764E+02  0.18304524155E+03  0.17313933286E+03 0.  0.
         24    2    5    5    0    0 -0.42234058907E+01 -0.28713030041E+02  0.39379416508E+02  0.93924845090E+02  0.80180189755E+02 0.  0.
          5    1    5    5  501    0 -0.46549825335E+01  0.85482164052E+02 -0.24320481744E+02  0.89120396463E+02  0.47000000000E+01 0. -1.
        -13    1    6    6    0    0  0.24730007621E+02  0.16554736756E+02  0.23419559840E+02  0.37869623303E+02  0.00000000000E+00 0.  1.
         14    1    6    6    0    0 -0.28953413512E+02 -0.45267766797E+02  0.15959856668E+02  0.56055221787E+02  0.00000000000E+00 0. -1.
         -5    1    3    3    0  503  0.83350117542E+01  0.45875551972E+02 -0.41610282518E+02  0.62670122873E+02  0.47000000000E+01 0.  1.
         11    1    4    4    0    0  0.22903557290E+02 -0.31507918029E+02  0.25002774698E+02  0.46286721396E+02  0.00000000000E+00 0. -1.
        -12    1    4    4    0    0 -0.22360180620E+02 -0.71136767954E+02 -0.30250854191E+02  0.80470687903E+02  0.00000000000E+00 0.  1.
<mgrwt>
<rscale>  2 0.18326086E+03</rscale>
<asrwt>0</asrwt>
<pdfrwt beam="1">  1       21 0.26205642E-01 0.18354041E+03</pdfrwt>
<pdfrwt beam="2">  1       21 0.31097862E-01 0.18354041E+03</pdfrwt>
<totfact> 0.13791093E+05</totfact>
</mgrwt>
</event>
<event>
12    1  0.1013215E-001  0.1800872E+03  0.7546771E-02  0.1167988E+00
         21   -1    0    0  503  502  0.00000000000E+00  0.00000000000E+00  0.63958808058E+03  0.63958808058E+03  0.00000000000E+00 0.  1.
         21   -1    0    0  501  503 -0.00000000000E+00 -0.00000000000E+00 -0.63249192922E+02  0.63249192922E+02  0.00000000000E+00 0.  1.
          6    2    1    2  501    0  0.13760580899E+01 -0.46380803048E+02  0.44730703269E+03  0.48219806014E+03  0.17400665298E+03 0.  0.
         24    2    3    3    0    0  0.15137341029E+02  0.40986451767E+02  0.21182445208E+03  0.23061001215E+03  0.80014691664E+02 0.  0.
         -6    2    1    2    0  502 -0.13760580899E+01  0.46380803048E+02  0.12903185497E+03  0.22063921336E+03  0.17285650248E+03 0.  0.
        -24    2    5    5    0    0 -0.31011636759E+02  0.56553443703E+02  0.19168022663E+02  0.10629804934E+03  0.82291242495E+02 0.  0.
          5    1    3    3  501    0 -0.13761282939E+02 -0.87367254815E+02  0.23548258060E+03  0.25158804799E+03  0.47000000000E+01 0. -1.
        -13    1    4    4    0    0 -0.21824943432E+02 -0.11353930291E+02  0.85427043962E+02  0.88898929852E+02  0.00000000000E+00 0.  1.
         14    1    4    4    0    0  0.36962284461E+02  0.52340382058E+02  0.12639740812E+03  0.14171108230E+03  0.00000000000E+00 0. -1.
         -5    1    5    5    0  502  0.29635578669E+02 -0.10172640655E+02  0.10986383231E+03  0.11434116402E+03  0.47000000000E+01 0.  1.
         13    1    6    6    0    0 -0.35345305483E+02 -0.10535207247E+02  0.21261981811E+01  0.36943225768E+02  0.00000000000E+00 0. -1.
        -14    1    6    6    0    0  0.43336687243E+01  0.67088650951E+02  0.17041824482E+02  0.69354823572E+02  0.00000000000E+00 0.  1.
<mgrwt>
<rscale>  2 0.17980875E+03</rscale>
<asrwt>0</asrwt>
<pdfrwt beam="1">  1       21 0.98398161E-01 0.18008717E+03</pdfrwt>
<pdfrwt beam="2">  1       21 0.97306456E-02 0.18008717E+03</pdfrwt>
<totfact> 0.73037810E+04</totfact>
</mgrwt>
</event>
<event>
12    1  0.1013215E-001  0.2497209E+03  0.7546771E-02  0.1113547E+00
         21   -1    0    0  503  502  0.00000000000E+00  0.00000000000E+00  0.30284793869E+03  0.30284793869E+03  0.00000000000E+00 0.  1.
         21   -1    0    0  501  503 -0.00000000000E+00 -0.00000000000E+00 -0.33314044485E+03  0.33314044485E+03  0.00000000000E+00 0.  1.
          6    2    1    2  501    0 -0.83701274554E+02  0.15938423872E+03 -0.21193245510E+03  0.32752997715E+03  0.17306438541E+03 0.  0.
         24    2    3    3    0    0 -0.11848195859E+03  0.15707535562E+03 -0.19620984216E+03  0.28900313610E+03  0.79459855670E+02 0.  0.
         -6    2    1    2    0  502  0.83701274554E+02 -0.15938423872E+03  0.18163994894E+03  0.30845840638E+03  0.17246529653E+03 0.  0.
        -24    2    5    5    0    0  0.12417856375E+03 -0.14030148391E+03  0.13899400785E+03  0.24646381982E+03  0.79500051451E+02 0.  0.
          5    1    3    3  501    0  0.34780684039E+02  0.23088830933E+01 -0.15722612943E+02  0.38526841048E+02  0.47000000000E+01 0. -1.
        -13    1    4    4    0    0 -0.33044849165E+02  0.74713554274E+02 -0.35127761124E+02  0.88927143496E+02  0.00000000000E+00 0.  1.
         14    1    4    4    0    0 -0.85437109428E+02  0.82361801348E+02 -0.16108208103E+03  0.20007599261E+03  0.00000000000E+00 0. -1.
         -5    1    5    5    0  502 -0.40477289196E+02 -0.19082754803E+02  0.42645941091E+02  0.61994586562E+02  0.47000000000E+01 0.  1.
         13    1    6    6    0    0  0.34956833279E+02 -0.47531757924E+02  0.92293844646E+02  0.10954178182E+03  0.00000000000E+00 0. -1.
        -14    1    6    6    0    0  0.89221730471E+02 -0.92769725988E+02  0.46700163201E+02  0.13692203800E+03  0.00000000000E+00 0.  1.
<mgrwt>
<rscale>  2 0.24961712E+03</rscale>
<asrwt>0</asrwt>
<pdfrwt beam="1">  1       21 0.46591990E-01 0.24972089E+03</pdfrwt>
<pdfrwt beam="2">  1       21 0.51252376E-01 0.24972089E+03</pdfrwt>
<totfact> 0.15448072E+04</totfact>
</mgrwt>
</event>
<event>
12    1  0.1013215E-001  0.1790560E+03  0.7546771E-02  0.1169154E+00
         21   -1    0    0  503  502  0.00000000000E+00  0.00000000000E+00  0.55427932608E+02  0.55427932608E+02  0.00000000000E+00 0.  1.
         21   -1    0    0  501  503 -0.00000000000E+00 -0.00000000000E+00 -0.72309705820E+03  0.72309705820E+03  0.00000000000E+00 0.  1.
          6    2    1    2  501    0 -0.33664135969E+02  0.23500099729E+02 -0.51266998943E+03  0.54303918842E+03  0.17428572332E+03 0.  0.
         24    2    3    3    0    0 -0.38098086827E+02 -0.26302555418E+02 -0.14703246665E+03  0.17396893433E+03  0.80643383009E+02 0.  0.
         -6    2    1    2    0  502  0.33664135969E+02 -0.23500099729E+02 -0.15499913616E+03  0.23548580239E+03  0.17246246600E+03 0.  0.
        -24    2    5    5    0    0 -0.45204309881E+02 -0.92414816848E+01 -0.10844431110E+03  0.14267965133E+03  0.80426859174E+02 0.  0.
          5    1    3    3  501    0  0.44339508589E+01  0.49802655147E+02 -0.36563752279E+03  0.36907025408E+03  0.47000000000E+01 0. -1.
        -11    1    4    4    0    0 -0.76769946142E+01  0.28166173945E+02 -0.61742935881E+02  0.68296850090E+02  0.00000000000E+00 0.  1.
         12    1    4    4    0    0 -0.30421092213E+02 -0.54468729363E+02 -0.85289530766E+02  0.10567208424E+03  0.00000000000E+00 0. -1.
         -5    1    5    5    0  502  0.78868445850E+02 -0.14258618044E+02 -0.46554825052E+02  0.92806151062E+02  0.47000000000E+01 0.  1.
         13    1    6    6    0    0 -0.25542147707E+02  0.85330948370E+01  0.39359972628E+01  0.27215934514E+02  0.00000000000E+00 0. -1.
        -14    1    6    6    0    0 -0.19662162174E+02 -0.17774576522E+02 -0.11238030837E+03  0.11546371681E+03  0.00000000000E+00 0.  1.
<mgrwt>
<rscale>  2 0.17861077E+03</rscale>
<asrwt>0</asrwt>
<pdfrwt beam="1">  1       21 0.85273753E-02 0.17905597E+03</pdfrwt>
<pdfrwt beam="2">  1       21 0.11124569E+00 0.17905597E+03</pdfrwt>
<totfact> 0.68667238E+04</totfact>
</mgrwt>
</event>
<event>
12    1  0.1013215E-001  0.2980560E+03  0.7546771E-02  0.1086482E+00
         21   -1    0    0  501  502  0.00000000000E+00  0.00000000000E+00  0.50459332817E+03  0.50459332817E+03  0.00000000000E+00 0. -1.
         21   -1    0    0  502  503 -0.00000000000E+00 -0.00000000000E+00 -0.24473578677E+03  0.24473578677E+03  0.00000000000E+00 0.  1.
         -6    2    1    2    0  503  0.22311472483E+03 -0.84978171837E+02  0.33051348563E+03  0.44505793975E+03  0.17842627449E+03 0.  0.
        -24    2    3    3    0    0  0.19929557274E+03 -0.81489953095E+01  0.21580118862E+03  0.30487564608E+03  0.81202679307E+02 0.  0.
          6    2    1    2  501    0 -0.22311472483E+03  0.84978171837E+02 -0.70655944232E+02  0.30427117519E+03  0.17489201089E+03 0.  0.
         24    2    5    5    0    0 -0.23600751519E+03  0.57923145244E+02 -0.87457814163E+02  0.26959277643E+03  0.77309494015E+02 0.  0.
          5    1    5    5  501    0  0.12892790363E+02  0.27055026593E+02  0.16801869931E+02  0.34678398759E+02  0.47000000000E+01 0. -1.
        -13    1    6    6    0    0 -0.14140684147E+03  0.63541892188E+01 -0.77534043619E+02  0.16139330362E+03  0.00000000000E+00 0.  1.
         14    1    6    6    0    0 -0.94600673724E+02  0.51568956025E+02 -0.99237705438E+01  0.10819947281E+03  0.00000000000E+00 0. -1.
         -5    1    3    3    0  503  0.23819152085E+02 -0.76829176528E+02  0.11471229701E+03  0.14018229366E+03  0.47000000000E+01 0.  1.
         11    1    4    4    0    0  0.12526009346E+03  0.62947403399E+01  0.18476042485E+03  0.22330725326E+03  0.00000000000E+00 0. -1.
        -12    1    4    4    0    0  0.74035479280E+02 -0.14443735649E+02  0.31040763769E+02  0.81568392820E+02  0.00000000000E+00 0.  1.
<mgrwt>
<rscale>  2 0.29752910E+03</rscale>
<asrwt>0</asrwt>
<pdfrwt beam="1">  1       21 0.77629743E-01 0.29805604E+03</pdfrwt>
<pdfrwt beam="2">  1       21 0.37651660E-01 0.29805604E+03</pdfrwt>
<totfact> 0.94251209E+03</totfact>
</mgrwt>
</event>
<event>
12    1  0.1013215E-001  0.1816019E+03  0.7546771E-02  0.1166777E+00
         21   -1    0    0  501  502  0.00000000000E+00  0.00000000000E+00  0.22112594772E+03  0.22112594772E+03  0.00000000000E+00 0.  1.
         21   -1    0    0  502  503 -0.00000000000E+00 -0.00000000000E+00 -0.17806345006E+03  0.17806345006E+03  0.00000000000E+00 0.  1.
         -6    2    1    2    0  503 -0.10344577672E+02  0.42459381915E+02 -0.61205152194E+02  0.19163853693E+03  0.17626527956E+03 0.  0.
        -24    2    3    3    0    0 -0.30170199761E+02  0.52158018559E+02  0.24329773489E+02  0.10317706308E+03  0.80142801382E+02 0.  0.
          6    2    1    2  501    0  0.10344577672E+02 -0.42459381915E+02  0.10426764985E+03  0.20755086086E+03  0.17405690919E+03 0.  0.
         24    2    5    5    0    0  0.52856996614E+02 -0.48443685447E+02  0.17877659010E+02  0.11096702075E+03  0.82785362541E+02 0.  0.
          5    1    5    5  501    0 -0.42512418942E+02  0.59843035319E+01  0.86389990843E+02  0.96583840112E+02  0.47000000000E+01 0. -1.
        -11    1    6    6    0    0  0.70008994896E+02 -0.19296137946E+02 -0.19819593459E+00  0.72619829163E+02  0.00000000000E+00 0.  1.
         12    1    6    6    0    0 -0.17151998282E+02 -0.29147547501E+02  0.18075854944E+02  0.38347191584E+02  0.00000000000E+00 0. -1.
         -5    1    3    3    0  503  0.19825622088E+02 -0.96986366435E+01 -0.85534925684E+02  0.88461473850E+02  0.47000000000E+01 0.  1.
         13    1    4    4    0    0  0.26211485282E+02  0.29211967709E+02  0.68122194018E+01  0.39834499510E+02  0.00000000000E+00 0. -1.
        -14    1    4    4    0    0 -0.56381685042E+02  0.22946050850E+02  0.17517554088E+02  0.63342563565E+02  0.00000000000E+00 0.  1.
<mgrwt>
<rscale>  2 0.18106386E+03</rscale>
<asrwt>0</asrwt>
<pdfrwt beam="1">  1       21 0.34019377E-01 0.18160192E+03</pdfrwt>
<pdfrwt beam="2">  1       21 0.27394377E-01 0.18160192E+03</pdfrwt>
<totfact> 0.10623535E+05</totfact>
</mgrwt>
</event>
<event>
12    1  0.1013215E-001  0.1925289E+03  0.7546771E-02  0.1156370E+00
         21   -1    0    0  501  502  0.00000000000E+00  0.00000000000E+00  0.20570617006E+03  0.20570617006E+03  0.00000000000E+00 0. -1.
         21   -1    0    0  502  503 -0.00000000000E+00 -0.00000000000E+00 -0.21520251982E+03  0.21520251982E+03  0.00000000000E+00 0.  1.
         -6    2    1    2    0  503 -0.43097358772E+02 -0.72362129268E+02 -0.90498496628E+02  0.21273778550E+03  0.17312922169E+03 0.  0.
        -24    2    3    3    0    0 -0.38472600525E+02 -0.67267861662E+02  0.99914281235E+01  0.11190299523E+03  0.80108336038E+02 0.  0.
          6    2    1    2  501    0  0.43097358772E+02  0.72362129268E+02  0.81002146869E+02  0.20817090438E+03  0.17227918489E+03 0.  0.
         24    2    5    5    0    0  0.17468104785E+02  0.83181210114E+02  0.11469451283E+03  0.16422574885E+03  0.81185078122E+02 0.  0.
          5    1    5    5  501    0  0.25629253987E+02 -0.10819080847E+02 -0.33692365964E+02  0.43945155530E+02  0.47000000000E+01 0. -1.
        -13    1    6    6    0    0  0.17032029537E-01 -0.14093771840E+02  0.18367556966E+01  0.14212964724E+02  0.00000000000E+00 0.  1.
         14    1    6    6    0    0  0.17451072755E+02  0.97274981954E+02  0.11285775714E+03  0.15001278412E+03  0.00000000000E+00 0. -1.
         -5    1    3    3    0  503 -0.46247582469E+01 -0.50942676056E+01 -0.10048992475E+03  0.10083479026E+03  0.47000000000E+01 0.  1.
         11    1    4    4    0    0 -0.33283365689E+02 -0.83119713607E+02 -0.47233808938E+01  0.89660356617E+02  0.00000000000E+00 0. -1.
        -12    1    4    4    0    0 -0.51892348366E+01  0.15851851945E+02  0.14714809017E+02  0.22242638618E+02  0.00000000000E+00 0.  1.
<mgrwt>
<rscale>  2 0.19233764E+03</rscale>
<asrwt>0</asrwt>
<pdfrwt beam="1">  1       21 0.31647103E-01 0.19252893E+03</pdfrwt>
<pdfrwt beam="2">  1       21 0.33108080E-01 0.19252893E+03</pdfrwt>
<totfact> 0.84324310E+04</totfact>
</mgrwt>
</event>
<event>
12    1  0.1013215E-001  0.2269361E+03  0.7546771E-02  0.1129170E+00
         21   -1    0    0  503  502  0.00000000000E+00  0.00000000000E+00  0.58695077793E+02  0.58695077793E+02  0.00000000000E+00 0. -1.
         21   -1    0    0  501  503 -0.00000000000E+00 -0.00000000000E+00 -0.90165183230E+03  0.90165183230E+03  0.00000000000E+00 0. -1.
          6    2    1    2  501    0 -0.54162407876E+02  0.13348371262E+03 -0.33300718874E+03  0.40298110356E+03  0.17535254237E+03 0.  0.
         24    2    3    3    0    0 -0.89656010518E+02  0.68070430236E+02 -0.27743840931E+03  0.30998286386E+03  0.80284003573E+02 0.  0.
         -6    2    1    2    0  502  0.54162407876E+02 -0.13348371262E+03 -0.50994956577E+03  0.55736580653E+03  0.17279066729E+03 0.  0.
        -24    2    5    5    0    0  0.34664199628E+02 -0.57618576658E+02 -0.11982410052E+03  0.15942653024E+03  0.80854785681E+02 0.  0.
          5    1    3    3  501    0  0.35493602643E+02  0.65413282385E+02 -0.55568779426E+02  0.92998239703E+02  0.47000000000E+01 0. -1.
        -11    1    4    4    0    0 -0.18003664762E+02 -0.46479935379E+01 -0.12589422897E+03  0.12725994136E+03  0.00000000000E+00 0.  1.
         12    1    4    4    0    0 -0.71652345756E+02  0.72718423774E+02 -0.15154418035E+03  0.18272292250E+03  0.00000000000E+00 0. -1.
         -5    1    5    5    0  502  0.19498208248E+02 -0.75865135962E+02 -0.39012546524E+03  0.39793927629E+03  0.47000000000E+01 0.  1.
         13    1    6    6    0    0  0.26868128357E+02 -0.36668684502E+02 -0.12783802966E+03  0.13567995641E+03  0.00000000000E+00 0. -1.
        -14    1    6    6    0    0  0.77960712706E+01 -0.20949892156E+02  0.80139291369E+01  0.23746573833E+02  0.00000000000E+00 0.  1.
<mgrwt>
<rscale>  2 0.22644104E+03</rscale>
<asrwt>0</asrwt>
<pdfrwt beam="1">  1       21 0.90300125E-02 0.22693607E+03</pdfrwt>
<pdfrwt beam="2">  1       21 0.13871566E+00 0.22693607E+03</pdfrwt>
<totfact> 0.34899445E+04</totfact>
</mgrwt>
</event>
<event>
12    1  0.1013215E-001  0.1877103E+03  0.7546771E-02  0.1162857E+00
         21   -1    0    0  501  502  0.00000000000E+00  0.00000000000E+00  0.86206565450E+02  0.86206565450E+02  0.00000000000E+00 0. -1.
         21   -1    0    0  502  503 -0.00000000000E+00 -0.00000000000E+00 -0.61679776715E+03  0.61679776715E+03  0.00000000000E+00 0. -1.
         -6    2    1    2    0  503  0.17374460961E+02  0.43849141462E+02 -0.48397644107E+03  0.51910340831E+03  0.18168801255E+03 0.  0.
        -24    2    3    3    0    0  0.40465144616E+02  0.78177719952E+02 -0.44980867479E+03  0.46524101674E+03  0.79825910055E+02 0.  0.
          6    2    1    2  501    0 -0.17374460961E+02 -0.43849141462E+02 -0.46614760623E+02  0.18390092429E+03  0.17152840857E+03 0.  0.
         24    2    5    5    0    0 -0.38508417107E+02 -0.32968230377E+02 -0.92885741869E+02  0.13166940091E+03  0.78353479132E+02 0.  0.
          5    1    5    5  501    0  0.21133956145E+02 -0.10880911085E+02  0.46270981246E+02  0.52231523373E+02  0.47000000000E+01 0. -1.
        -13    1    6    6    0    0  0.23437840838E+02 -0.12236764659E+02 -0.16521268362E+02  0.31177285013E+02  0.00000000000E+00 0.  1.
         14    1    6    6    0    0 -0.61946257945E+02 -0.20731465717E+02 -0.76364473507E+02  0.10049211590E+03  0.00000000000E+00 0. -1.
         -5    1    3    3    0  503 -0.23090683654E+02 -0.34328578491E+02 -0.34167766287E+02  0.53862391572E+02  0.47000000000E+01 0.  1.
         13    1    4    4    0    0  0.28542981626E+02  0.53440728328E+00 -0.23103329464E+03  0.23279040062E+03  0.00000000000E+00 0. -1.
        -14    1    4    4    0    0  0.11922162989E+02  0.77643312669E+02 -0.21877538015E+03  0.23245061611E+03  0.00000000000E+00 0.  1.
<mgrwt>
<rscale>  2 0.18520682E+03</rscale>
<asrwt>0</asrwt>
<pdfrwt beam="1">  1       21 0.13262548E-01 0.18771029E+03</pdfrwt>
<pdfrwt beam="2">  1       21 0.94891965E-01 0.18771029E+03</pdfrwt>
<totfact> 0.45655499E+04</totfact>
</mgrwt>
</event>
<event>
12    1  0.1013215E-001  0.1923458E+03  0.7546771E-02  0.1157207E+00
         21   -1    0    0  503  502  0.00000000000E+00  0.00000000000E+00  0.20948800724E+03  0.20948800724E+03  0.00000000000E+00 0. -1.
         21   -1    0    0  501  503 -0.00000000000E+00 -0.00000000000E+00 -0.20408867956E+03  0.20408867956E+03  0.00000000000E+00 0. -1.
          6    2    1    2  501    0  0.30648425401E+02 -0.62538225206E+02 -0.77814308887E+02  0.20400231910E+03  0.17524703689E+03 0.  0.
         24    2    3    3    0    0  0.63128331769E+02 -0.93613962153E+02 -0.36263104625E+02  0.14260819625E+03  0.79204322474E+02 0.  0.
         -6    2    1    2    0  502 -0.30648425401E+02  0.62538225206E+02  0.83213636564E+02  0.20957436770E+03  0.17929459193E+03 0.  0.
        -24    2    5    5    0    0  0.26660774557E+02 -0.20707721157E+02  0.55962277564E+02  0.10479384206E+03  0.81916824937E+02 0.  0.
          5    1    3    3  501    0 -0.32479906368E+02  0.31075736947E+02 -0.41551204261E+02  0.61394122846E+02  0.47000000000E+01 0. -1.
        -11    1    4    4    0    0  0.23596115933E+02 -0.60892602951E+02  0.18183643560E+02  0.67788868367E+02  0.00000000000E+00 0.  1.
         12    1    4    4    0    0  0.39532215836E+02 -0.32721359202E+02 -0.54446748186E+02  0.74819327884E+02  0.00000000000E+00 0. -1.
         -5    1    5    5    0  502 -0.57309199959E+02  0.83245946364E+02  0.27251359000E+02  0.10478052564E+03  0.47000000000E+01 0.  1.
         11    1    6    6    0    0 -0.22783271392E+02  0.38806521709E+01  0.41835772715E+02  0.47795070826E+02  0.00000000000E+00 0. -1.
        -12    1    6    6    0    0  0.49444045950E+02 -0.24588373328E+02  0.14126504849E+02  0.56998771233E+02  0.00000000000E+00 0.  1.
<mgrwt>
<rscale>  2 0.19139700E+03</rscale>
<asrwt>0</asrwt>
<pdfrwt beam="1">  1       21 0.32228924E-01 0.19234580E+03</pdfrwt>
<pdfrwt beam="2">  1       21 0.31398258E-01 0.19234580E+03</pdfrwt>
<totfact> 0.90304438E+04</totfact>
</mgrwt>
</event>
<event>
12    1  0.1013215E-001  0.2226371E+03  0.7546771E-02  0.1131960E+00
         21   -1    0    0  501  502  0.00000000000E+00  0.00000000000E+00  0.66402839313E+02  0.66402839313E+02  0.00000000000E+00 0. -1.
         21   -1    0    0  502  503 -0.00000000000E+00 -0.00000000000E+00 -0.19956739375E+04  0.19956739375E+04  0.00000000000E+00 0.  1.
         -6    2    1    2    0  503  0.11234352995E+03  0.82557432841E+02 -0.17806546725E+04  0.17945189779E+04  0.17358139536E+03 0.  0.
        -24    2    3    3    0    0  0.48987840254E+02  0.98361405264E+02 -0.14945664094E+04  0.15010359405E+04  0.85471445130E+02 0.  0.
          6    2    1    2  501    0 -0.11234352995E+03 -0.82557432841E+02 -0.14861642573E+03  0.26755779898E+03  0.17338839454E+03 0.  0.
         24    2    5    5    0    0  0.12445991302E+02 -0.32060432179E+02 -0.52123763799E+02  0.10186140344E+03  0.80474124703E+02 0.  0.
          5    1    5    5  501    0 -0.12478952125E+03 -0.50497000662E+02 -0.96492661928E+02  0.16569639554E+03  0.47000000000E+01 0. -1.
        -11    1    6    6    0    0  0.12623257998E+02 -0.56462269076E+02 -0.19361444878E+02  0.61009835432E+02  0.00000000000E+00 0.  1.
         12    1    6    6    0    0 -0.17726669570E+00  0.24401836897E+02 -0.32762318922E+02  0.40851568006E+02  0.00000000000E+00 0. -1.
         -5    1    3    3    0  503  0.63355689693E+02 -0.15803972422E+02 -0.28608826304E+03  0.29348303735E+03  0.47000000000E+01 0.  1.
         13    1    4    4    0    0 -0.81370117853E+01  0.76907032386E+01 -0.23080030971E+02  0.25652401578E+02  0.00000000000E+00 0. -1.
        -14    1    4    4    0    0  0.57124852040E+02  0.90670702025E+02 -0.14714863785E+04  0.14753835389E+04  0.00000000000E+00 0.  1.
<mgrwt>
<rscale>  2 0.22259953E+03</rscale>
<asrwt>0</asrwt>
<pdfrwt beam="1">  1       21 0.10215822E-01 0.22263715E+03</pdfrwt>
<pdfrwt beam="2">  1       21 0.30702675E+00 0.22263715E+03</pdfrwt>
<totfact> 0.23449622E+03</totfact>
</mgrwt>
</event>
<event>
12    1  0.1013215E-001  0.1767845E+03  0.7546771E-02  0.1171224E+00
         21   -1    0    0  501  502  0.00000000000E+00  0.00000000000E+00  0.46485660679E+02  0.46485660679E+02  0.00000000000E+00 0.  1.
         21   -1    0    0  502  503 -0.00000000000E+00 -0.00000000000E+00 -0.67577654012E+03  0.67577654012E+03  0.00000000000E+00 0.  1.
         -6    2    1    2    0  503  0.23990022263E+02 -0.21692558385E+02 -0.27723350532E+03  0.32880263860E+03  0.17380066289E+03 0.  0.
        -24    2    3    3    0    0 -0.46748024316E+02  0.21733126131E+00 -0.20374142261E+03  0.22436562065E+03  0.81510363944E+02 0.  0.
          6    2    1    2  501    0 -0.23990022263E+02  0.21692558385E+02 -0.35205737412E+03  0.39345956220E+03  0.17268452205E+03 0.  0.
         24    2    5    5    0    0  0.14832548231E+01 -0.30902403366E+02 -0.89777958941E+02  0.12470744691E+03  0.80837533507E+02 0.  0.
          5    1    5    5  501    0 -0.25473277086E+02  0.52594961751E+02 -0.26227941518E+03  0.26875211529E+03  0.47000000000E+01 0. -1.
        -11    1    6    6    0    0 -0.31167511549E+02 -0.25154420199E+02 -0.81079371291E+02  0.90432422729E+02  0.00000000000E+00 0.  1.
         12    1    6    6    0    0  0.32650766372E+02 -0.57479831676E+01 -0.86985876493E+01  0.34275024176E+02  0.00000000000E+00 0. -1.
         -5    1    3    3    0  503  0.70738046579E+02 -0.21909889646E+02 -0.73492082711E+02  0.10443701795E+03  0.47000000000E+01 0.  1.
         11    1    4    4    0    0 -0.53198210703E+02  0.31069766865E+02 -0.14836488572E+03  0.16064718905E+03  0.00000000000E+00 0. -1.
        -12    1    4    4    0    0  0.64501863866E+01 -0.30852435603E+02 -0.55376536889E+02  0.63718431595E+02  0.00000000000E+00 0.  1.
<mgrwt>
<rscale>  2 0.17650956E+03</rscale>
<asrwt>0</asrwt>
<pdfrwt beam="1">  1       21 0.71516410E-02 0.17678450E+03</pdfrwt>
<pdfrwt beam="2">  1       21 0.10396561E+00 0.17678450E+03</pdfrwt>
<totfact> 0.10976268E+05</totfact>
</mgrwt>
</event>
<event>
12    1  0.1013215E-001  0.2397979E+03  0.7546771E-02  0.1119962E+00
         21   -1    0    0  503  502  0.00000000000E+00  0.00000000000E+00  0.44063004007E+03  0.44063004007E+03  0.00000000000E+00 0.  1.
         21   -1    0    0  501  503 -0.00000000000E+00 -0.00000000000E+00 -0.13371163747E+03  0.13371163747E+03  0.00000000000E+00 0. -1.
          6    2    1    2  501    0 -0.92238764849E+02 -0.13768899961E+03  0.19865684883E+03  0.31123790078E+03  0.17302669430E+03 0.  0.
         24    2    3    3    0    0 -0.46769082817E+02 -0.15603030202E+03  0.11696237335E+03  0.21584412383E+03  0.79847897621E+02 0.  0.
         -6    2    1    2    0  502  0.92238764849E+02  0.13768899961E+03  0.10826155377E+03  0.26310377676E+03  0.17331123151E+03 0.  0.
        -24    2    5    5    0    0  0.16409811914E+01  0.12381473537E+03  0.76659481108E+02  0.16604073226E+03  0.79750029539E+02 0.  0.
          5    1    3    3  501    0 -0.45469682033E+02  0.18341302407E+02  0.81694475474E+02  0.95393776951E+02  0.47000000000E+01 0. -1.
        -11    1    4    4    0    0 -0.16726579641E+02 -0.50539353526E+01  0.40192815537E+02  0.43826740123E+02  0.00000000000E+00 0.  1.
         12    1    4    4    0    0 -0.30042503176E+02 -0.15097636667E+03  0.76769557817E+02  0.17201738371E+03  0.00000000000E+00 0. -1.
         -5    1    5    5    0  502  0.90597783658E+02  0.13874264249E+02  0.31602072660E+02  0.97063044505E+02  0.47000000000E+01 0.  1.
         11    1    6    6    0    0  0.29178984919E+02  0.11137535037E+03  0.49183408933E+02  0.12519939914E+03  0.00000000000E+00 0. -1.
        -12    1    6    6    0    0 -0.27538003727E+02  0.12439384993E+02  0.27476072175E+02  0.40841333113E+02  0.00000000000E+00 0.  1.
<mgrwt>
<rscale>  2 0.23974649E+03</rscale>
<asrwt>0</asrwt>
<pdfrwt beam="1">  1       21 0.67789236E-01 0.23979790E+03</pdfrwt>
<pdfrwt beam="2">  1       21 0.20571021E-01 0.23979790E+03</pdfrwt>
<totfact> 0.42574180E+04</totfact>
</mgrwt>
</event>
<event>
12    1  0.1013215E-001  0.1888798E+03  0.7546771E-02  0.1159632E+00
         21   -1    0    0  501  502  0.00000000000E+00  0.00000000000E+00  0.15216538947E+03  0.15216538947E+03  0.00000000000E+00 0.  1.
         21   -1    0    0  502  503 -0.00000000000E+00 -0.00000000000E+00 -0.27961832072E+03  0.27961832072E+03  0.00000000000E+00 0. -1.
         -6    2    1    2    0  503 -0.56289005142E+02 -0.48504187318E+02 -0.15140549525E+03  0.24207272352E+03  0.17365042814E+03 0.  0.
        -24    2    3    3    0    0  0.21072998039E+02  0.25746061428E+01 -0.25388143061E+02  0.85559510881E+02  0.78899760779E+02 0.  0.
          6    2    1    2  501    0  0.56289005142E+02  0.48504187318E+02  0.23952563994E+02  0.18971098667E+03  0.17290293478E+03 0.  0.
         24    2    5    5    0    0  0.26321558272E+02 -0.40460756548E+02  0.19421681674E+02  0.95607702971E+02  0.80210559767E+02 0.  0.
          5    1    5    5  501    0  0.29967446870E+02  0.88964943865E+02  0.45308823200E+01  0.94103283702E+02  0.47000000000E+01 0. -1.
        -11    1    6    6    0    0  0.30849198193E+02 -0.33429736879E+02  0.47822297436E+02  0.66001458082E+02  0.00000000000E+00 0.  1.
         12    1    6    6    0    0 -0.45276399209E+01 -0.70310196684E+01 -0.28400615761E+02  0.29606244889E+02  0.00000000000E+00 0. -1.
         -5    1    3    3    0  503 -0.77362003180E+02 -0.51078793460E+02 -0.12601735219E+03  0.15651321264E+03  0.47000000000E+01 0.  1.
         13    1    4    4    0    0 -0.61369327434E+01  0.29659383734E+02 -0.34695067599E+02  0.46055278771E+02  0.00000000000E+00 0. -1.
        -14    1    4    4    0    0  0.27209930782E+02 -0.27084777591E+02  0.93069245376E+01  0.39504232111E+02  0.00000000000E+00 0.  1.
<mgrwt>
<rscale>  2 0.18870782E+03</rscale>
<asrwt>0</asrwt>
<pdfrwt beam="1">  1       21 0.23410060E-01 0.18887980E+03</pdfrwt>
<pdfrwt beam="2">  1       21 0.43018203E-01 0.18887980E+03</pdfrwt>
<totfact> 0.89323042E+04</totfact>
</mgrwt>
</event>
<event>
12    1  0.1013215E-001  0.2002828E+03  0.7546771E-02  0.1150100E+00
         21   -1    0    0  501  502  0.00000000000E+00  0.00000000000E+00  0.35968272497E+03  0.35968272497E+03  0.00000000000E+00 0.  1.
         21   -1    0    0  502  503 -0.00000000000E+00 -0.00000000000E+00 -0.10995744032E+03  0.10995744032E+03  0.00000000000E+00 0.  1.
         -6    2    1    2    0  503  0.37202197237E+02 -0.89723561303E+02  0.12565593656E+03  0.23643735724E+03  0.17515389968E+03 0.  0.
        -24    2    3    3    0    0 -0.42969611402E+02 -0.75727188838E+02  0.85892773748E+02  0.14573666012E+03  0.79250305274E+02 0.  0.
          6    2    1    2  501    0 -0.37202197237E+02  0.89723561303E+02  0.12406934809E+03  0.23320280805E+03  0.17191865988E+03 0.  0.
         24    2    5    5    0    0 -0.70927089911E+01  0.12656038812E+03  0.88894500834E+02  0.17384884464E+03  0.79078126826E+02 0.  0.
          5    1    5    5  501    0 -0.30109488246E+02 -0.36836826821E+02  0.35174847254E+02  0.59353963406E+02  0.47000000000E+01 0. -1.
        -11    1    6    6    0    0 -0.28594145912E+02  0.33840796049E+02  0.10334298915E+01  0.44315828267E+02  0.00000000000E+00 0.  1.
         12    1    6    6    0    0  0.21501436921E+02  0.92719592075E+02  0.87861070943E+02  0.12953301638E+03  0.00000000000E+00 0. -1.
         -5    1    3    3    0  503  0.80171808639E+02 -0.13996372465E+02  0.39763162817E+02  0.90700697130E+02  0.47000000000E+01 0.  1.
         13    1    4    4    0    0 -0.63085297669E+01 -0.51199497829E+02  0.28008092488E+01  0.51662662129E+02  0.00000000000E+00 0. -1.
        -14    1    4    4    0    0 -0.36661081635E+02 -0.24527691009E+02  0.83091964499E+02  0.94073997987E+02  0.00000000000E+00 0.  1.
<mgrwt>
<rscale>  2 0.19957329E+03</rscale>
<asrwt>0</asrwt>
<pdfrwt beam="1">  1       21 0.55335803E-01 0.20028282E+03</pdfrwt>
<pdfrwt beam="2">  1       21 0.16916530E-01 0.20028282E+03</pdfrwt>
<totfact> 0.96633570E+04</totfact>
</mgrwt>
</event>
<event>
12    1  0.1013215E-001  0.1856959E+03  0.7546771E-02  0.1162448E+00
         21   -1    0    0  503  502  0.00000000000E+00  0.00000000000E+00  0.34826210486E+03  0.34826210486E+03  0.00000000000E+00 0. -1.
         21   -1    0    0  501  503 -0.00000000000E+00 -0.00000000000E+00 -0.22764955589E+04  0.22764955589E+04  0.00000000000E+00 0. -1.
          6    2    1    2  501    0  0.58762120867E+02 -0.23445249138E+02 -0.22476467051E+04  0.22552880431E+04  0.17437253219E+03 0.  0.
         24    2    3    3    0    0  0.27782835662E+01 -0.11869817711E+02 -0.19735674855E+04  0.19752707414E+04  0.81100373488E+02 0.  0.
         -6    2    1    2    0  502 -0.58762120867E+02  0.23445249138E+02  0.31941325103E+03  0.36946962065E+03  0.17458610795E+03 0.  0.
        -24    2    5    5    0    0 -0.34402424234E+01 -0.38238861768E+02  0.10860566489E+03  0.14291417898E+03  0.84588570686E+02 0.  0.
          5    1    3    3  501    0  0.55983837301E+02 -0.11575431427E+02 -0.27407921964E+03  0.28001730177E+03  0.47000000000E+01 0. -1.
        -13    1    4    4    0    0 -0.19206093665E+01  0.29022501059E+02 -0.35821190502E+03  0.35939082237E+03  0.00000000000E+00 0.  1.
         14    1    4    4    0    0  0.46988929327E+01 -0.40892318770E+02 -0.16153555804E+04  0.16158799190E+04  0.00000000000E+00 0. -1.
         -5    1    5    5    0  502 -0.55321878443E+02  0.61684110906E+02  0.21080758615E+03  0.22655544167E+03  0.47000000000E+01 0.  1.
         13    1    6    6    0    0 -0.43239921571E+02 -0.15645852089E+02  0.65614108253E+02  0.80122997366E+02  0.00000000000E+00 0. -1.
        -14    1    6    6    0    0  0.39799679148E+02 -0.22593009679E+02  0.42991556634E+02  0.62791181614E+02  0.00000000000E+00 0.  1.
<mgrwt>
<rscale>  2 0.18564571E+03</rscale>
<asrwt>0</asrwt>
<pdfrwt beam="1">  1       21 0.53578786E-01 0.18569592E+03</pdfrwt>
<pdfrwt beam="2">  1       21 0.35023008E+00 0.18569592E+03</pdfrwt>
<totfact> 0.58221340E+01</totfact>
</mgrwt>
</event>
<event>
12    1  0.1013215E-001  0.2082627E+03  0.7546771E-02  0.1143247E+00
         21   -1    0    0  503  502  0.00000000000E+00  0.00000000000E+00  0.13593081422E+04  0.13593081422E+04  0.00000000000E+00 0. -1.
         21   -1    0    0  501  503 -0.00000000000E+00 -0.00000000000E+00 -0.35465904370E+02  0.35465904370E+02  0.00000000000E+00 0. -1.
          6    2    1    2  501    0 -0.11382022042E+03 -0.17440418171E+02  0.43200525858E+03  0.47894297198E+03  0.17175161194E+03 0.  0.
         24    2    3    3    0    0  0.84662596789E+01 -0.49774202025E+01  0.15991639640E+03  0.18033997726E+03  0.82781648298E+02 0.  0.
         -6    2    1    2    0  502  0.11382022042E+03  0.17440418171E+02  0.89183697926E+03  0.91583107460E+03  0.17353428731E+03 0.  0.
        -24    2    5    5    0    0  0.14984007738E+03  0.18149463291E+02  0.69920356492E+03  0.71980134430E+03  0.80292579091E+02 0.  0.
          5    1    3    3  501    0 -0.12228648010E+03 -0.12462997968E+02  0.27208886218E+03  0.29860299472E+03  0.47000000000E+01 0. -1.
        -13    1    4    4    0    0  0.96238411696E+00 -0.31235095766E+02  0.18509470029E+02  0.36320212988E+02  0.00000000000E+00 0.  1.
         14    1    4    4    0    0  0.75038755619E+01  0.26257675564E+02  0.14140692638E+03  0.14401976427E+03  0.00000000000E+00 0. -1.
         -5    1    5    5    0  502 -0.36019856965E+02 -0.70904512033E+00  0.19263341434E+03  0.19602973030E+03  0.47000000000E+01 0.  1.
         11    1    6    6    0    0  0.80157038837E+02 -0.28190811988E+02  0.41113480869E+03  0.41982341964E+03  0.00000000000E+00 0. -1.
        -12    1    6    6    0    0  0.69683038547E+02  0.46340275280E+02  0.28806875622E+03  0.29997792466E+03  0.00000000000E+00 0.  1.
<mgrwt>
<rscale>  2 0.20789096E+03</rscale>
<asrwt>0</asrwt>
<pdfrwt beam="1">  1       21 0.20912429E+00 0.20826272E+03</pdfrwt>
<pdfrwt beam="2">  1       21 0.54562940E-02 0.20826272E+03</pdfrwt>
<totfact> 0.26940807E+04</totfact>
</mgrwt>
</event>
<event>
12    1  0.1013215E-001  0.2190985E+03  0.7546771E-02  0.1134986E+00
         21   -1    0    0  503  502  0.00000000000E+00  0.00000000000E+00  0.24082052384E+02  0.24082052384E+02  0.00000000000E+00 0.  1.
         21   -1    0    0  501  503 -0.00000000000E+00 -0.00000000000E+00 -0.24186360291E+04  0.24186360291E+04  0.00000000000E+00 0. -1.
          6    2    1    2  501    0  0.89594384983E+02  0.99384240808E+02 -0.17268094792E+04  0.17406536490E+04  0.17349284411E+03 0.  0.
         24    2    3    3    0    0  0.25953534321E+02  0.11991749102E+03 -0.12823057223E+04  0.12911233917E+04  0.87394831979E+02 0.  0.
         -6    2    1    2    0  502 -0.89594384983E+02 -0.99384240808E+02 -0.66774449746E+03  0.70206443249E+03  0.17060882844E+03 0.  0.
        -24    2    5    5    0    0  0.11155379701E+02 -0.28511106428E+02 -0.36983872415E+03  0.37966180218E+03  0.80156574700E+02 0.  0.
          5    1    3    3  501    0  0.63640850662E+02 -0.20533250214E+02 -0.44450375693E+03  0.44953025723E+03  0.47000000000E+01 0. -1.
        -13    1    4    4    0    0  0.35544399758E+02  0.57565343944E+01 -0.32335277727E+03  0.32535144169E+03  0.00000000000E+00 0.  1.
         14    1    4    4    0    0 -0.95908654372E+01  0.11416095663E+03 -0.95895294503E+03  0.96577195005E+03  0.00000000000E+00 0. -1.
         -5    1    5    5    0  502 -0.10074976468E+03 -0.70873134380E+02 -0.29790577331E+03  0.32240263031E+03  0.47000000000E+01 0.  1.
         13    1    6    6    0    0 -0.13917500348E+02 -0.45681329541E+02 -0.14221678380E+03  0.15002031289E+03  0.00000000000E+00 0. -1.
        -14    1    6    6    0    0  0.25072880049E+02  0.17170223113E+02 -0.22762194035E+03  0.22964148929E+03  0.00000000000E+00 0.  1.
<mgrwt>
<rscale>  2 0.21852712E+03</rscale>
<asrwt>0</asrwt>
<pdfrwt beam="1">  1       21 0.37049282E-02 0.21909849E+03</pdfrwt>
<pdfrwt beam="2">  1       21 0.37209815E+00 0.21909849E+03</pdfrwt>
<totfact> 0.55675179E+03</totfact>
</mgrwt>
</event>
<event>
12    1  0.1013215E-001  0.2043953E+03  0.7546771E-02  0.1146102E+00
         21   -1    0    0  503  502  0.00000000000E+00  0.00000000000E+00  0.13261450076E+04  0.13261450076E+04  0.00000000000E+00 0. -1.
         21   -1    0    0  501  503 -0.00000000000E+00 -0.00000000000E+00 -0.38535820197E+02  0.38535820197E+02  0.00000000000E+00 0. -1.
          6    2    1    2  501    0 -0.56176855422E+02  0.92015857378E+02  0.93573217408E+03  0.95779545256E+03  0.17365100124E+03 0.  0.
         24    2    3    3    0    0  0.37094789195E+01  0.77892498591E+02  0.81098797180E+03  0.81862272424E+03  0.79753825401E+02 0.  0.
         -6    2    1    2    0  502  0.56176855422E+02 -0.92015857378E+02  0.35187701334E+03  0.40688537526E+03  0.17353823495E+03 0.  0.
        -24    2    5    5    0    0  0.79117207215E+02 -0.10217530830E+03  0.35061988798E+03  0.38132868245E+03  0.76012710167E+02 0.  0.
          5    1    3    3  501    0 -0.59886334341E+02  0.14123358787E+02  0.12474420228E+03  0.13917272831E+03  0.47000000000E+01 0. -1.
        -11    1    4    4    0    0 -0.11256037330E+02 -0.14061729212E+02  0.15767672501E+03  0.15870217458E+03  0.00000000000E+00 0.  1.
         12    1    4    4    0    0  0.14965516249E+02  0.91954227803E+02  0.65331124679E+03  0.65992054967E+03  0.00000000000E+00 0. -1.
         -5    1    5    5    0  502 -0.22940351793E+02  0.10159450926E+02  0.12571253662E+01  0.25556692816E+02  0.47000000000E+01 0.  1.
         13    1    6    6    0    0  0.52004382868E+02 -0.10362157266E+02  0.14849806603E+03  0.15768165954E+03  0.00000000000E+00 0. -1.
        -14    1    6    6    0    0  0.27112824347E+02 -0.91813151038E+02  0.20212182195E+03  0.22364702290E+03  0.00000000000E+00 0.  1.
<mgrwt>
<rscale>  2 0.20437132E+03</rscale>
<asrwt>0</asrwt>
<pdfrwt beam="1">  1       21 0.20402227E+00 0.20439527E+03</pdfrwt>
<pdfrwt beam="2">  1       21 0.59285887E-02 0.20439527E+03</pdfrwt>
<totfact> 0.25252045E+04</totfact>
</mgrwt>
</event>
<event>
12    1  0.1013215E-001  0.1872029E+03  0.7546771E-02  0.1161063E+00
         21   -1    0    0  501  502  0.00000000000E+00  0.00000000000E+00  0.76364751913E+02  0.76364751913E+02  0.00000000000E+00 0.  1.
         21   -1    0    0  502  503 -0.00000000000E+00 -0.00000000000E+00 -0.45985498841E+03  0.45985498841E+03  0.00000000000E+00 0.  1.
         -6    2    1    2    0  503 -0.20708994958E+02 -0.64796350469E+02 -0.20706203651E+03  0.27898087832E+03  0.17414997559E+03 0.  0.
        -24    2    3    3    0    0  0.14009562008E+02 -0.83848041906E+02 -0.81435541135E+02  0.14717628248E+03  0.88330905155E+02 0.  0.
          6    2    1    2  501    0  0.20708994958E+02  0.64796350469E+02 -0.17642819998E+03  0.25723886200E+03  0.17440611476E+03 0.  0.
         24    2    5    5    0    0 -0.19600098158E+02  0.20458661787E+00 -0.22658644422E+02  0.85587805600E+02  0.80172642447E+02 0.  0.
          5    1    5    5  501    0  0.40309093116E+02  0.64591763851E+02 -0.15376955556E+03  0.17165105640E+03  0.47000000000E+01 0. -1.
        -11    1    6    6    0    0  0.39802903030E+01  0.18322204883E+02  0.23879186803E+02  0.30360524781E+02  0.00000000000E+00 0.  1.
         12    1    6    6    0    0 -0.23580388461E+02 -0.18117618265E+02 -0.46537831224E+02  0.55227280819E+02  0.00000000000E+00 0. -1.
         -5    1    3    3    0  503 -0.34718556966E+02  0.19051691438E+02 -0.12562649538E+03  0.13180459584E+03  0.47000000000E+01 0.  1.
         13    1    4    4    0    0  0.48340081274E+02 -0.61444288518E+02 -0.36279667020E+02  0.86188040285E+02  0.00000000000E+00 0. -1.
        -14    1    4    4    0    0 -0.34330519266E+02 -0.22403753388E+02 -0.45155874114E+02  0.60988242194E+02  0.00000000000E+00 0.  1.
<mgrwt>
<rscale>  2 0.18714321E+03</rscale>
<asrwt>0</asrwt>
<pdfrwt beam="1">  1       21 0.11748423E-01 0.18720289E+03</pdfrwt>
<pdfrwt beam="2">  1       21 0.70746922E-01 0.18720289E+03</pdfrwt>
<totfact> 0.11054092E+05</totfact>
</mgrwt>
</event>
<event>
12    1  0.1013215E-001  0.3508646E+03  0.7546771E-02  0.1062261E+00
         21   -1    0    0  501  502  0.00000000000E+00  0.00000000000E+00  0.14959810241E+04  0.14959810241E+04  0.00000000000E+00 0.  1.
         21   -1    0    0  502  503 -0.00000000000E+00 -0.00000000000E+00 -0.88039591063E+02  0.88039591063E+02  0.00000000000E+00 0. -1.
         -6    2    1    2    0  503  0.20218063221E+03  0.22851899545E+03  0.90638589899E+03  0.97192663475E+03  0.17322830637E+03 0.  0.
        -24    2    3    3    0    0  0.11932355739E+03  0.11584284909E+03  0.68788133677E+03  0.71245112046E+03  0.82147358644E+02 0.  0.
          6    2    1    2  501    0 -0.20218063221E+03 -0.22851899545E+03  0.50155553407E+03  0.61209398044E+03  0.17321416746E+03 0.  0.
         24    2    5    5    0    0 -0.92423966287E+02 -0.19963737803E+03  0.29349439173E+03  0.37504503508E+03  0.78246713137E+02 0.  0.
          5    1    5    5  501    0 -0.10975666592E+03 -0.28881617426E+02  0.20806114235E+03  0.23704894535E+03  0.47000000000E+01 0. -1.
        -11    1    6    6    0    0 -0.11445297860E+02 -0.37342875115E+02  0.11133220434E+03  0.11798451122E+03  0.00000000000E+00 0.  1.
         12    1    6    6    0    0 -0.80978668426E+02 -0.16229450291E+03  0.18216218739E+03  0.25706052386E+03  0.00000000000E+00 0. -1.
         -5    1    3    3    0  503  0.82857074822E+02  0.11267614636E+03  0.21850456222E+03  0.25947551429E+03  0.47000000000E+01 0.  1.
         13    1    4    4    0    0  0.64199658994E+02  0.42443125817E+02  0.17153303117E+03  0.18800690394E+03  0.00000000000E+00 0. -1.
        -14    1    4    4    0    0  0.55123898393E+02  0.73399723275E+02  0.51634830560E+03  0.52444421652E+03  0.00000000000E+00 0.  1.
<mgrwt>
<rscale>  2 0.35086288E+03</rscale>
<asrwt>0</asrwt>
<pdfrwt beam="1">  1       21 0.23015091E+00 0.35086463E+03</pdfrwt>
<pdfrwt beam="2">  1       21 0.13544554E-01 0.35086463E+03</pdfrwt>
<totfact> 0.36577533E+03</totfact>
</mgrwt>
</event>
<event>
12    1  0.1013215E-001  0.1889228E+03  0.7546771E-02  0.1160351E+00
         21   -1    0    0  501  502  0.00000000000E+00  0.00000000000E+00  0.37536803933E+02  0.37536803933E+02  0.00000000000E+00 0.  1.
         21   -1    0    0  502  503 -0.00000000000E+00 -0.00000000000E+00 -0.93695256149E+03  0.93695256149E+03  0.00000000000E+00 0.  1.
         -6    2    1    2    0  503 -0.42807207397E+02  0.62696109801E+02 -0.40590129075E+03  0.44604982182E+03  0.16864556478E+03 0.  0.
        -24    2    3    3    0    0  0.16804269336E+02 -0.13485325781E+02 -0.23446059904E+03  0.24914593648E+03  0.81472005520E+02 0.  0.
          6    2    1    2  501    0  0.42807207397E+02 -0.62696109801E+02 -0.49351446680E+03  0.52843954361E+03  0.17299873731E+03 0.  0.
         24    2    5    5    0    0 -0.30164286715E+02 -0.21865018625E+02 -0.36219132691E+03  0.37268372820E+03  0.79515034723E+02 0.  0.
          5    1    5    5  501    0  0.72971494112E+02 -0.40831091176E+02 -0.13132313990E+03  0.15575581540E+03  0.47000000000E+01 0. -1.
        -11    1    6    6    0    0  0.21908627958E+02 -0.23513021553E+02 -0.19284174465E+03  0.19550137759E+03  0.00000000000E+00 0.  1.
         12    1    6    6    0    0 -0.52072914672E+02  0.16480029283E+01 -0.16934958226E+03  0.17718235061E+03  0.00000000000E+00 0. -1.
         -5    1    3    3    0  503 -0.59611476733E+02  0.76181435583E+02 -0.17144069172E+03  0.19690388534E+03  0.47000000000E+01 0.  1.
         13    1    4    4    0    0  0.49748183823E+02 -0.39688367555E+01 -0.14412338091E+03  0.15251944920E+03  0.00000000000E+00 0. -1.
        -14    1    4    4    0    0 -0.32943914487E+02 -0.95164890257E+01 -0.90337218122E+02  0.96626487275E+02  0.00000000000E+00 0.  1.
<mgrwt>
<rscale>  2 0.18792035E+03</rscale>
<asrwt>0</asrwt>
<pdfrwt beam="1">  1       21 0.57748934E-02 0.18892279E+03</pdfrwt>
<pdfrwt beam="2">  1       21 0.14414654E+00 0.18892279E+03</pdfrwt>
<totfact> 0.69963001E+04</totfact>
</mgrwt>
</event>
<event>
12    1  0.1013215E-001  0.1851965E+03  0.7546771E-02  0.1164014E+00
         21   -1    0    0  501  502  0.00000000000E+00  0.00000000000E+00  0.94950216447E+03  0.94950216447E+03  0.00000000000E+00 0. -1.
         21   -1    0    0  502  503 -0.00000000000E+00 -0.00000000000E+00 -0.67034948667E+02  0.67034948667E+02  0.00000000000E+00 0. -1.
         -6    2    1    2    0  503  0.46590204368E+02  0.10030381597E+02  0.87810982919E+02  0.20058596926E+03  0.17393305219E+03 0.  0.
        -24    2    3    3    0    0 -0.43136441993E+02 -0.82798465404E+00  0.50044727799E+02  0.10251887381E+03  0.78384989125E+02 0.  0.
          6    2    1    2  501    0 -0.46590204368E+02 -0.10030381597E+02  0.79465623289E+03  0.81595114388E+03  0.17895945080E+03 0.  0.
         24    2    5    5    0    0  0.41128458231E+02 -0.21929110326E+02  0.32704506548E+03  0.34001161263E+03  0.80479723642E+02 0.  0.
          5    1    5    5  501    0 -0.87718662599E+02  0.11898728730E+02  0.46761116741E+03  0.47593953124E+03  0.47000000000E+01 0. -1.
        -13    1    6    6    0    0 -0.20219908745E+02 -0.22722108489E+02  0.83830972934E+02  0.89178309845E+02  0.00000000000E+00 0.  1.
         14    1    6    6    0    0  0.61348366976E+02  0.79299816315E+00  0.24321409254E+03  0.25083330279E+03  0.00000000000E+00 0. -1.
         -5    1    3    3    0  503  0.89726646361E+02  0.10858366251E+02  0.37766255120E+02  0.98067095453E+02  0.47000000000E+01 0.  1.
         13    1    4    4    0    0 -0.10782977643E+02 -0.20406365599E+02 -0.14825053787E+02  0.27431270179E+02  0.00000000000E+00 0. -1.
        -14    1    4    4    0    0 -0.32353464350E+02  0.19578380945E+02  0.64869781586E+02  0.75087603630E+02  0.00000000000E+00 0.  1.
<mgrwt>
<rscale>  2 0.18397127E+03</rscale>
<asrwt>0</asrwt>
<pdfrwt beam="1">  1       21 0.14607725E+00 0.18519649E+03</pdfrwt>
<pdfrwt beam="2">  1       21 0.10313070E-01 0.18519649E+03</pdfrwt>
<totfact> 0.24738240E+04</totfact>
</mgrwt>
</event>
<event>
12    1  0.1013215E-001  0.1770107E+03  0.7546771E-02  0.1170885E+00
         21   -1    0    0  503  502  0.00000000000E+00  0.00000000000E+00  0.54078453293E+03  0.54078453293E+03  0.00000000000E+00 0.  1.
         21   -1    0    0  501  503 -0.00000000000E+00 -0.00000000000E+00 -0.91289509619E+02  0.91289509619E+02  0.00000000000E+00 0.  1.
          6    2    1    2  501    0 -0.31221540214E+02  0.14665936027E+02  0.33392203030E+02  0.18013281923E+03  0.17361716242E+03 0.  0.
         24    2    3    3    0    0  0.20909975776E+02 -0.22349011412E+02  0.67440440326E+02  0.10754374459E+03  0.77979090864E+02 0.  0.
         -6    2    1    2    0  502  0.31221540214E+02 -0.14665936027E+02  0.41610282028E+03  0.45194122332E+03  0.17297236206E+03 0.  0.
        -24    2    5    5    0    0 -0.36353892692E+02  0.28426947003E+02  0.27314041243E+03  0.28797849658E+03  0.78716153122E+02 0.  0.
          5    1    3    3  501    0 -0.52131515990E+02  0.37014947438E+02 -0.34048237297E+02  0.72589074634E+02  0.47000000000E+01 0. -1.
        -13    1    4    4    0    0 -0.28470922800E+02 -0.89547398859E+01  0.12185180376E+02  0.32237546934E+02  0.00000000000E+00 0.  1.
         14    1    4    4    0    0  0.49380898576E+02 -0.13394271526E+02  0.55255259951E+02  0.75306197661E+02  0.00000000000E+00 0. -1.
         -5    1    5    5    0  502  0.67575432906E+02 -0.43092883030E+02  0.14296240785E+03  0.16396272674E+03  0.47000000000E+01 0.  1.
         13    1    6    6    0    0  0.98156765391E+01  0.41462551309E+02  0.14589895930E+03  0.15199341102E+03  0.00000000000E+00 0. -1.
        -14    1    6    6    0    0 -0.46169569231E+02 -0.13035604306E+02  0.12724145313E+03  0.13598508557E+03  0.00000000000E+00 0.  1.
<mgrwt>
<rscale>  2 0.17685240E+03</rscale>
<asrwt>0</asrwt>
<pdfrwt beam="1">  1       21 0.83197619E-01 0.17701072E+03</pdfrwt>
<pdfrwt beam="2">  1       21 0.14044540E-01 0.17701072E+03</pdfrwt>
<totfact> 0.56043905E+04</totfact>
</mgrwt>
</event>
<event>
12    1  0.1013215E-001  0.1793512E+03  0.7546771E-02  0.1169075E+00
         21   -1    0    0  501  502  0.00000000000E+00  0.00000000000E+00  0.29972023442E+03  0.29972023442E+03  0.00000000000E+00 0. -1.
         21   -1    0    0  502  503 -0.00000000000E+00 -0.00000000000E+00 -0.10613398748E+03  0.10613398748E+03  0.00000000000E+00 0. -1.
         -6    2    1    2    0  503 -0.19325430335E+02  0.36599247874E+02  0.85434975683E+02  0.19866052064E+03  0.17451043003E+03 0.  0.
        -24    2    3    3    0    0 -0.14218038791E+02  0.22780202719E+02 -0.25612843189E+02  0.86541122085E+02  0.78180929980E+02 0.  0.
          6    2    1    2  501    0  0.19325430335E+02 -0.36599247874E+02  0.10815127125E+03  0.20719370125E+03  0.17181255822E+03 0.  0.
         24    2    5    5    0    0  0.18884672487E+02 -0.90501102994E+02  0.76870221389E+02  0.14469411459E+03  0.80500157528E+02 0.  0.
          5    1    5    5  501    0  0.44075784833E+00  0.53901855120E+02  0.31281049865E+02  0.62499586667E+02  0.47000000000E+01 0. -1.
        -11    1    6    6    0    0 -0.84141352212E+01 -0.10072304014E+02 -0.14761726566E+02  0.19752406205E+02  0.00000000000E+00 0.  1.
         12    1    6    6    0    0  0.27298807708E+02 -0.80428798980E+02  0.91631947955E+02  0.12494170838E+03  0.00000000000E+00 0. -1.
         -5    1    3    3    0  503 -0.51073915444E+01  0.13819045155E+02  0.11104781887E+03  0.11211939856E+03  0.47000000000E+01 0.  1.
         13    1    4    4    0    0  0.15379871228E+02 -0.49682416461E+00 -0.42554322254E+02  0.45251050990E+02  0.00000000000E+00 0. -1.
        -14    1    4    4    0    0 -0.29597910019E+02  0.23277026884E+02  0.16941479065E+02  0.41290071094E+02  0.00000000000E+00 0.  1.
<mgrwt>
<rscale>  2 0.17869162E+03</rscale>
<asrwt>0</asrwt>
<pdfrwt beam="1">  1       21 0.46110805E-01 0.17935124E+03</pdfrwt>
<pdfrwt beam="2">  1       21 0.16328306E-01 0.17935124E+03</pdfrwt>
<totfact> 0.15205537E+05</totfact>
</mgrwt>
</event>
<event>
12    1  0.1013215E-001  0.2073529E+03  0.7546771E-02  0.1144749E+00
         21   -1    0    0  501  502  0.00000000000E+00  0.00000000000E+00  0.18555994965E+04  0.18555994965E+04  0.00000000000E+00 0. -1.
         21   -1    0    0  502  503 -0.00000000000E+00 -0.00000000000E+00 -0.54008972426E+02  0.54008972426E+02  0.00000000000E+00 0. -1.
         -6    2    1    2    0  503 -0.11172033016E+03  0.17586008481E+01  0.17738052418E+03  0.27287191551E+03  0.17467314352E+03 0.  0.
        -24    2    3    3    0    0 -0.47961976930E+02  0.58577381240E+02  0.52521247212E+02  0.12152651433E+03  0.79237310993E+02 0.  0.
          6    2    1    2  501    0  0.11172033016E+03 -0.17586008481E+01  0.16242099999E+04  0.16367365534E+04  0.16841584456E+03 0.  0.
         24    2    5    5    0    0  0.82391497990E+02 -0.65182718396E+02  0.10363430895E+04  0.10447125730E+04  0.79876249694E+02 0.  0.
          5    1    5    5  501    0  0.29328832165E+02  0.63424117548E+02  0.58786691037E+03  0.59202398042E+03  0.47000000000E+01 0. -1.
        -13    1    6    6    0    0 -0.41551603710E+00 -0.38339257777E+02  0.18504494579E+03  0.18897540397E+03  0.00000000000E+00 0.  1.
         14    1    6    6    0    0  0.82807014027E+02 -0.26843460620E+02  0.85129814373E+03  0.85573716903E+03  0.00000000000E+00 0. -1.
         -5    1    3    3    0  503 -0.63758353225E+02 -0.56818780392E+02  0.12485927697E+03  0.15134540117E+03  0.47000000000E+01 0.  1.
         11    1    4    4    0    0 -0.61731427286E+02  0.53982894968E+02  0.63177136466E+02  0.10351943120E+03  0.00000000000E+00 0. -1.
        -12    1    4    4    0    0  0.13769450356E+02  0.45944862718E+01 -0.10655889254E+02  0.18007083134E+02  0.00000000000E+00 0.  1.
<mgrwt>
<rscale>  2 0.20602955E+03</rscale>
<asrwt>0</asrwt>
<pdfrwt beam="1">  1       21 0.28547680E+00 0.20735292E+03</pdfrwt>
<pdfrwt beam="2">  1       21 0.83090741E-02 0.20735292E+03</pdfrwt>
<totfact> 0.45738781E+03</totfact>
</mgrwt>
</event>
<event>
12    1  0.1013215E-001  0.1822398E+03  0.7546771E-02  0.1165825E+00
         21   -1    0    0  501  502  0.00000000000E+00  0.00000000000E+00  0.95322594099E+02  0.95322594099E+02  0.00000000000E+00 0.  1.
         21   -1    0    0  502  503 -0.00000000000E+00 -0.00000000000E+00 -0.41913925633E+03  0.41913925633E+03  0.00000000000E+00 0.  1.
         -6    2    1    2    0  503 -0.55155473323E+02 -0.68818284237E+01 -0.26886419780E+03  0.32480656248E+03  0.17355650485E+03 0.  0.
        -24    2    3    3    0    0  0.13900321149E+02 -0.52596917286E+02 -0.16609848994E+03  0.19274046990E+03  0.81243619684E+02 0.  0.
          6    2    1    2  501    0  0.55155473323E+02  0.68818284237E+01 -0.54952464437E+02  0.18965528795E+03  0.17280008420E+03 0.  0.
         24    2    5    5    0    0  0.15423720318E+02  0.18450568068E+02 -0.10058411378E+03  0.12787515073E+03  0.75210209535E+02 0.  0.
          5    1    5    5  501    0  0.39731753005E+02 -0.11568739644E+02  0.45631649341E+02  0.61780137223E+02  0.47000000000E+01 0. -1.
        -11    1    6    6    0    0  0.28237325640E+02 -0.37795878032E+01 -0.50221685552E+01  0.28928429274E+02  0.00000000000E+00 0.  1.
         12    1    6    6    0    0 -0.12813605322E+02  0.22230155871E+02 -0.95561945223E+02  0.98946721452E+02  0.00000000000E+00 0. -1.
         -5    1    3    3    0  503 -0.69055794472E+02  0.45715088862E+02 -0.10276570785E+03  0.13206609258E+03  0.47000000000E+01 0.  1.
         13    1    4    4    0    0  0.44265088561E+02 -0.27691722886E+02 -0.59624092980E+02  0.79254413412E+02  0.00000000000E+00 0. -1.
        -14    1    4    4    0    0 -0.30364767411E+02 -0.24905194400E+02 -0.10647439697E+03  0.11348605649E+03  0.00000000000E+00 0.  1.
<mgrwt>
<rscale>  2 0.18205948E+03</rscale>
<asrwt>0</asrwt>
<pdfrwt beam="1">  1       21 0.14665015E-01 0.18223980E+03</pdfrwt>
<pdfrwt beam="2">  1       21 0.64482962E-01 0.18223980E+03</pdfrwt>
<totfact> 0.91019332E+04</totfact>
</mgrwt>
</event>
<event>
12    1  0.1013215E-001  0.1800256E+03  0.7546771E-02  0.1168103E+00
         21   -1    0    0  501  502  0.00000000000E+00  0.00000000000E+00  0.25869433683E+03  0.25869433683E+03  0.00000000000E+00 0. -1.
         21   -1    0    0  502  503 -0.00000000000E+00 -0.00000000000E+00 -0.13004302276E+03  0.13004302276E+03  0.00000000000E+00 0. -1.
         -6    2    1    2    0  503  0.13080171670E+02  0.43187665445E+02  0.10521649713E+03  0.20851788935E+03  0.17427832215E+03 0.  0.
        -24    2    3    3    0    0 -0.56170860044E+02  0.16095702195E+02  0.83335267764E+02  0.13086122148E+03  0.82253603482E+02 0.  0.
          6    2    1    2  501    0 -0.13080171670E+02 -0.43187665445E+02  0.23434816942E+02  0.18021947024E+03  0.17289766185E+03 0.  0.
         24    2    5    5    0    0 -0.66541330804E+02 -0.18335468822E+02 -0.17336062128E+02  0.10838576094E+03  0.81749593280E+02 0.  0.
          5    1    5    5  501    0  0.53461159134E+02 -0.24852196623E+02  0.40770879070E+02  0.71833709308E+02  0.47000000000E+01 0. -1.
        -13    1    6    6    0    0 -0.68724274876E+01  0.17032699417E+02 -0.32549120442E+02  0.37373631755E+02  0.00000000000E+00 0.  1.
         14    1    6    6    0    0 -0.59668903316E+02 -0.35368168240E+02  0.15213058314E+02  0.71012129181E+02  0.00000000000E+00 0. -1.
         -5    1    3    3    0  503  0.69251031714E+02  0.27091963250E+02  0.21881229363E+02  0.77656667870E+02  0.47000000000E+01 0.  1.
         11    1    4    4    0    0 -0.70633120408E+01  0.39094983194E+02  0.12490460689E+02  0.41645164139E+02  0.00000000000E+00 0. -1.
        -12    1    4    4    0    0 -0.49107548003E+02 -0.22999280999E+02  0.70844807075E+02  0.89216057337E+02  0.00000000000E+00 0.  1.
<mgrwt>
<rscale>  2 0.17969055E+03</rscale>
<asrwt>0</asrwt>
<pdfrwt beam="1">  1       21 0.39799129E-01 0.18002555E+03</pdfrwt>
<pdfrwt beam="2">  1       21 0.20006619E-01 0.18002555E+03</pdfrwt>
<totfact> 0.14096258E+05</totfact>
</mgrwt>
</event>
<event>
12    1  0.1013215E-001  0.2618766E+03  0.7546771E-02  0.1106145E+00
         21   -1    0    0  503  502  0.00000000000E+00  0.00000000000E+00  0.39030968473E+03  0.39030968473E+03  0.00000000000E+00 0. -1.
         21   -1    0    0  501  503 -0.00000000000E+00 -0.00000000000E+00 -0.33966808478E+03  0.33966808478E+03  0.00000000000E+00 0. -1.
          6    2    1    2  501    0  0.64241202531E+02  0.18487024128E+03 -0.22867542776E+03  0.34766620508E+03  0.17399827780E+03 0.  0.
         24    2    3    3    0    0  0.15334635617E+02  0.12371094619E+03 -0.22429086570E+03  0.26909377959E+03  0.81027899633E+02 0.  0.
         -6    2    1    2    0  502 -0.64241202531E+02 -0.18487024128E+03  0.27931702771E+03  0.38231156443E+03  0.17274313912E+03 0.  0.
        -24    2    5    5    0    0 -0.28394252520E+00 -0.96799454464E+02  0.67539483586E+02  0.14415444655E+03  0.82756918808E+02 0.  0.
          5    1    3    3  501    0  0.48906566914E+02  0.61159295092E+02 -0.43845620648E+01  0.78572425494E+02  0.47000000000E+01 0. -1.
        -13    1    4    4    0    0 -0.33294401156E+02  0.56511697845E+02 -0.93297587991E+02  0.11404617077E+03  0.00000000000E+00 0.  1.
         14    1    4    4    0    0  0.48629036773E+02  0.67199248346E+02 -0.13099327771E+03  0.15504760882E+03  0.00000000000E+00 0. -1.
         -5    1    5    5    0  502 -0.63957260006E+02 -0.88070786820E+02  0.21177754413E+03  0.23815711788E+03  0.47000000000E+01 0.  1.
         11    1    6    6    0    0 -0.38013408226E+02 -0.56599699571E+02  0.55038552923E+02  0.87622985023E+02  0.00000000000E+00 0. -1.
        -12    1    6    6    0    0  0.37729465700E+02 -0.40199754893E+02  0.12500930663E+02  0.56531461532E+02  0.00000000000E+00 0.  1.
<mgrwt>
<rscale>  2 0.26166826E+03</rscale>
<asrwt>0</asrwt>
<pdfrwt beam="1">  1       21 0.60047644E-01 0.26187657E+03</pdfrwt>
<pdfrwt beam="2">  1       21 0.52256629E-01 0.26187657E+03</pdfrwt>
<totfact> 0.86076667E+03</totfact>
</mgrwt>
</event>
<event>
12    1  0.1013215E-001  0.1866263E+03  0.7546771E-02  0.1161864E+00
         21   -1    0    0  501  502  0.00000000000E+00  0.00000000000E+00  0.10291993406E+04  0.10291993406E+04  0.00000000000E+00 0.  1.
         21   -1    0    0  502  503 -0.00000000000E+00 -0.00000000000E+00 -0.33602254683E+02  0.33602254683E+02  0.00000000000E+00 0.  1.
         -6    2    1    2    0  503  0.23809461455E+02  0.56264703601E+02  0.48889027895E+03  0.52330019517E+03  0.17634279710E+03 0.  0.
        -24    2    3    3    0    0 -0.43946962456E+02 -0.15975013715E+01  0.17843172882E+03  0.20027454743E+03  0.79612341893E+02 0.  0.
          6    2    1    2  501    0 -0.23809461455E+02 -0.56264703601E+02  0.50670680697E+03  0.53950140011E+03  0.17486384752E+03 0.  0.
         24    2    5    5    0    0  0.31080392087E+02  0.10196161031E+02  0.15574437607E+03  0.17807829564E+03  0.79910050848E+02 0.  0.
          5    1    5    5  501    0 -0.54889853542E+02 -0.66460864632E+02  0.35096243089E+03  0.36142310447E+03  0.47000000000E+01 0. -1.
        -13    1    6    6    0    0 -0.27167105210E+02  0.31478491766E+00  0.45204832296E+02  0.52741137245E+02  0.00000000000E+00 0.  1.
         14    1    6    6    0    0  0.58247497297E+02  0.98813761132E+01  0.11053954378E+03  0.12533715839E+03  0.00000000000E+00 0. -1.
         -5    1    3    3    0  503  0.67756423911E+02  0.57862204972E+02  0.31045855013E+03  0.32302564774E+03  0.47000000000E+01 0.  1.
         11    1    4    4    0    0 -0.44101848368E+02 -0.80893493060E+01  0.18540282204E+03  0.19074752167E+03  0.00000000000E+00 0. -1.
        -12    1    4    4    0    0  0.15488591161E+00  0.64918479345E+01 -0.69710932231E+01  0.95270257675E+01  0.00000000000E+00 0.  1.
<mgrwt>
<rscale>  2 0.18627615E+03</rscale>
<asrwt>0</asrwt>
<pdfrwt beam="1">  1       21 0.15833834E+00 0.18662634E+03</pdfrwt>
<pdfrwt beam="2">  1       21 0.51695784E-02 0.18662634E+03</pdfrwt>
<totfact> 0.66015692E+04</totfact>
</mgrwt>
</event>
<event>
12    1  0.1013215E-001  0.2216605E+03  0.7546771E-02  0.1133320E+00
         21   -1    0    0  501  502  0.00000000000E+00  0.00000000000E+00  0.10006493448E+04  0.10006493448E+04  0.00000000000E+00 0.  1.
         21   -1    0    0  502  503 -0.00000000000E+00 -0.00000000000E+00 -0.55839807273E+02  0.55839807273E+02  0.00000000000E+00 0.  1.
         -6    2    1    2    0  503 -0.91385163107E+02 -0.98517111704E+02  0.28175783674E+03  0.35849802795E+03  0.17628524652E+03 0.  0.
        -24    2    3    3    0    0  0.23086137505E+02 -0.43332643502E+02  0.12570883436E+03  0.15719630083E+03  0.80605695960E+02 0.  0.
          6    2    1    2  501    0  0.91385163107E+02  0.98517111704E+02  0.66305170083E+03  0.69799112418E+03  0.17174743700E+03 0.  0.
         24    2    5    5    0    0  0.69861730371E+02  0.12477251806E+03  0.62811657544E+03  0.64905077778E+03  0.79294622459E+02 0.  0.
          5    1    5    5  501    0  0.21523432736E+02 -0.26255406358E+02  0.34935125389E+02  0.48940346400E+02  0.47000000000E+01 0. -1.
        -13    1    6    6    0    0  0.47646510324E+02  0.84292362203E+02  0.54876761605E+03  0.55724437072E+03  0.00000000000E+00 0.  1.
         14    1    6    6    0    0  0.22215220048E+02  0.40480155859E+02  0.79348959396E+02  0.91806407060E+02  0.00000000000E+00 0. -1.
         -5    1    3    3    0  503 -0.11447130061E+03 -0.55184468202E+02  0.15604900239E+03  0.20130172712E+03  0.47000000000E+01 0.  1.
         11    1    4    4    0    0  0.32796416814E+02  0.13427353405E+02  0.61236241694E+02  0.70751509328E+02  0.00000000000E+00 0. -1.
        -12    1    4    4    0    0 -0.97102793090E+01 -0.56759996907E+02  0.64472592662E+02  0.86444791501E+02  0.00000000000E+00 0.  1.
<mgrwt>
<rscale>  2 0.22075706E+03</rscale>
<asrwt>0</asrwt>
<pdfrwt beam="1">  1       21 0.15394604E+00 0.22166046E+03</pdfrwt>
<pdfrwt beam="2">  1       21 0.85907403E-02 0.22166046E+03</pdfrwt>
<totfact> 0.29053670E+04</totfact>
</mgrwt>
</event>
<event>
12    1  0.1013215E-001  0.2433154E+03  0.7546771E-02  0.1117637E+00
         21   -1    0    0  501  502  0.00000000000E+00  0.00000000000E+00  0.16097573686E+04  0.16097573686E+04  0.00000000000E+00 0.  1.
         21   -1    0    0  502  503 -0.00000000000E+00 -0.00000000000E+00 -0.57827945259E+02  0.57827945259E+02  0.00000000000E+00 0.  1.
         -6    2    1    2    0  503  0.14445351387E+03  0.90156104913E+02  0.27274183091E+03  0.36550032048E+03  0.17380286828E+03 0.  0.
        -24    2    3    3    0    0  0.45814067559E+02 -0.13087401130E+02  0.65548740033E+02  0.11382587042E+03  0.79934239234E+02 0.  0.
          6    2    1    2  501    0 -0.14445351387E+03 -0.90156104913E+02  0.12791875924E+04  0.13020849934E+04  0.17352087029E+03 0.  0.
         24    2    5    5    0    0 -0.28145314810E+02  0.67354949119E+01  0.62309731924E+03  0.62874101304E+03  0.78914299042E+02 0.  0.
          5    1    5    5  501    0 -0.11630819906E+03 -0.96891599825E+02  0.65609027317E+03  0.67334398032E+03  0.47000000000E+01 0. -1.
        -11    1    6    6    0    0 -0.21198014700E+02  0.77502475223E+01  0.42673510546E+02  0.48274741493E+02  0.00000000000E+00 0.  1.
         12    1    6    6    0    0 -0.69473001100E+01 -0.10147526104E+01  0.58042380870E+03  0.58046627155E+03  0.00000000000E+00 0. -1.
         -5    1    3    3    0  503  0.98639446306E+02  0.10324350604E+03  0.20719309088E+03  0.25167445006E+03  0.47000000000E+01 0.  1.
         11    1    4    4    0    0  0.45214173619E+00  0.29956169526E+02  0.27233560688E+02  0.40487570346E+02  0.00000000000E+00 0. -1.
        -12    1    4    4    0    0  0.45361925823E+02 -0.43043570656E+02  0.38315179346E+02  0.73338300072E+02  0.00000000000E+00 0.  1.
<mgrwt>
<rscale>  2 0.24326503E+03</rscale>
<asrwt>0</asrwt>
<pdfrwt beam="1">  1       21 0.24765495E+00 0.24331539E+03</pdfrwt>
<pdfrwt beam="2">  1       21 0.88966082E-02 0.24331539E+03</pdfrwt>
<totfact> 0.65361710E+03</totfact>
</mgrwt>
</event>
<event>
12    1  0.1013215E-001  0.2376274E+03  0.7546771E-02  0.1121793E+00
         21   -1    0    0  503  502  0.00000000000E+00  0.00000000000E+00  0.36795227895E+03  0.36795227895E+03  0.00000000000E+00 0. -1.
         21   -1    0    0  501  503 -0.00000000000E+00 -0.00000000000E+00 -0.20012224992E+03  0.20012224992E+03  0.00000000000E+00 0. -1.
          6    2    1    2  501    0 -0.61174101853E+02  0.14875434994E+03 -0.55174637843E+02  0.24394880488E+03  0.17491898518E+03 0.  0.
         24    2    3    3    0    0 -0.96960065350E+02  0.13198541564E+03 -0.11007469771E+02  0.18449578917E+03  0.84238516234E+02 0.  0.
         -6    2    1    2    0  502  0.61174101853E+02 -0.14875434994E+03  0.22300466688E+03  0.32412572399E+03  0.17162830809E+03 0.  0.
        -24    2    5    5    0    0  0.90114329399E+02 -0.71156014398E+02  0.18668516181E+03  0.23357057561E+03  0.80747095308E+02 0.  0.
          5    1    3    3  501    0  0.35785963497E+02  0.16768934305E+02 -0.44167168072E+02  0.59453015707E+02  0.47000000000E+01 0. -1.
        -11    1    4    4    0    0  0.72462369674E+00  0.65000012564E+02 -0.11698058504E+02  0.66048249679E+02  0.00000000000E+00 0.  1.
         12    1    4    4    0    0 -0.97684689047E+02  0.66985403076E+02  0.69058873289E+00  0.11844753949E+03  0.00000000000E+00 0. -1.
         -5    1    5    5    0  502 -0.28940227546E+02 -0.77598335547E+02  0.36319505067E+02  0.90555148382E+02  0.47000000000E+01 0.  1.
         13    1    6    6    0    0  0.60752525256E+02 -0.51216117583E+02  0.53635544614E+02  0.95868303789E+02  0.00000000000E+00 0. -1.
        -14    1    6    6    0    0  0.29361804143E+02 -0.19939896815E+02  0.13304961720E+03  0.13770227182E+03  0.00000000000E+00 0.  1.
<mgrwt>
<rscale>  2 0.23702215E+03</rscale>
<asrwt>0</asrwt>
<pdfrwt beam="1">  1       21 0.56608043E-01 0.23762739E+03</pdfrwt>
<pdfrwt beam="2">  1       21 0.30788039E-01 0.23762739E+03</pdfrwt>
<totfact> 0.29039399E+04</totfact>
</mgrwt>
</event>
<event>
12    1  0.1013215E-001  0.2409613E+03  0.7546771E-02  0.1119407E+00
         21   -1    0    0  501  502  0.00000000000E+00  0.00000000000E+00  0.11641300184E+03  0.11641300184E+03  0.00000000000E+00 0.  1.
         21   -1    0    0  502  503 -0.00000000000E+00 -0.00000000000E+00 -0.52663803067E+03  0.52663803067E+03  0.00000000000E+00 0. -1.
         -6    2    1    2    0  503  0.15781203541E+03 -0.50473573981E+02 -0.12769521184E+03  0.27270573566E+03  0.17495751183E+03 0.  0.
        -24    2    3    3    0    0  0.15258768069E+03 -0.24577054777E+02 -0.38227979227E+02  0.17930124273E+03  0.82465297714E+02 0.  0.
          6    2    1    2  501    0 -0.15781203541E+03  0.50473573981E+02 -0.28252981699E+03  0.37034529685E+03  0.17285925263E+03 0.  0.
         24    2    5    5    0    0 -0.17915106795E+03  0.64665035845E+02 -0.21638629684E+03  0.29925516281E+03  0.80336486099E+02 0.  0.
          5    1    5    5  501    0  0.21339032546E+02 -0.14191461863E+02 -0.66143520147E+02  0.71090134036E+02  0.47000000000E+01 0. -1.
        -13    1    6    6    0    0 -0.12981876829E+03  0.12642610287E+02 -0.10820047178E+03  0.16947002770E+03  0.00000000000E+00 0.  1.
         14    1    6    6    0    0 -0.49332299659E+02  0.52022425558E+02 -0.10818582506E+03  0.12978513511E+03  0.00000000000E+00 0. -1.
         -5    1    3    3    0  503  0.52243547131E+01 -0.25896519205E+02 -0.89467232608E+02  0.93404492931E+02  0.47000000000E+01 0.  1.
         11    1    4    4    0    0  0.58312495668E+01 -0.55510082019E+00  0.19059179070E+02  0.19939004871E+02  0.00000000000E+00 0. -1.
        -12    1    4    4    0    0  0.14675643113E+03 -0.24021953956E+02 -0.57287158297E+02  0.15936223786E+03  0.00000000000E+00 0.  1.
<mgrwt>
<rscale>  2 0.24058062E+03</rscale>
<asrwt>0</asrwt>
<pdfrwt beam="1">  1       21 0.17909693E-01 0.24096131E+03</pdfrwt>
<pdfrwt beam="2">  1       21 0.81021234E-01 0.24096131E+03</pdfrwt>
<totfact> 0.36972982E+04</totfact>
</mgrwt>
</event>
<event>
11    1  0.1013215E-001  0.2816653E+03  0.7546771E-02  0.1095405E+00
         21   -1    0    0  503  502  0.00000000000E+00  0.00000000000E+00  0.42100202961E+03  0.42100202961E+03  0.00000000000E+00 0. -1.
         21   -1    0    0  501  503 -0.00000000000E+00 -0.00000000000E+00 -0.23747312638E+03  0.23747312638E+03  0.00000000000E+00 0.  1.
          6    2    1    2  501    0  0.10496041727E+03 -0.18946690617E+03  0.24649836997E+03  0.37429502122E+03  0.18005809836E+03 0.  0.
         -6    2    1    2    0  502 -0.10496041727E+03  0.18946690617E+03 -0.62969466736E+02  0.28418013477E+03  0.17285484526E+03 0.  0.
        -24    2    4    4    0    0 -0.10190977327E+02  0.15534515625E+03 -0.65261270796E+02  0.18331942423E+03  0.71491287892E+02 0.  0.
          5    1    3    3  501    0  0.76945006981E+02 -0.29037181304E+02  0.77623193021E+02  0.11318631583E+03  0.47000000000E+01 0. -1.
        -11    1    3    3    0    0  0.71073597472E+02 -0.87956858751E+02  0.79382525817E+02  0.13816457818E+03  0.00000000000E+00 0.  1.
         12    1    3    3    0    0 -0.43058187186E+02 -0.72472866120E+02  0.89492651131E+02  0.12294412720E+03  0.00000000000E+00 0. -1.
         -5    1    4    4    0  502 -0.94769439940E+02  0.34121749920E+02  0.22918040606E+01  0.10086071054E+03  0.47000000000E+01 0.  1.
         13    1    5    5    0    0  0.34892849407E+01  0.92565352316E+02 -0.73887376669E+02  0.11848993202E+03  0.00000000000E+00 0. -1.
        -14    1    5    5    0    0 -0.13680262268E+02  0.62779803938E+02  0.86261058722E+01  0.64829492214E+02  0.00000000000E+00 0.  1.
<mgrwt>
<rscale>  2 0.28052095E+03</rscale>
<asrwt>0</asrwt>
<pdfrwt beam="1">  1       21 0.64769543E-01 0.28166526E+03</pdfrwt>
<pdfrwt beam="2">  1       21 0.36534327E-01 0.28166526E+03</pdfrwt>
<totfact> 0.15122913E+04</totfact>
</mgrwt>
</event>
<event>
12    1  0.1013215E-001  0.2254795E+03  0.7546771E-02  0.1129982E+00
         21   -1    0    0  503  502  0.00000000000E+00  0.00000000000E+00  0.73703868398E+02  0.73703868398E+02  0.00000000000E+00 0.  1.
         21   -1    0    0  501  503 -0.00000000000E+00 -0.00000000000E+00 -0.94963000400E+03  0.94963000400E+03  0.00000000000E+00 0. -1.
          6    2    1    2  501    0  0.67433162984E+02  0.12789283077E+03 -0.70710346757E+03  0.74218349405E+03  0.17302374797E+03 0.  0.
         24    2    3    3    0    0  0.32728094342E+02  0.86435158291E+02 -0.21766923607E+03  0.24974960269E+03  0.80329340626E+02 0.  0.
         -6    2    1    2    0  502 -0.67433162984E+02 -0.12789283077E+03 -0.16882266803E+03  0.28115037835E+03  0.17216455608E+03 0.  0.
        -24    2    5    5    0    0 -0.65694026655E+02 -0.22425342721E+02 -0.13257144562E+03  0.16951410845E+03  0.79631925972E+02 0.  0.
          5    1    3    3  501    0  0.34705068642E+02  0.41457672479E+02 -0.48943423150E+03  0.49243389136E+03  0.47000000000E+01 0. -1.
        -11    1    4    4    0    0  0.48288410990E+02  0.22218640153E+02 -0.69345967839E+02  0.87374492054E+02  0.00000000000E+00 0.  1.
         12    1    4    4    0    0 -0.15560316648E+02  0.64216518138E+02 -0.14832326823E+03  0.16237511063E+03  0.00000000000E+00 0. -1.
         -5    1    5    5    0  502 -0.17391363292E+01 -0.10546748805E+03 -0.36251222410E+02  0.11163626990E+03  0.47000000000E+01 0.  1.
         11    1    6    6    0    0 -0.66800814556E+01  0.12675089476E+02  0.54717301875E+01  0.15336923183E+02  0.00000000000E+00 0. -1.
        -12    1    6    6    0    0 -0.59013945200E+02 -0.35100432197E+02 -0.13804317581E+03  0.15417718527E+03  0.00000000000E+00 0.  1.
<mgrwt>
<rscale>  2 0.22531471E+03</rscale>
<asrwt>0</asrwt>
<pdfrwt beam="1">  1       21 0.11339057E-01 0.22547954E+03</pdfrwt>
<pdfrwt beam="2">  1       21 0.14609692E+00 0.22547954E+03</pdfrwt>
<totfact> 0.20365040E+04</totfact>
</mgrwt>
</event>
<event>
12    1  0.1013215E-001  0.1834656E+03  0.7546771E-02  0.1164801E+00
         21   -1    0    0  501  502  0.00000000000E+00  0.00000000000E+00  0.19877343625E+03  0.19877343625E+03  0.00000000000E+00 0.  1.
         21   -1    0    0  502  503 -0.00000000000E+00 -0.00000000000E+00 -0.17297723330E+03  0.17297723330E+03  0.00000000000E+00 0. -1.
         -6    2    1    2    0  503  0.32837905474E+02  0.50279543193E+02  0.44060249562E+02  0.18868207195E+03  0.17335875572E+03 0.  0.
        -24    2    3    3    0    0  0.47657103292E+01  0.62872876716E+02 -0.32344737781E+02  0.10618084602E+03  0.79072620915E+02 0.  0.
          6    2    1    2  501    0 -0.32837905474E+02 -0.50279543193E+02 -0.18264046604E+02  0.18306859759E+03  0.17197143812E+03 0.  0.
         24    2    5    5    0    0 -0.16717025221E+02 -0.19182716804E+02 -0.77746765839E+02  0.11387915274E+03  0.79224152090E+02 0.  0.
          5    1    5    5  501    0 -0.16120880253E+02 -0.31096826389E+02  0.59482719235E+02  0.69189444854E+02  0.47000000000E+01 0. -1.
        -11    1    6    6    0    0 -0.11259547705E+00  0.11310037299E+02  0.12694429165E+02  0.17002298470E+02  0.00000000000E+00 0.  1.
         12    1    6    6    0    0 -0.16604429744E+02 -0.30492754102E+02 -0.90441195004E+02  0.96876854271E+02  0.00000000000E+00 0. -1.
         -5    1    3    3    0  503  0.28072195144E+02 -0.12593333523E+02  0.76404987343E+02  0.82501225932E+02  0.47000000000E+01 0.  1.
         13    1    4    4    0    0  0.28808796990E+02  0.68978002352E+02 -0.32153027966E+02  0.81374005677E+02  0.00000000000E+00 0. -1.
        -14    1    4    4    0    0 -0.24043086661E+02 -0.61051256368E+01 -0.19170981461E+00  0.24806840345E+02  0.00000000000E+00 0.  1.
<mgrwt>
<rscale>  2 0.18313712E+03</rscale>
<asrwt>0</asrwt>
<pdfrwt beam="1">  1       21 0.30580529E-01 0.18346558E+03</pdfrwt>
<pdfrwt beam="2">  1       21 0.26611882E-01 0.18346558E+03</pdfrwt>
<totfact> 0.13836427E+05</totfact>
</mgrwt>
</event>
<event>
12    1  0.1013215E-001  0.1854767E+03  0.7546771E-02  0.1162799E+00
         21   -1    0    0  503  502  0.00000000000E+00  0.00000000000E+00  0.16751499848E+03  0.16751499848E+03  0.00000000000E+00 0. -1.
         21   -1    0    0  501  503 -0.00000000000E+00 -0.00000000000E+00 -0.41736030891E+03  0.41736030891E+03  0.00000000000E+00 0.  1.
          6    2    1    2  501    0  0.14809738335E+02  0.64819315403E+02 -0.33393057006E+03  0.38198327886E+03  0.17314943752E+03 0.  0.
         24    2    3    3    0    0 -0.53877246861E+02  0.64266582472E+02 -0.22525408087E+03  0.25333306802E+03  0.80033062230E+02 0.  0.
         -6    2    1    2    0  502 -0.14809738335E+02 -0.64819315403E+02  0.84085259625E+02  0.20289202852E+03  0.17226134898E+03 0.  0.
        -24    2    5    5    0    0 -0.51338163005E+02 -0.84724555783E+02  0.95769373897E+02  0.15942764161E+03  0.80196898930E+02 0.  0.
          5    1    3    3  501    0  0.68686985196E+02  0.55273293136E+00 -0.10867648918E+03  0.12865021084E+03  0.47000000000E+01 0. -1.
        -11    1    4    4    0    0 -0.21237940290E+02  0.33270570319E+02 -0.19533876100E+03  0.19928675949E+03  0.00000000000E+00 0.  1.
         12    1    4    4    0    0 -0.32639306571E+02  0.30996012153E+02 -0.29915319869E+02  0.54046308529E+02  0.00000000000E+00 0. -1.
         -5    1    5    5    0  502  0.36528424670E+02  0.19905240380E+02 -0.11684114273E+02  0.43464386914E+02  0.47000000000E+01 0.  1.
         13    1    6    6    0    0 -0.43644896868E+02 -0.93085314853E+02  0.53975179653E+02  0.11611663482E+03  0.00000000000E+00 0. -1.
        -14    1    6    6    0    0 -0.76932661370E+01  0.83607590697E+01  0.41794194245E+02  0.43311006784E+02  0.00000000000E+00 0.  1.
<mgrwt>
<rscale>  2 0.18526914E+03</rscale>
<asrwt>0</asrwt>
<pdfrwt beam="1">  1       21 0.25771539E-01 0.18547668E+03</pdfrwt>
<pdfrwt beam="2">  1       21 0.64209278E-01 0.18547668E+03</pdfrwt>
<totfact> 0.32110460E+04</totfact>
</mgrwt>
</event>
<event>
12    1  0.1013215E-001  0.1826577E+03  0.7546771E-02  0.1165565E+00
         21   -1    0    0  501  502  0.00000000000E+00  0.00000000000E+00  0.68879879320E+02  0.68879879320E+02  0.00000000000E+00 0.  1.
         21   -1    0    0  502  503 -0.00000000000E+00 -0.00000000000E+00 -0.54571915833E+03  0.54571915833E+03  0.00000000000E+00 0.  1.
         -6    2    1    2    0  503 -0.42802441557E+02  0.26518001142E+02 -0.34504711653E+03  0.39041178752E+03  0.17558074444E+03 0.  0.
        -24    2    3    3    0    0 -0.12364637752E+02  0.52138718525E+02 -0.33541743224E+03  0.34920860949E+03  0.81058428658E+02 0.  0.
          6    2    1    2  501    0  0.42802441557E+02 -0.26518001142E+02 -0.13179216248E+03  0.22418725013E+03  0.17422828600E+03 0.  0.
         24    2    5    5    0    0  0.96236713011E+02 -0.14847938612E+02 -0.10659161877E+03  0.16378386340E+03  0.77339605033E+02 0.  0.
          5    1    5    5  501    0 -0.53434271453E+02 -0.11670062530E+02 -0.25200543705E+02  0.60403386728E+02  0.47000000000E+01 0. -1.
        -11    1    6    6    0    0  0.22355194555E+02  0.27747112294E+02 -0.50140261657E+02  0.61511810275E+02  0.00000000000E+00 0.  1.
         12    1    6    6    0    0  0.73881518455E+02 -0.42595050906E+02 -0.56451357115E+02  0.10227205313E+03  0.00000000000E+00 0. -1.
         -5    1    3    3    0  503 -0.30437803805E+02 -0.25620717383E+02 -0.96296842892E+01  0.41203178023E+02  0.47000000000E+01 0.  1.
         11    1    4    4    0    0  0.29214968599E+02  0.31261345798E+02 -0.93056414270E+02  0.10242207950E+03  0.00000000000E+00 0. -1.
        -12    1    4    4    0    0 -0.41579606351E+02  0.20877372727E+02 -0.24236101797E+03  0.24678653000E+03  0.00000000000E+00 0.  1.
<mgrwt>
<rscale>  2 0.18233195E+03</rscale>
<asrwt>0</asrwt>
<pdfrwt beam="1">  1       21 0.10596905E-01 0.18265774E+03</pdfrwt>
<pdfrwt beam="2">  1       21 0.83956792E-01 0.18265774E+03</pdfrwt>
<totfact> 0.90629234E+04</totfact>
</mgrwt>
</event>
<event>
12    1  0.1013215E-001  0.2062040E+03  0.7546771E-02  0.1145936E+00
         21   -1    0    0  501  502  0.00000000000E+00  0.00000000000E+00  0.13525900356E+03  0.13525900356E+03  0.00000000000E+00 0.  1.
         21   -1    0    0  502  503 -0.00000000000E+00 -0.00000000000E+00 -0.31063883953E+03  0.31063883953E+03  0.00000000000E+00 0.  1.
         -6    2    1    2    0  503  0.68442418920E+02 -0.84455042574E+02 -0.12009244212E+03  0.23862581523E+03  0.17522290409E+03 0.  0.
        -24    2    3    3    0    0  0.19803731124E+02 -0.12044989495E+03 -0.76433897939E+02  0.16386279076E+03  0.78156947758E+02 0.  0.
          6    2    1    2  501    0 -0.68442418920E+02  0.84455042574E+02 -0.55287393851E+02  0.20727202785E+03  0.16759468574E+03 0.  0.
         24    2    5    5    0    0 -0.72215314185E+02  0.10418462720E+03 -0.20411575907E+01  0.15016911266E+03  0.80480481639E+02 0.  0.
          5    1    5    5  501    0  0.37728952646E+01 -0.19729584621E+02 -0.53246236260E+02  0.57102915196E+02  0.47000000000E+01 0. -1.
        -13    1    6    6    0    0 -0.37272617923E+02  0.39352334146E+02  0.38136063027E+02  0.66273777264E+02  0.00000000000E+00 0.  1.
         14    1    6    6    0    0 -0.34942696262E+02  0.64832293049E+02 -0.40177220618E+02  0.83895335392E+02  0.00000000000E+00 0. -1.
         -5    1    3    3    0  503  0.48638687796E+02  0.35994852374E+02 -0.43658544183E+02  0.74763024471E+02  0.47000000000E+01 0.  1.
         11    1    4    4    0    0 -0.73116984120E+01 -0.68370476754E+01  0.13245539354E+02  0.16602724697E+02  0.00000000000E+00 0. -1.
        -12    1    4    4    0    0  0.27115429536E+02 -0.11361284727E+03 -0.89679437293E+02  0.14726006607E+03  0.00000000000E+00 0.  1.
<mgrwt>
<rscale>  2 0.20457436E+03</rscale>
<asrwt>0</asrwt>
<pdfrwt beam="1">  1       21 0.20809077E-01 0.20620399E+03</pdfrwt>
<pdfrwt beam="2">  1       21 0.47790591E-01 0.20620399E+03</pdfrwt>
<totfact> 0.89201176E+04</totfact>
</mgrwt>
</event>
<event>
12    1  0.1013215E-001  0.1775877E+03  0.7546771E-02  0.1171162E+00
         21   -1    0    0  503  502  0.00000000000E+00  0.00000000000E+00  0.45940216404E+03  0.45940216404E+03  0.00000000000E+00 0.  1.
         21   -1    0    0  501  503 -0.00000000000E+00 -0.00000000000E+00 -0.13037489774E+03  0.13037489774E+03  0.00000000000E+00 0.  1.
          6    2    1    2  501    0 -0.72749099540E+01 -0.17082584958E+02 -0.39943273661E+02  0.18202434611E+03  0.17661443441E+03 0.  0.
         24    2    3    3    0    0 -0.44021577603E+02 -0.27041962045E+02  0.33209278534E+02  0.99423543037E+02  0.78185789779E+02 0.  0.
         -6    2    1    2    0  502  0.72749099540E+01  0.17082584958E+02  0.36897053995E+03  0.40775271567E+03  0.17256383967E+03 0.  0.
        -24    2    5    5    0    0  0.41345652508E+02 -0.76573233135E+00  0.35622444957E+03  0.36696140841E+03  0.77812386302E+02 0.  0.
          5    1    3    3  501    0  0.36746667649E+02  0.99593770868E+01 -0.73152552195E+02  0.82600803071E+02  0.47000000000E+01 0. -1.
        -13    1    4    4    0    0 -0.37407667584E+02 -0.33105185605E+02 -0.13592752809E+02  0.51769197762E+02  0.00000000000E+00 0.  1.
         14    1    4    4    0    0 -0.66139100188E+01  0.60632235604E+01  0.46802031343E+02  0.47654345274E+02  0.00000000000E+00 0. -1.
         -5    1    5    5    0  502 -0.34070742555E+02  0.17848317289E+02  0.12746090384E+02  0.40791307265E+02  0.47000000000E+01 0.  1.
         13    1    6    6    0    0 -0.16141742864E+02  0.13986089498E+02  0.41326447396E+02  0.46519262854E+02  0.00000000000E+00 0. -1.
        -14    1    6    6    0    0  0.57487395372E+02 -0.14751821830E+02  0.31489800217E+03  0.32044214555E+03  0.00000000000E+00 0.  1.
<mgrwt>
<rscale>  2 0.17657207E+03</rscale>
<asrwt>0</asrwt>
<pdfrwt beam="1">  1       21 0.70677255E-01 0.17758772E+03</pdfrwt>
<pdfrwt beam="2">  1       21 0.20057677E-01 0.17758772E+03</pdfrwt>
<totfact> 0.41964776E+04</totfact>
</mgrwt>
</event>
<event>
12    1  0.1013215E-001  0.3381884E+03  0.7546771E-02  0.1067629E+00
         21   -1    0    0  501  502  0.00000000000E+00  0.00000000000E+00  0.77451532786E+02  0.77451532786E+02  0.00000000000E+00 0. -1.
         21   -1    0    0  502  503 -0.00000000000E+00 -0.00000000000E+00 -0.21058870098E+04  0.21058870098E+04  0.00000000000E+00 0.  1.
         -6    2    1    2    0  503  0.28806840392E+03 -0.33948106675E+02 -0.16114961402E+04  0.16464867713E+04  0.17280914051E+03 0.  0.
        -24    2    3    3    0    0  0.14437819886E+03  0.18936706957E+01 -0.11513233734E+04  0.11630484885E+04  0.79294552893E+02 0.  0.
          6    2    1    2  501    0 -0.28806840392E+03  0.33948106675E+02 -0.41693933688E+03  0.53685177131E+03  0.17388368077E+03 0.  0.
         24    2    5    5    0    0 -0.56520956512E+02  0.39157189165E+02 -0.11493802808E+03  0.15623617066E+03  0.80443065178E+02 0.  0.
          5    1    5    5  501    0 -0.23154744741E+03 -0.52090824898E+01 -0.30200130880E+03  0.38061560065E+03  0.47000000000E+01 0. -1.
        -11    1    6    6    0    0 -0.25490309632E+02  0.15471020144E+02 -0.11330669609E+03  0.11716448152E+03  0.00000000000E+00 0.  1.
         12    1    6    6    0    0 -0.31030646880E+02  0.23686169021E+02 -0.16313319905E+01  0.39071689146E+02  0.00000000000E+00 0. -1.
         -5    1    3    3    0  503  0.14369020506E+03 -0.35841777371E+02 -0.46017276679E+03  0.48343828286E+03  0.47000000000E+01 0.  1.
         11    1    4    4    0    0  0.25246659303E+02 -0.28153821018E+02 -0.39556475168E+03  0.39736822246E+03  0.00000000000E+00 0. -1.
        -12    1    4    4    0    0  0.11913153955E+03  0.30047491714E+02 -0.75575862169E+03  0.76568026599E+03  0.00000000000E+00 0.  1.
<mgrwt>
<rscale>  2 0.33805054E+03</rscale>
<asrwt>0</asrwt>
<pdfrwt beam="1">  1       21 0.11915622E-01 0.33818843E+03</pdfrwt>
<pdfrwt beam="2">  1       21 0.32398257E+00 0.33818843E+03</pdfrwt>
<totfact> 0.12730492E+03</totfact>
</mgrwt>
</event>
<event>
12    1  0.1013215E-001  0.2654344E+03  0.7546771E-02  0.1103989E+00
         21   -1    0    0  503  502  0.00000000000E+00  0.00000000000E+00  0.14427906265E+03  0.14427906265E+03  0.00000000000E+00 0. -1.
         21   -1    0    0  501  503 -0.00000000000E+00 -0.00000000000E+00 -0.87984647983E+03  0.87984647983E+03  0.00000000000E+00 0.  1.
          6    2    1    2  501    0 -0.15745510206E+03 -0.12543157599E+03 -0.26009225902E+02  0.26670559709E+03  0.17300348628E+03 0.  0.
         24    2    3    3    0    0 -0.63838411678E+02 -0.12332692642E+03  0.21061671220E+02  0.16179480821E+03  0.80306241246E+02 0.  0.
         -6    2    1    2    0  502  0.15745510206E+03  0.12543157599E+03 -0.70955819128E+03  0.75741994539E+03  0.17229903492E+03 0.  0.
        -24    2    5    5    0    0  0.79805513770E+01  0.41129853815E+02 -0.29030170750E+03  0.30437744092E+03  0.81333824984E+02 0.  0.
          5    1    3    3  501    0 -0.93616690383E+02 -0.21046495726E+01 -0.47070897122E+02  0.10491078888E+03  0.47000000000E+01 0. -1.
        -13    1    4    4    0    0  0.11719565525E+01 -0.96437296128E+01 -0.21909077907E+02  0.23966282518E+02  0.00000000000E+00 0.  1.
         14    1    4    4    0    0 -0.65010368230E+02 -0.11368319681E+03  0.42970749127E+02  0.13782852569E+03  0.00000000000E+00 0. -1.
         -5    1    5    5    0  502  0.14947455068E+03  0.84301722176E+02 -0.41925648378E+03  0.45304250447E+03  0.47000000000E+01 0.  1.
         11    1    6    6    0    0  0.26794075727E+01 -0.24783285544E+02 -0.93367178759E+02  0.96637573110E+02  0.00000000000E+00 0. -1.
        -12    1    6    6    0    0  0.53011438043E+01  0.65913139359E+02 -0.19693452874E+03  0.20773986781E+03  0.00000000000E+00 0.  1.
<mgrwt>
<rscale>  2 0.26531963E+03</rscale>
<asrwt>0</asrwt>
<pdfrwt beam="1">  1       21 0.22196779E-01 0.26543435E+03</pdfrwt>
<pdfrwt beam="2">  1       21 0.13536100E+00 0.26543435E+03</pdfrwt>
<totfact> 0.70479647E+03</totfact>
</mgrwt>
</event>
<event>
12    1  0.1013215E-001  0.1978439E+03  0.7546771E-02  0.1151782E+00
         21   -1    0    0  503  502  0.00000000000E+00  0.00000000000E+00  0.12512874156E+04  0.12512874156E+04  0.00000000000E+00 0. -1.
         21   -1    0    0  501  503 -0.00000000000E+00 -0.00000000000E+00 -0.34645003864E+02  0.34645003864E+02  0.00000000000E+00 0. -1.
          6    2    1    2  501    0  0.79237364315E+02 -0.52915924018E+02  0.40204457436E+03  0.44765331649E+03  0.17226432329E+03 0.  0.
         24    2    3    3    0    0  0.18932270810E+02  0.23205272082E+02  0.10654498686E+03  0.13656934549E+03  0.80015225889E+02 0.  0.
         -6    2    1    2    0  502 -0.79237364315E+02  0.52915924018E+02  0.81459783739E+03  0.83827910298E+03  0.17338847395E+03 0.  0.
        -24    2    5    5    0    0 -0.64922243210E+02  0.71302970463E+02  0.80152782533E+03  0.81115123199E+03  0.78869861972E+02 0.  0.
          5    1    3    3  501    0  0.60305093505E+02 -0.76121196100E+02  0.29549958750E+03  0.31108397100E+03  0.47000000000E+01 0. -1.
        -13    1    4    4    0    0 -0.27429659871E+02  0.24020710070E+02  0.63907859541E+02  0.73577138188E+02  0.00000000000E+00 0.  1.
         14    1    4    4    0    0  0.46361930681E+02 -0.81543798821E+00  0.42637127315E+02  0.62992207306E+02  0.00000000000E+00 0. -1.
         -5    1    5    5    0  502 -0.14315121105E+02 -0.18387046445E+02  0.13070012063E+02  0.27127870992E+02  0.47000000000E+01 0.  1.
         11    1    6    6    0    0 -0.63366231345E+02  0.15833277001E+02  0.33267891674E+03  0.33902984172E+03  0.00000000000E+00 0. -1.
        -12    1    6    6    0    0 -0.15560118652E+01  0.55469693462E+02  0.46884890859E+03  0.47212139027E+03  0.00000000000E+00 0.  1.
<mgrwt>
<rscale>  2 0.19759735E+03</rscale>
<asrwt>0</asrwt>
<pdfrwt beam="1">  1       21 0.19250572E+00 0.19784392E+03</pdfrwt>
<pdfrwt beam="2">  1       21 0.53300015E-02 0.19784392E+03</pdfrwt>
<totfact> 0.36112219E+04</totfact>
</mgrwt>
</event>
<event>
12    1  0.1013215E-001  0.2061878E+03  0.7546771E-02  0.1145622E+00
         21   -1    0    0  501  502  0.00000000000E+00  0.00000000000E+00  0.18601924911E+03  0.18601924911E+03  0.00000000000E+00 0.  1.
         21   -1    0    0  502  503 -0.00000000000E+00 -0.00000000000E+00 -0.23466940393E+03  0.23466940393E+03  0.00000000000E+00 0.  1.
         -6    2    1    2    0  503  0.10869196627E+03 -0.14376547935E+01  0.22509141330E+02  0.20256698272E+03  0.16944235203E+03 0.  0.
        -24    2    3    3    0    0  0.76871279092E+02 -0.14004393841E+02  0.77858113324E+02  0.13732836100E+03  0.81803889450E+02 0.  0.
          6    2    1    2  501    0 -0.10869196627E+03  0.14376547935E+01 -0.71159296147E+02  0.21812167032E+03  0.17520675572E+03 0.  0.
         24    2    5    5    0    0 -0.14227378921E+03  0.15777769341E+02 -0.40098261459E+02  0.16995263885E+03  0.82372688301E+02 0.  0.
          5    1    5    5  501    0  0.33581822938E+02 -0.14340114548E+02 -0.31061034688E+02  0.48169031472E+02  0.47000000000E+01 0. -1.
        -11    1    6    6    0    0 -0.22304436090E+02  0.32691264330E+02 -0.27396545107E+02  0.48132913028E+02  0.00000000000E+00 0.  1.
         12    1    6    6    0    0 -0.11996935312E+03 -0.16913494989E+02 -0.12701716352E+02  0.12181972582E+03  0.00000000000E+00 0. -1.
         -5    1    3    3    0  503  0.31820687176E+02  0.12566739047E+02 -0.55348971994E+02  0.65238621717E+02  0.47000000000E+01 0.  1.
         11    1    4    4    0    0  0.28731561079E+02  0.32986483620E+02  0.18079861486E+02  0.47333836681E+02  0.00000000000E+00 0. -1.
        -12    1    4    4    0    0  0.48139718014E+02 -0.46990877461E+02  0.59778251838E+02  0.89994524321E+02  0.00000000000E+00 0.  1.
<mgrwt>
<rscale>  2 0.20495803E+03</rscale>
<asrwt>0</asrwt>
<pdfrwt beam="1">  1       21 0.28618346E-01 0.20618782E+03</pdfrwt>
<pdfrwt beam="2">  1       21 0.36102985E-01 0.20618782E+03</pdfrwt>
<totfact> 0.85917184E+04</totfact>
</mgrwt>
</event>
<event>
12    1  0.1013215E-001  0.2324827E+03  0.7546771E-02  0.1125181E+00
         21   -1    0    0  503  502  0.00000000000E+00  0.00000000000E+00  0.16869371038E+04  0.16869371038E+04  0.00000000000E+00 0.  1.
         21   -1    0    0  501  503 -0.00000000000E+00 -0.00000000000E+00 -0.47978752440E+02  0.47978752440E+02  0.00000000000E+00 0. -1.
          6    2    1    2  501    0 -0.96758905490E+02 -0.11992307307E+03  0.31420908116E+03  0.38992187273E+03  0.17195316485E+03 0.  0.
         24    2    3    3    0    0 -0.10051328832E+03 -0.14457945906E+03  0.30915918385E+03  0.36404477430E+03  0.77091216229E+02 0.  0.
         -6    2    1    2    0  502  0.96758905490E+02  0.11992307307E+03  0.13247492702E+04  0.13449939835E+04  0.17408146810E+03 0.  0.
        -24    2    5    5    0    0  0.66991083241E+02  0.14918403434E+03  0.90405819435E+03  0.92221106238E+03  0.80052129734E+02 0.  0.
          5    1    3    3  501    0  0.37543828327E+01  0.24656385991E+02  0.50498973102E+01  0.25877098436E+02  0.47000000000E+01 0. -1.
        -13    1    4    4    0    0  0.12273061730E+02 -0.24566659499E+02  0.40899709739E+02  0.49263932647E+02  0.00000000000E+00 0.  1.
         14    1    4    4    0    0 -0.11278635005E+03 -0.12001279957E+03  0.26825947411E+03  0.31478084165E+03  0.00000000000E+00 0. -1.
         -5    1    5    5    0  502  0.29767822249E+02 -0.29260961271E+02  0.42069107580E+03  0.42278292108E+03  0.47000000000E+01 0.  1.
         13    1    6    6    0    0 -0.10333919441E+02  0.70394538093E+02  0.32043955266E+03  0.32824333625E+03  0.00000000000E+00 0. -1.
        -14    1    6    6    0    0  0.77325002682E+02  0.78789496251E+02  0.58361864168E+03  0.59396772613E+03  0.00000000000E+00 0.  1.
<mgrwt>
<rscale>  2 0.23208430E+03</rscale>
<asrwt>0</asrwt>
<pdfrwt beam="1">  1       21 0.25952874E+00 0.23248266E+03</pdfrwt>
<pdfrwt beam="2">  1       21 0.73813478E-02 0.23248266E+03</pdfrwt>
<totfact> 0.77742463E+03</totfact>
</mgrwt>
</event>
<event>
12    1  0.1013215E-001  0.2357660E+03  0.7546771E-02  0.1124253E+00
         21   -1    0    0  503  502  0.00000000000E+00  0.00000000000E+00  0.11568640912E+03  0.11568640912E+03  0.00000000000E+00 0. -1.
         21   -1    0    0  501  503 -0.00000000000E+00 -0.00000000000E+00 -0.59111843521E+03  0.59111843521E+03  0.00000000000E+00 0.  1.
          6    2    1    2  501    0 -0.82405787389E+02 -0.11341242453E+03 -0.39923970640E+03  0.45903303348E+03  0.17794912426E+03 0.  0.
         24    2    3    3    0    0 -0.20836599071E+02 -0.10583754173E+03 -0.36297756061E+03  0.38702486021E+03  0.79998648847E+02 0.  0.
         -6    2    1    2    0  502  0.82405787389E+02  0.11341242453E+03 -0.76192319697E+02  0.24777181085E+03  0.18955872134E+03 0.  0.
        -24    2    5    5    0    0  0.10659382779E+03  0.14287457006E+03 -0.77249379783E+02  0.20934933444E+03  0.78001860611E+02 0.  0.
          5    1    3    3  501    0 -0.61569188317E+02 -0.75748828029E+01 -0.36262145789E+02  0.72008173264E+02  0.47000000000E+01 0. -1.
        -11    1    4    4    0    0 -0.45428134263E+02 -0.69679772581E+02 -0.17136540037E+03  0.19048644711E+03  0.00000000000E+00 0.  1.
         12    1    4    4    0    0  0.24591535191E+02 -0.36157769151E+02 -0.19161216024E+03  0.19653841310E+03  0.00000000000E+00 0. -1.
         -5    1    5    5    0  502 -0.24188040401E+02 -0.29462145529E+02  0.10570600855E+01  0.38422476412E+02  0.47000000000E+01 0.  1.
         13    1    6    6    0    0  0.66407482782E+02  0.57385447385E+02 -0.71025974799E+00  0.87769857069E+02  0.00000000000E+00 0. -1.
        -14    1    6    6    0    0  0.40186345008E+02  0.85489122678E+02 -0.76539120035E+02  0.12157947737E+03  0.00000000000E+00 0.  1.
<mgrwt>
<rscale>  2 0.23342406E+03</rscale>
<asrwt>0</asrwt>
<pdfrwt beam="1">  1       21 0.17797909E-01 0.23576599E+03</pdfrwt>
<pdfrwt beam="2">  1       21 0.90941297E-01 0.23576599E+03</pdfrwt>
<totfact> 0.28728005E+04</totfact>
</mgrwt>
</event>
<event>
12    1  0.1013215E-001  0.2621292E+03  0.7546771E-02  0.1105915E+00
         21   -1    0    0  501  502  0.00000000000E+00  0.00000000000E+00  0.29371832136E+03  0.29371832136E+03  0.00000000000E+00 0.  1.
         21   -1    0    0  502  503 -0.00000000000E+00 -0.00000000000E+00 -0.35571182573E+03  0.35571182573E+03  0.00000000000E+00 0. -1.
         -6    2    1    2    0  503 -0.13195276462E+02 -0.19661652789E+03 -0.22118163943E+03  0.34275025081E+03  0.17240719953E+03 0.  0.
        -24    2    3    3    0    0 -0.66969616783E+02 -0.85569959308E+02 -0.15427929308E+03  0.20231865174E+03  0.72962929358E+02 0.  0.
          6    2    1    2  501    0  0.13195276462E+02  0.19661652789E+03  0.15918813506E+03  0.30667989627E+03  0.17285694106E+03 0.  0.
         24    2    5    5    0    0  0.13098556335E+02  0.22122324605E+03  0.15167315439E+03  0.28052526249E+03  0.81107215211E+02 0.  0.
          5    1    5    5  501    0  0.96720126922E-01 -0.24606718168E+02  0.75149806742E+01  0.26154633782E+02  0.47000000000E+01 0. -1.
        -11    1    6    6    0    0  0.28454767491E+02  0.14663703997E+03  0.59058771044E+02  0.16062388901E+03  0.00000000000E+00 0.  1.
         12    1    6    6    0    0 -0.15356211156E+02  0.74586206082E+02  0.92614383346E+02  0.11990137348E+03  0.00000000000E+00 0. -1.
         -5    1    3    3    0  503  0.53774340321E+02 -0.11104656858E+03 -0.66902346349E+02  0.14043159907E+03  0.47000000000E+01 0.  1.
         11    1    4    4    0    0 -0.39508736467E+02 -0.88376318265E+02 -0.89235192715E+02  0.13165953633E+03  0.00000000000E+00 0. -1.
        -12    1    4    4    0    0 -0.27460880316E+02  0.28063589569E+01 -0.65044100370E+02  0.70659115415E+02  0.00000000000E+00 0.  1.
<mgrwt>
<rscale>  2 0.26205504E+03</rscale>
<asrwt>0</asrwt>
<pdfrwt beam="1">  1       21 0.45187434E-01 0.26212916E+03</pdfrwt>
<pdfrwt beam="2">  1       21 0.54724896E-01 0.26212916E+03</pdfrwt>
<totfact> 0.14238215E+04</totfact>
</mgrwt>
</event>
<event>
12    1  0.1013215E-001  0.1856302E+03  0.7546771E-02  0.1162509E+00
         21   -1    0    0  503  502  0.00000000000E+00  0.00000000000E+00  0.53723626811E+03  0.53723626811E+03  0.00000000000E+00 0.  1.
         21   -1    0    0  501  503 -0.00000000000E+00 -0.00000000000E+00 -0.65847833327E+02  0.65847833327E+02  0.00000000000E+00 0.  1.
          6    2    1    2  501    0  0.52738800191E+02 -0.45151531740E+02  0.18604225887E+03  0.26267109298E+03  0.17194283684E+03 0.  0.
         24    2    3    3    0    0 -0.26466430133E+02 -0.30710929255E+02  0.45845091612E+02  0.10093261513E+03  0.80261991457E+02 0.  0.
         -6    2    1    2    0  502 -0.52738800191E+02  0.45151531740E+02  0.28534617591E+03  0.34041300845E+03  0.17215845711E+03 0.  0.
        -24    2    5    5    0    0 -0.94792386697E+02  0.30142585606E+02  0.25636932395E+03  0.28697593750E+03  0.82071836839E+02 0.  0.
          5    1    3    3  501    0  0.79205230324E+02 -0.14440602485E+02  0.14019716726E+03  0.16173847785E+03  0.47000000000E+01 0. -1.
        -11    1    4    4    0    0 -0.17711025688E+02 -0.53575559862E+02  0.96680899655E+01  0.57249393089E+02  0.00000000000E+00 0.  1.
         12    1    4    4    0    0 -0.87554044443E+01  0.22864630608E+02  0.36177001647E+02  0.43683222042E+02  0.00000000000E+00 0. -1.
         -5    1    5    5    0  502  0.42053586506E+02  0.15008946134E+02  0.28976851965E+02  0.53437070952E+02  0.47000000000E+01 0.  1.
         13    1    6    6    0    0 -0.20896698806E+02  0.13955414458E+00  0.27076857534E+01  0.21071854652E+02  0.00000000000E+00 0. -1.
        -14    1    6    6    0    0 -0.73895687891E+02  0.30003031461E+02  0.25366163819E+03  0.26590408285E+03  0.00000000000E+00 0.  1.
<mgrwt>
<rscale>  2 0.18558020E+03</rscale>
<asrwt>0</asrwt>
<pdfrwt beam="1">  1       21 0.82651731E-01 0.18563021E+03</pdfrwt>
<pdfrwt beam="2">  1       21 0.10130436E-01 0.18563021E+03</pdfrwt>
<totfact> 0.10158179E+05</totfact>
</mgrwt>
</event>
<event>
12    1  0.1013215E-001  0.2193472E+03  0.7546771E-02  0.1134480E+00
         21   -1    0    0  503  502  0.00000000000E+00  0.00000000000E+00  0.35624827791E+03  0.35624827791E+03  0.00000000000E+00 0.  1.
         21   -1    0    0  501  503 -0.00000000000E+00 -0.00000000000E+00 -0.24722977760E+03  0.24722977760E+03  0.00000000000E+00 0.  1.
          6    2    1    2  501    0  0.81378697076E+01 -0.13429435693E+03 -0.14910373809E+03  0.26474470719E+03  0.17250111898E+03 0.  0.
         24    2    3    3    0    0  0.12164865008E+02 -0.13397611678E+03 -0.17652367583E+03  0.23663312677E+03  0.82079502621E+02 0.  0.
         -6    2    1    2    0  502 -0.81378697076E+01  0.13429435693E+03  0.25812223840E+03  0.33873334832E+03  0.17323969545E+03 0.  0.
        -24    2    5    5    0    0  0.55564197367E+02  0.90701377735E+02  0.11130381630E+03  0.17279347893E+03  0.78453342097E+02 0.  0.
          5    1    3    3  501    0 -0.40269953005E+01 -0.31824015092E+00  0.27419937742E+02  0.28111580420E+02  0.47000000000E+01 0. -1.
        -11    1    4    4    0    0  0.29182482816E+02 -0.76828770699E+02 -0.48558963091E+02  0.95458107078E+02  0.00000000000E+00 0.  1.
         12    1    4    4    0    0 -0.17017617808E+02 -0.57147346078E+02 -0.12796471274E+03  0.14117501969E+03  0.00000000000E+00 0. -1.
         -5    1    5    5    0  502 -0.63702067074E+02  0.43592979192E+02  0.14681842210E+03  0.16593986939E+03  0.47000000000E+01 0.  1.
         11    1    6    6    0    0 -0.61886383856E+01  0.13892614838E+02 -0.86887147137E+01  0.17515643165E+02  0.00000000000E+00 0. -1.
        -12    1    6    6    0    0  0.61752835753E+02  0.76808762897E+02  0.11999253101E+03  0.15527783576E+03  0.00000000000E+00 0.  1.
<mgrwt>
<rscale>  2 0.21920133E+03</rscale>
<asrwt>0</asrwt>
<pdfrwt beam="1">  1       21 0.54807427E-01 0.21934719E+03</pdfrwt>
<pdfrwt beam="2">  1       21 0.38035350E-01 0.21934719E+03</pdfrwt>
<totfact> 0.20625976E+04</totfact>
</mgrwt>
</event>
<event>
12    1  0.1013215E-001  0.2003349E+03  0.7546771E-02  0.1149749E+00
         21   -1    0    0  501  502  0.00000000000E+00  0.00000000000E+00  0.37803074374E+03  0.37803074374E+03  0.00000000000E+00 0. -1.
         21   -1    0    0  502  503 -0.00000000000E+00 -0.00000000000E+00 -0.14885047298E+03  0.14885047298E+03  0.00000000000E+00 0. -1.
         -6    2    1    2    0  503  0.88751963803E+02 -0.41306775570E+02 -0.27968784485E+02  0.20090617681E+03  0.17319895550E+03 0.  0.
        -24    2    3    3    0    0  0.79608073016E+02 -0.21246213277E+02 -0.82460130976E+02  0.14193640709E+03  0.80977920377E+02 0.  0.
          6    2    1    2  501    0 -0.88751963803E+02  0.41306775570E+02  0.25714905524E+03  0.32597503992E+03  0.17478824117E+03 0.  0.
         24    2    5    5    0    0 -0.82882393040E+02 -0.21523485468E+02  0.96617359324E+02  0.15342183376E+03  0.82889042989E+02 0.  0.
          5    1    5    5  501    0 -0.58695707631E+01  0.62830261038E+02  0.16053169592E+03  0.17255320616E+03  0.47000000000E+01 0. -1.
        -13    1    6    6    0    0 -0.35690576295E+02 -0.43094736935E+02  0.82432329524E+02  0.99629626811E+02  0.00000000000E+00 0.  1.
         14    1    6    6    0    0 -0.47191816745E+02  0.21571251468E+02  0.14185029800E+02  0.53792206945E+02  0.00000000000E+00 0. -1.
         -5    1    3    3    0  503  0.91438907874E+01 -0.20060562293E+02  0.54491346491E+02  0.58969769719E+02  0.47000000000E+01 0.  1.
         11    1    4    4    0    0  0.80171235549E+02  0.78641765177E+01 -0.38686515460E+02  0.89363967907E+02  0.00000000000E+00 0. -1.
        -12    1    4    4    0    0 -0.56316253336E+00 -0.29110389795E+02 -0.43773615516E+02  0.52572439180E+02  0.00000000000E+00 0.  1.
<mgrwt>
<rscale>  2 0.19998777E+03</rscale>
<asrwt>0</asrwt>
<pdfrwt beam="1">  1       21 0.58158576E-01 0.20033494E+03</pdfrwt>
<pdfrwt beam="2">  1       21 0.22900073E-01 0.20033494E+03</pdfrwt>
<totfact> 0.49384540E+04</totfact>
</mgrwt>
</event>
<event>
12    1  0.1013215E-001  0.1912312E+03  0.7546771E-02  0.1158589E+00
         21   -1    0    0  501  502  0.00000000000E+00  0.00000000000E+00  0.46455732706E+03  0.46455732706E+03  0.00000000000E+00 0.  1.
         21   -1    0    0  502  503 -0.00000000000E+00 -0.00000000000E+00 -0.78226520890E+02  0.78226520890E+02  0.00000000000E+00 0.  1.
         -6    2    1    2    0  503 -0.80245620291E+02  0.12970772258E+02  0.15012047047E+03  0.23886823096E+03  0.16707565830E+03 0.  0.
        -24    2    3    3    0    0 -0.30790149422E+02 -0.38236781249E+02  0.28452207579E+02  0.97824573423E+02  0.79687102518E+02 0.  0.
          6    2    1    2  501    0  0.80245620291E+02 -0.12970772258E+02  0.23621033570E+03  0.30391561699E+03  0.17309471122E+03 0.  0.
         24    2    5    5    0    0  0.40926706975E+02  0.71947833247E+01  0.34045861349E+02  0.96924817041E+02  0.80675518173E+02 0.  0.
          5    1    5    5  501    0  0.39318913315E+02 -0.20165555583E+02  0.20216447435E+03  0.20699079995E+03  0.47000000000E+01 0. -1.
        -13    1    6    6    0    0  0.35253135429E+01  0.35669027318E+02  0.34735966537E+02  0.49912871252E+02  0.00000000000E+00 0.  1.
         14    1    6    6    0    0  0.37401393433E+02 -0.28474243993E+02 -0.69010518764E+00  0.47011945789E+02  0.00000000000E+00 0. -1.
         -5    1    3    3    0  503 -0.49455470868E+02  0.51207553507E+02  0.12166826290E+03  0.14104365754E+03  0.47000000000E+01 0.  1.
         11    1    4    4    0    0  0.11080969045E+02  0.19240322428E+02  0.10044674663E+02  0.24369517254E+02  0.00000000000E+00 0. -1.
        -12    1    4    4    0    0 -0.41871118467E+02 -0.57477103677E+02  0.18407532916E+02  0.73455056169E+02  0.00000000000E+00 0.  1.
<mgrwt>
<rscale>  2 0.18985887E+03</rscale>
<asrwt>0</asrwt>
<pdfrwt beam="1">  1       21 0.71470356E-01 0.19123122E+03</pdfrwt>
<pdfrwt beam="2">  1       21 0.12034850E-01 0.19123122E+03</pdfrwt>
<totfact> 0.10337539E+05</totfact>
</mgrwt>
</event>
<event>
12    1  0.1013215E-001  0.2246852E+03  0.7546771E-02  0.1130444E+00
         21   -1    0    0  501  502  0.00000000000E+00  0.00000000000E+00  0.13765238370E+03  0.13765238370E+03  0.00000000000E+00 0. -1.
         21   -1    0    0  502  503 -0.00000000000E+00 -0.00000000000E+00 -0.45595551687E+03  0.45595551687E+03  0.00000000000E+00 0. -1.
         -6    2    1    2    0  503  0.77038239899E+01  0.14305337620E+03 -0.27810256171E+02  0.22636203105E+03  0.17303971049E+03 0.  0.
        -24    2    3    3    0    0  0.64938833235E+02  0.10691524358E+03 -0.44748284089E+02  0.15642779264E+03  0.82579198407E+02 0.  0.
          6    2    1    2  501    0 -0.77038239899E+01 -0.14305337620E+03 -0.29049287699E+03  0.36724586952E+03  0.17308899372E+03 0.  0.
         24    2    5    5    0    0  0.57368160754E+02 -0.71611920438E+02 -0.12621116494E+03  0.17659221570E+03  0.82681191772E+02 0.  0.
          5    1    5    5  501    0 -0.65071984744E+02 -0.71441455761E+02 -0.16428171205E+03  0.19065365382E+03  0.47000000000E+01 0. -1.
        -13    1    6    6    0    0  0.13127601109E+02 -0.61224871450E+02 -0.28432674267E+02  0.68769439149E+02  0.00000000000E+00 0.  1.
         14    1    6    6    0    0  0.44240559645E+02 -0.10387048988E+02 -0.97778490677E+02  0.10782277655E+03  0.00000000000E+00 0. -1.
         -5    1    3    3    0  503 -0.57235009245E+02  0.36138132622E+02  0.16938027918E+02  0.69934238413E+02  0.47000000000E+01 0.  1.
         13    1    4    4    0    0  0.81071012211E+02  0.71893830027E+02 -0.18863194137E+02  0.10998659877E+03  0.00000000000E+00 0. -1.
        -14    1    4    4    0    0 -0.16132178977E+02  0.35021413551E+02 -0.25885089952E+02  0.46441193863E+02  0.00000000000E+00 0.  1.
<mgrwt>
<rscale>  2 0.22467566E+03</rscale>
<asrwt>0</asrwt>
<pdfrwt beam="1">  1       21 0.21177290E-01 0.22468515E+03</pdfrwt>
<pdfrwt beam="2">  1       21 0.70147003E-01 0.22468515E+03</pdfrwt>
<totfact> 0.37630753E+04</totfact>
</mgrwt>
</event>
<event>
12    1  0.1013215E-001  0.3240658E+03  0.7546771E-02  0.1073860E+00
         21   -1    0    0  501  502  0.00000000000E+00  0.00000000000E+00  0.33273597310E+03  0.33273597310E+03  0.00000000000E+00 0.  1.
         21   -1    0    0  502  503 -0.00000000000E+00 -0.00000000000E+00 -0.32071111477E+03  0.32071111477E+03  0.00000000000E+00 0. -1.
         -6    2    1    2    0  503  0.24242134621E+03  0.12691542611E+03 -0.37415132961E+02  0.32563167460E+03  0.17251220493E+03 0.  0.
        -24    2    3    3    0    0  0.59649075138E+02  0.95460417774E+02 -0.20663618859E+02  0.13935815570E+03  0.79517337030E+02 0.  0.
          6    2    1    2  501    0 -0.24242134621E+03 -0.12691542611E+03  0.49439991295E+02  0.32781541326E+03  0.17361738954E+03 0.  0.
         24    2    5    5    0    0 -0.25783498550E+03 -0.12444103841E+03  0.63849013232E+02  0.30605736225E+03  0.87349646293E+02 0.  0.
          5    1    5    5  501    0  0.15413639291E+02 -0.24743876933E+01 -0.14409021937E+02  0.21758051012E+02  0.47000000000E+01 0. -1.
        -13    1    6    6    0    0 -0.18562823086E+03 -0.10949038270E+03  0.81203913328E+02  0.23030427598E+03  0.00000000000E+00 0.  1.
         14    1    6    6    0    0 -0.72206754643E+02 -0.14950655719E+02 -0.17354900096E+02  0.75753086273E+02  0.00000000000E+00 0. -1.
         -5    1    3    3    0  503  0.18277227107E+03  0.31455008335E+02 -0.16751514102E+02  0.18627351891E+03  0.47000000000E+01 0.  1.
         13    1    4    4    0    0  0.69397131148E+02  0.69122776991E+02 -0.39423756664E+02  0.10558481283E+03  0.00000000000E+00 0. -1.
        -14    1    4    4    0    0 -0.97480560104E+01  0.26337640783E+02  0.18760137805E+02  0.33773342868E+02  0.00000000000E+00 0.  1.
<mgrwt>
<rscale>  2 0.32391799E+03</rscale>
<asrwt>0</asrwt>
<pdfrwt beam="1">  1       21 0.51190150E-01 0.32406578E+03</pdfrwt>
<pdfrwt beam="2">  1       21 0.49340171E-01 0.32406578E+03</pdfrwt>
<totfact> 0.13289379E+04</totfact>
</mgrwt>
</event>
<event>
12    1  0.1013215E-001  0.1946637E+03  0.7546771E-02  0.1154556E+00
         21   -1    0    0  501  502  0.00000000000E+00  0.00000000000E+00  0.79179619793E+03  0.79179619793E+03  0.00000000000E+00 0. -1.
         21   -1    0    0  502  503 -0.00000000000E+00 -0.00000000000E+00 -0.58844680153E+02  0.58844680153E+02  0.00000000000E+00 0. -1.
         -6    2    1    2    0  503 -0.73022979726E+02  0.51816355747E+02  0.55325990463E+03  0.58650701786E+03  0.17284869000E+03 0.  0.
        -24    2    3    3    0    0 -0.10819709042E+02  0.72560085353E+02  0.27862614991E+03  0.30411484652E+03  0.97320482784E+02 0.  0.
          6    2    1    2  501    0  0.73022979726E+02 -0.51816355747E+02  0.17969161315E+03  0.26413386023E+03  0.17164011766E+03 0.  0.
         24    2    5    5    0    0  0.49207984611E+02 -0.33844375628E+02  0.25240163939E+02  0.10675696794E+03  0.84812244505E+02 0.  0.
          5    1    5    5  501    0  0.23814995116E+02 -0.17971980119E+02  0.15445144921E+03  0.15737689228E+03  0.47000000000E+01 0. -1.
        -13    1    6    6    0    0 -0.75594201815E+01  0.21142461040E+02  0.15142798234E+02  0.27082334291E+02  0.00000000000E+00 0.  1.
         14    1    6    6    0    0  0.56767404792E+02 -0.54986836668E+02  0.10097365705E+02  0.79674633653E+02  0.00000000000E+00 0. -1.
         -5    1    3    3    0  503 -0.62203270685E+02 -0.20743729606E+02  0.27463375472E+03  0.28239217134E+03  0.47000000000E+01 0.  1.
         13    1    4    4    0    0 -0.40145430854E+02  0.52105584286E+01  0.52117226785E+02  0.65992506131E+02  0.00000000000E+00 0. -1.
        -14    1    4    4    0    0  0.29325721813E+02  0.67349526924E+02  0.22650892312E+03  0.23812234039E+03  0.00000000000E+00 0.  1.
<mgrwt>
<rscale>  2 0.19439507E+03</rscale>
<asrwt>0</asrwt>
<pdfrwt beam="1">  1       21 0.12181479E+00 0.19466371E+03</pdfrwt>
<pdfrwt beam="2">  1       21 0.90530283E-02 0.19466371E+03</pdfrwt>
<totfact> 0.49136832E+04</totfact>
</mgrwt>
</event>
<event>
12    1  0.1013215E-001  0.2736520E+03  0.7546771E-02  0.1099558E+00
         21   -1    0    0  501  502  0.00000000000E+00  0.00000000000E+00  0.52762556722E+03  0.52762556722E+03  0.00000000000E+00 0. -1.
         21   -1    0    0  502  503 -0.00000000000E+00 -0.00000000000E+00 -0.17929589781E+03  0.17929589781E+03  0.00000000000E+00 0.  1.
         -6    2    1    2    0  503 -0.21080951022E+03  0.25249952496E+02  0.10681952807E+02  0.27386040285E+03  0.17264763663E+03 0.  0.
        -24    2    3    3    0    0 -0.13091843277E+03  0.79673060639E+02 -0.12549158924E+02  0.17433033952E+03  0.82134969746E+02 0.  0.
          6    2    1    2  501    0  0.21080951022E+03 -0.25249952496E+02  0.33764771660E+03  0.43306106218E+03  0.16869408215E+03 0.  0.
         24    2    5    5    0    0  0.17496666348E+03  0.33897360358E+02  0.20357134797E+03  0.28212505950E+03  0.79943049196E+02 0.  0.
          5    1    5    5  501    0  0.35842846739E+02 -0.59147312853E+02  0.13407636863E+03  0.15093600268E+03  0.47000000000E+01 0. -1.
        -13    1    6    6    0    0  0.15753095065E+01  0.21104357195E+02  0.17440786152E+02  0.27423648814E+02  0.00000000000E+00 0.  1.
         14    1    6    6    0    0  0.17339135397E+03  0.12793003162E+02  0.18613056182E+03  0.25470141068E+03  0.00000000000E+00 0. -1.
         -5    1    3    3    0  503 -0.79891077442E+02 -0.54423108143E+02  0.23231111732E+02  0.99530063334E+02  0.47000000000E+01 0.  1.
         13    1    4    4    0    0 -0.10042137268E+03  0.28140236913E+02 -0.35552706007E+02  0.11018311999E+03  0.00000000000E+00 0. -1.
        -14    1    4    4    0    0 -0.30497060088E+02  0.51532823726E+02  0.23003547083E+02  0.64147219531E+02  0.00000000000E+00 0.  1.
<mgrwt>
<rscale>  2 0.27303065E+03</rscale>
<asrwt>0</asrwt>
<pdfrwt beam="1">  1       21 0.81173163E-01 0.27365200E+03</pdfrwt>
<pdfrwt beam="2">  1       21 0.27583985E-01 0.27365200E+03</pdfrwt>
<totfact> 0.15962599E+04</totfact>
</mgrwt>
</event>
<event>
12    1  0.1013215E-001  0.2084867E+03  0.7546771E-02  0.1143251E+00
         21   -1    0    0  501  502  0.00000000000E+00  0.00000000000E+00  0.24941326832E+03  0.24941326832E+03  0.00000000000E+00 0.  1.
         21   -1    0    0  502  503 -0.00000000000E+00 -0.00000000000E+00 -0.19291538186E+03  0.19291538186E+03  0.00000000000E+00 0.  1.
         -6    2    1    2    0  503 -0.10263226013E+02 -0.11679331386E+03 -0.44223965544E+02  0.21078689903E+03  0.16949733244E+03 0.  0.
        -24    2    3    3    0    0 -0.23486547848E+02 -0.13493671949E+03 -0.73677730178E+02  0.17345522804E+03  0.76803463556E+02 0.  0.
          6    2    1    2  501    0  0.10263226013E+02  0.11679331386E+03  0.10072185201E+03  0.23154175115E+03  0.17239686506E+03 0.  0.
         24    2    5    5    0    0  0.31975745887E+02  0.14349334845E+03  0.10273702542E+03  0.19674985137E+03  0.80887689090E+02 0.  0.
          5    1    5    5  501    0 -0.21712519874E+02 -0.26700034592E+02 -0.20151734112E+01  0.34791899781E+02  0.47000000000E+01 0. -1.
        -13    1    6    6    0    0 -0.22952236000E+02  0.79602417272E+02  0.59880024930E+02  0.10222019056E+03  0.00000000000E+00 0.  1.
         14    1    6    6    0    0  0.54927981886E+02  0.63890931182E+02  0.42857000492E+02  0.94529660808E+02  0.00000000000E+00 0. -1.
         -5    1    3    3    0  503  0.13223321835E+02  0.18143405625E+02  0.29453764634E+02  0.37331670993E+02  0.47000000000E+01 0.  1.
         13    1    4    4    0    0 -0.28450991385E+02 -0.87568996218E+01 -0.66926572749E+01  0.30511208813E+02  0.00000000000E+00 0. -1.
        -14    1    4    4    0    0  0.49644435375E+01 -0.12617981986E+03 -0.66985072903E+02  0.14294401923E+03  0.00000000000E+00 0.  1.
<mgrwt>
<rscale>  2 0.20788629E+03</rscale>
<asrwt>0</asrwt>
<pdfrwt beam="1">  1       21 0.38371272E-01 0.20848667E+03</pdfrwt>
<pdfrwt beam="2">  1       21 0.29679290E-01 0.20848667E+03</pdfrwt>
<totfact> 0.70772975E+04</totfact>
</mgrwt>
</event>
<event>
12    1  0.1013215E-001  0.2255650E+03  0.7546771E-02  0.1129932E+00
         21   -1    0    0  501  502  0.00000000000E+00  0.00000000000E+00  0.62083825037E+03  0.62083825037E+03  0.00000000000E+00 0. -1.
         21   -1    0    0  502  503 -0.00000000000E+00 -0.00000000000E+00 -0.10184415631E+03  0.10184415631E+03  0.00000000000E+00 0. -1.
         -6    2    1    2    0  503  0.63072950656E+02  0.13212261171E+03  0.98414268146E+02  0.24543305530E+03  0.17063831583E+03 0.  0.
        -24    2    3    3    0    0  0.93931030007E+02  0.14586240412E+03  0.68296001644E+02  0.19993357252E+03  0.72181786094E+02 0.  0.
          6    2    1    2  501    0 -0.63072950656E+02 -0.13212261171E+03  0.42057982591E+03  0.47724935138E+03  0.17159537231E+03 0.  0.
         24    2    5    5    0    0  0.24677972394E+02 -0.27098631710E+02  0.18673428890E+03  0.20625841786E+03  0.79558168177E+02 0.  0.
          5    1    5    5  501    0 -0.87750923050E+02 -0.10502398000E+03  0.23384553701E+03  0.27099093352E+03  0.47000000000E+01 0. -1.
        -11    1    6    6    0    0  0.19018590606E+02 -0.24642901599E+02  0.19414001467E+03  0.19661974643E+03  0.00000000000E+00 0.  1.
         12    1    6    6    0    0  0.56593817876E+01 -0.24557301112E+01 -0.74057257761E+01  0.96386714265E+01  0.00000000000E+00 0. -1.
         -5    1    3    3    0  503 -0.30858079351E+02 -0.13739792411E+02  0.30118266502E+02  0.45499482786E+02  0.47000000000E+01 0.  1.
         11    1    4    4    0    0  0.96599136045E+02  0.92983119829E+02  0.57545600545E+02  0.14590664755E+03  0.00000000000E+00 0. -1.
        -12    1    4    4    0    0 -0.26681060380E+01  0.52879284294E+02  0.10750401099E+02  0.54026924964E+02  0.00000000000E+00 0.  1.
<mgrwt>
<rscale>  2 0.22538294E+03</rscale>
<asrwt>0</asrwt>
<pdfrwt beam="1">  1       21 0.95513575E-01 0.22556496E+03</pdfrwt>
<pdfrwt beam="2">  1       21 0.15668332E-01 0.22556496E+03</pdfrwt>
<totfact> 0.32559132E+04</totfact>
</mgrwt>
</event>
<event>
12    1  0.1013215E-001  0.2131976E+03  0.7546771E-02  0.1139120E+00
         21   -1    0    0  501  502  0.00000000000E+00  0.00000000000E+00  0.13603385028E+04  0.13603385028E+04  0.00000000000E+00 0. -1.
         21   -1    0    0  502  503 -0.00000000000E+00 -0.00000000000E+00 -0.78123787566E+02  0.78123787566E+02  0.00000000000E+00 0. -1.
         -6    2    1    2    0  503  0.85731937731E+02 -0.90437488400E+02  0.96904855179E+02  0.23418746690E+03  0.17298645681E+03 0.  0.
        -24    2    3    3    0    0  0.66075469687E+02  0.13590534620E+02  0.61079179116E+02  0.12232247964E+03  0.81740152788E+02 0.  0.
          6    2    1    2  501    0 -0.85731937731E+02  0.90437488400E+02  0.11853098601E+04  0.12042748235E+04  0.17259629671E+03 0.  0.
         24    2    5    5    0    0 -0.11370815625E+03  0.30979647556E+02  0.69174542199E+03  0.70633321227E+03  0.80657265949E+02 0.  0.
          5    1    5    5  501    0  0.27976218514E+02  0.59457840844E+02  0.49356443807E+03  0.49794161121E+03  0.47000000000E+01 0. -1.
        -13    1    6    6    0    0 -0.76180086228E+01  0.32591484181E+02  0.10956563542E+03  0.11456381349E+03  0.00000000000E+00 0.  1.
         14    1    6    6    0    0 -0.10609014762E+03 -0.16118366245E+01  0.58217978657E+03  0.59176939878E+03  0.00000000000E+00 0. -1.
         -5    1    3    3    0  503  0.19656468044E+02 -0.10402802302E+03  0.35825676063E+02  0.11186498726E+03  0.47000000000E+01 0.  1.
         11    1    4    4    0    0  0.56402597087E+02 -0.42462433582E+01 -0.14527727835E+01  0.56580863281E+02  0.00000000000E+00 0. -1.
        -12    1    4    4    0    0  0.96728725995E+01  0.17836777978E+02  0.62531951899E+02  0.65741616358E+02  0.00000000000E+00 0.  1.
<mgrwt>
<rscale>  2 0.21311845E+03</rscale>
<asrwt>0</asrwt>
<pdfrwt beam="1">  1       21 0.20928283E+00 0.21319760E+03</pdfrwt>
<pdfrwt beam="2">  1       21 0.12019045E-01 0.21319760E+03</pdfrwt>
<totfact> 0.67375565E+03</totfact>
</mgrwt>
</event>
<event>
12    1  0.1013215E-001  0.2027266E+03  0.7546771E-02  0.1149496E+00
         21   -1    0    0  501  502  0.00000000000E+00  0.00000000000E+00  0.25795909546E+03  0.25795909546E+03  0.00000000000E+00 0.  1.
         21   -1    0    0  502  503 -0.00000000000E+00 -0.00000000000E+00 -0.67533862954E+03  0.67533862954E+03  0.00000000000E+00 0. -1.
         -6    2    1    2    0  503  0.49884897540E+02 -0.66014315180E+02 -0.62063651940E+03  0.65290716597E+03  0.18507210852E+03 0.  0.
        -24    2    3    3    0    0  0.92277604980E+02 -0.45054527005E+02 -0.57080359760E+03  0.58404596892E+03  0.68904861896E+02 0.  0.
          6    2    1    2  501    0 -0.49884897540E+02  0.66014315180E+02  0.20325698532E+03  0.28039055903E+03  0.17452527238E+03 0.  0.
         24    2    5    5    0    0  0.32903069755E+02  0.79568216086E+01  0.64787107207E+02  0.10886645800E+03  0.80675977884E+02 0.  0.
          5    1    5    5  501    0 -0.82787967295E+02  0.58057493571E+02  0.13846987812E+03  0.17152410103E+03  0.47000000000E+01 0. -1.
        -11    1    6    6    0    0  0.51284833705E+02  0.23975560163E+02  0.62575865281E+02  0.84384243605E+02  0.00000000000E+00 0.  1.
         12    1    6    6    0    0 -0.18381763949E+02 -0.16018738554E+02  0.22112419263E+01  0.24482214394E+02  0.00000000000E+00 0. -1.
         -5    1    3    3    0  503 -0.42392707440E+02 -0.20959788175E+02 -0.49832921804E+02  0.68861197056E+02  0.47000000000E+01 0.  1.
         11    1    4    4    0    0  0.91508996104E+00  0.12589163666E+02 -0.11136469485E+03  0.11207773950E+03  0.00000000000E+00 0. -1.
        -12    1    4    4    0    0  0.91362515019E+02 -0.57643690671E+02 -0.45943890274E+03  0.47196822942E+03  0.00000000000E+00 0.  1.
<mgrwt>
<rscale>  2 0.20028786E+03</rscale>
<asrwt>0</asrwt>
<pdfrwt beam="1">  1       21 0.39686016E-01 0.20272661E+03</pdfrwt>
<pdfrwt beam="2">  1       21 0.10389825E+00 0.20272661E+03</pdfrwt>
<totfact> 0.45490324E+03</totfact>
</mgrwt>
</event>
<event>
12    1  0.1013215E-001  0.1728680E+03  0.7546771E-02  0.1177104E+00
         21   -1    0    0  503  502  0.00000000000E+00  0.00000000000E+00  0.12216154047E+04  0.12216154047E+04  0.00000000000E+00 0.  1.
         21   -1    0    0  501  503 -0.00000000000E+00 -0.00000000000E+00 -0.37923912771E+02  0.37923912771E+02  0.00000000000E+00 0.  1.
          6    2    1    2  501    0 -0.14183404934E+02  0.24609180915E+00  0.20969727521E+03  0.27176515209E+03  0.17228499970E+03 0.  0.
         24    2    3    3    0    0 -0.72600138407E+02 -0.28565653206E+00  0.10223055612E+03  0.14935607064E+03  0.81149784585E+02 0.  0.
         -6    2    1    2    0  502  0.14183404934E+02 -0.24609180915E+00  0.97399421671E+03  0.98777416538E+03  0.16380426756E+03 0.  0.
        -24    2    5    5    0    0 -0.14028177341E+01 -0.60585308042E+02  0.65237044468E+03  0.66013458888E+03  0.80733703608E+02 0.  0.
          5    1    3    3  501    0  0.58416733473E+02  0.53174834121E+00  0.10746671910E+03  0.12240908144E+03  0.47000000000E+01 0. -1.
        -13    1    4    4    0    0  0.41835276385E+01  0.24832110720E+02  0.10950722728E+02  0.27460042873E+02  0.00000000000E+00 0.  1.
         14    1    4    4    0    0 -0.76783666046E+02 -0.25117767252E+02  0.91279833387E+02  0.12189602777E+03  0.00000000000E+00 0. -1.
         -5    1    5    5    0  502  0.15586222668E+02  0.60339216233E+02  0.32162377204E+03  0.32763957650E+03  0.47000000000E+01 0.  1.
         13    1    6    6    0    0 -0.14118843120E+00 -0.26038613039E+02  0.46623932206E+02  0.53402437749E+02  0.00000000000E+00 0. -1.
        -14    1    6    6    0    0 -0.12616293029E+01 -0.34546695002E+02  0.60574651247E+03  0.60673215113E+03  0.00000000000E+00 0.  1.
<mgrwt>
<rscale>  2 0.17071548E+03</rscale>
<asrwt>0</asrwt>
<pdfrwt beam="1">  1       21 0.18794080E+00 0.17286802E+03</pdfrwt>
<pdfrwt beam="2">  1       21 0.58344490E-02 0.17286802E+03</pdfrwt>
<totfact> 0.33747012E+04</totfact>
</mgrwt>
</event>
<event>
12    1  0.1013215E-001  0.3937323E+03  0.7546771E-02  0.1046024E+00
         21   -1    0    0  501  502  0.00000000000E+00  0.00000000000E+00  0.10224349623E+04  0.10224349623E+04  0.00000000000E+00 0.  1.
         21   -1    0    0  502  503 -0.00000000000E+00 -0.00000000000E+00 -0.15661661919E+03  0.15661661919E+03  0.00000000000E+00 0. -1.
         -6    2    1    2    0  503  0.11139109984E+03  0.33540071825E+03  0.32496543103E+03  0.51006202938E+03  0.17221824389E+03 0.  0.
        -24    2    3    3    0    0  0.13273885464E+03  0.22791108760E+03  0.18006238225E+03  0.32832394621E+03  0.76230471399E+02 0.  0.
          6    2    1    2  501    0 -0.11139109984E+03 -0.33540071825E+03  0.54085291213E+03  0.66898955214E+03  0.17356131306E+03 0.  0.
         24    2    5    5    0    0 -0.53820169761E+02 -0.29374290779E+03  0.35797785603E+03  0.47273675266E+03  0.78424392613E+02 0.  0.
          5    1    5    5  501    0 -0.57570930079E+02 -0.41657810463E+02  0.18287505609E+03  0.19625279948E+03  0.47000000000E+01 0. -1.
        -11    1    6    6    0    0  0.18435002056E+02 -0.34817194079E+02  0.55609606977E+02  0.68150676390E+02  0.00000000000E+00 0.  1.
         12    1    6    6    0    0 -0.72255171817E+02 -0.25892571371E+03  0.30236824906E+03  0.40458607627E+03  0.00000000000E+00 0. -1.
         -5    1    3    3    0  503 -0.21347754798E+02  0.10748963065E+03  0.14490304878E+03  0.18173808318E+03  0.47000000000E+01 0.  1.
         13    1    4    4    0    0  0.11388974420E+03  0.16386097539E+03  0.16717748402E+03  0.26032595770E+03  0.00000000000E+00 0. -1.
        -14    1    4    4    0    0  0.18849110435E+02  0.64050112209E+02  0.12884898230E+02  0.67997988504E+02  0.00000000000E+00 0.  1.
<mgrwt>
<rscale>  2 0.39358470E+03</rscale>
<asrwt>0</asrwt>
<pdfrwt beam="1">  1       21 0.15729768E+00 0.39373233E+03</pdfrwt>
<pdfrwt beam="2">  1       21 0.24094865E-01 0.39373233E+03</pdfrwt>
<totfact> 0.37870725E+03</totfact>
</mgrwt>
</event>
<event>
12    1  0.1013215E-001  0.2107813E+03  0.7546771E-02  0.1141198E+00
         21   -1    0    0  503  502  0.00000000000E+00  0.00000000000E+00  0.50546252567E+03  0.50546252567E+03  0.00000000000E+00 0. -1.
         21   -1    0    0  501  503 -0.00000000000E+00 -0.00000000000E+00 -0.93369939465E+02  0.93369939465E+02  0.00000000000E+00 0. -1.
          6    2    1    2  501    0 -0.19800888361E+02 -0.11886905348E+03  0.12958078080E+03  0.24635316477E+03  0.17139654601E+03 0.  0.
         24    2    3    3    0    0 -0.77632343960E+02 -0.72590164675E+02  0.64331586917E+02  0.14753130429E+03  0.79566449174E+02 0.  0.
         -6    2    1    2    0  502  0.19800888361E+02  0.11886905348E+03  0.28251180540E+03  0.35247930037E+03  0.17293585499E+03 0.  0.
        -24    2    5    5    0    0  0.96750578132E+01 -0.13926028844E+01  0.16471502993E+03  0.18376780477E+03  0.80895110473E+02 0.  0.
          5    1    3    3  501    0  0.57831455599E+02 -0.46278888803E+02  0.65249193885E+02  0.98821860477E+02  0.47000000000E+01 0. -1.
        -13    1    4    4    0    0 -0.34433382212E+01  0.14186471280E+02 -0.31184812961E+01  0.14927741661E+02  0.00000000000E+00 0.  1.
         14    1    4    4    0    0 -0.74189005739E+02 -0.86776635955E+02  0.67450068213E+02  0.13260356263E+03  0.00000000000E+00 0. -1.
         -5    1    5    5    0  502  0.10125830548E+02  0.12026165636E+03  0.11779677548E+03  0.16871149560E+03  0.47000000000E+01 0.  1.
         11    1    6    6    0    0 -0.80371268328E+00  0.34226081351E+02  0.35475669087E+02  0.49301051671E+02  0.00000000000E+00 0. -1.
        -12    1    6    6    0    0  0.10478770496E+02 -0.35618684235E+02  0.12923936084E+03  0.13446675310E+03  0.00000000000E+00 0.  1.
<mgrwt>
<rscale>  2 0.21046527E+03</rscale>
<asrwt>0</asrwt>
<pdfrwt beam="1">  1       21 0.77763464E-01 0.21078125E+03</pdfrwt>
<pdfrwt beam="2">  1       21 0.14364606E-01 0.21078125E+03</pdfrwt>
<totfact> 0.61695111E+04</totfact>
</mgrwt>
</event>
<event>
12    1  0.1013215E-001  0.2269626E+03  0.7546771E-02  0.1128921E+00
         21   -1    0    0  501  502  0.00000000000E+00  0.00000000000E+00  0.17550324960E+03  0.17550324960E+03  0.00000000000E+00 0.  1.
         21   -1    0    0  502  503 -0.00000000000E+00 -0.00000000000E+00 -0.31608297102E+03  0.31608297102E+03  0.00000000000E+00 0. -1.
         -6    2    1    2    0  503  0.91803591919E+01 -0.14646192894E+03 -0.32124625654E+01  0.22629055418E+03  0.17222578021E+03 0.  0.
        -24    2    3    3    0    0 -0.16831548811E+01 -0.22046792466E+02 -0.43295214570E+02  0.95043233706E+02  0.81669128808E+02 0.  0.
          6    2    1    2  501    0 -0.91803591919E+01  0.14646192894E+03 -0.13736725885E+03  0.26529566644E+03  0.17313766547E+03 0.  0.
         24    2    5    5    0    0 -0.46023529954E+02  0.20302520185E+02 -0.51596798116E+02  0.10828522862E+03  0.80827616116E+02 0.  0.
          5    1    5    5  501    0  0.36843170762E+02  0.12615940876E+03 -0.85770460730E+02  0.15701043782E+03  0.47000000000E+01 0. -1.
        -13    1    6    6    0    0 -0.15721114161E+02  0.12893286433E+02  0.21024371382E+02  0.29247469249E+02  0.00000000000E+00 0.  1.
         14    1    6    6    0    0 -0.30302415794E+02  0.74092337515E+01 -0.72621169498E+02  0.79037759374E+02  0.00000000000E+00 0. -1.
         -5    1    3    3    0  503  0.10863514073E+02 -0.12441513648E+03  0.40082752005E+02  0.13124732047E+03  0.47000000000E+01 0.  1.
         11    1    4    4    0    0 -0.28142602658E+02  0.12802050368E+02  0.33369164852E+01  0.31097163691E+02  0.00000000000E+00 0. -1.
        -12    1    4    4    0    0  0.26459447777E+02 -0.34848842835E+02 -0.46632131056E+02  0.63946070015E+02  0.00000000000E+00 0.  1.
<mgrwt>
<rscale>  2 0.22678870E+03</rscale>
<asrwt>0</asrwt>
<pdfrwt beam="1">  1       21 0.27000500E-01 0.22696261E+03</pdfrwt>
<pdfrwt beam="2">  1       21 0.48628149E-01 0.22696261E+03</pdfrwt>
<totfact> 0.51934043E+04</totfact>
</mgrwt>
</event>
<event>
12    1  0.1013215E-001  0.1995275E+03  0.7546771E-02  0.1151628E+00
         21   -1    0    0  503  502  0.00000000000E+00  0.00000000000E+00  0.13784600737E+04  0.13784600737E+04  0.00000000000E+00 0. -1.
         21   -1    0    0  501  503 -0.00000000000E+00 -0.00000000000E+00 -0.29285396348E+02  0.29285396348E+02  0.00000000000E+00 0. -1.
          6    2    1    2  501    0  0.86081243972E+02  0.44312692085E+02  0.83956228178E+03  0.86294613788E+03  0.17446379751E+03 0.  0.
         24    2    3    3    0    0  0.72113525705E+02 -0.40924625443E+01  0.26812378138E+03  0.28927183490E+03  0.81059999316E+02 0.  0.
         -6    2    1    2    0  502 -0.86081243972E+02 -0.44312692085E+02  0.50961239553E+03  0.54479933213E+03  0.16651703627E+03 0.  0.
        -24    2    5    5    0    0 -0.20348450614E+02 -0.42091301777E+02  0.13636977316E+03  0.16577706385E+03  0.81850978855E+02 0.  0.
          5    1    3    3  501    0  0.13967718267E+02  0.48405154629E+02  0.57143850040E+03  0.57367430297E+03  0.47000000000E+01 0. -1.
        -13    1    4    4    0    0 -0.15328838334E+02  0.64397294321E+01  0.77805511793E+02  0.79562183637E+02  0.00000000000E+00 0.  1.
         14    1    4    4    0    0  0.87442364039E+02 -0.10532191976E+02  0.19031826959E+03  0.20970965127E+03  0.00000000000E+00 0. -1.
         -5    1    5    5    0  502 -0.65732793357E+02 -0.22213903078E+01  0.37324262237E+03  0.37902226828E+03  0.47000000000E+01 0.  1.
         13    1    6    6    0    0 -0.40723277119E+02  0.45657917748E+01  0.42806635423E+02  0.59259090358E+02  0.00000000000E+00 0. -1.
        -14    1    6    6    0    0  0.20374826504E+02 -0.46657093552E+02  0.93563137734E+02  0.10651797349E+03  0.00000000000E+00 0.  1.
<mgrwt>
<rscale>  2 0.19777709E+03</rscale>
<asrwt>0</asrwt>
<pdfrwt beam="1">  1       21 0.21207073E+00 0.19952747E+03</pdfrwt>
<pdfrwt beam="2">  1       21 0.45054466E-02 0.19952747E+03</pdfrwt>
<totfact> 0.35953281E+04</totfact>
</mgrwt>
</event>
<event>
12    1  0.1013215E-001  0.2140534E+03  0.7546771E-02  0.1138638E+00
         21   -1    0    0  501  502  0.00000000000E+00  0.00000000000E+00  0.55859052200E+03  0.55859052200E+03  0.00000000000E+00 0. -1.
         21   -1    0    0  502  503 -0.00000000000E+00 -0.00000000000E+00 -0.10909920528E+03  0.10909920528E+03  0.00000000000E+00 0. -1.
         -6    2    1    2    0  503  0.57235391000E+02  0.11160152379E+03  0.56483761426E+02  0.22017011508E+03  0.17191182093E+03 0.  0.
        -24    2    3    3    0    0  0.10502547049E+03  0.72877682001E+02  0.38529728227E+02  0.15592165262E+03  0.80532700260E+02 0.  0.
          6    2    1    2  501    0 -0.57235391000E+02 -0.11160152379E+03  0.39300755529E+03  0.44751961220E+03  0.17345914415E+03 0.  0.
         24    2    5    5    0    0 -0.97208666640E+02 -0.40928595930E+02  0.22076244378E+03  0.25703865794E+03  0.78791752447E+02 0.  0.
          5    1    5    5  501    0  0.39973275640E+02 -0.70672927862E+02  0.17224511150E+03  0.19048095426E+03  0.47000000000E+01 0. -1.
        -13    1    6    6    0    0 -0.86524381928E+01  0.21184049449E+02  0.29838760419E+02  0.37602928890E+02  0.00000000000E+00 0.  1.
         14    1    6    6    0    0 -0.88556228447E+02 -0.62112645379E+02  0.19092368337E+03  0.21943572905E+03  0.00000000000E+00 0. -1.
         -5    1    3    3    0  503 -0.47790079493E+02  0.38723841792E+02  0.17954033199E+02  0.64248462465E+02  0.47000000000E+01 0.  1.
         13    1    4    4    0    0  0.72965763322E+01 -0.52529250960E+01 -0.16845202589E+02  0.19094347292E+02  0.00000000000E+00 0. -1.
        -14    1    4    4    0    0  0.97728894160E+02  0.78130607097E+02  0.55374930816E+02  0.13682730532E+03  0.00000000000E+00 0.  1.
<mgrwt>
<rscale>  2 0.21373974E+03</rscale>
<asrwt>0</asrwt>
<pdfrwt beam="1">  1       21 0.85937001E-01 0.21405342E+03</pdfrwt>
<pdfrwt beam="2">  1       21 0.16784494E-01 0.21405342E+03</pdfrwt>
<totfact> 0.36899891E+04</totfact>
</mgrwt>
</event>
<event>
12    1  0.1013215E-001  0.1821095E+03  0.7546771E-02  0.1165790E+00
         21   -1    0    0  503  502  0.00000000000E+00  0.00000000000E+00  0.35793731167E+03  0.35793731167E+03  0.00000000000E+00 0. -1.
         21   -1    0    0  501  503 -0.00000000000E+00 -0.00000000000E+00 -0.18044423186E+03  0.18044423186E+03  0.00000000000E+00 0. -1.
          6    2    1    2  501    0 -0.25806626702E+02 -0.53428255321E+02 -0.99040880576E+02  0.20729921267E+03  0.17217231804E+03 0.  0.
         24    2    3    3    0    0 -0.10724165416E+02 -0.96106107282E+01  0.16641071812E+02  0.82592072837E+02  0.79606241350E+02 0.  0.
         -6    2    1    2    0  502  0.25806626702E+02  0.53428255321E+02  0.27653396038E+03  0.33108233087E+03  0.17211600193E+03 0.  0.
        -24    2    5    5    0    0 -0.47433229659E+02  0.39864999723E+02  0.20498093821E+03  0.22769005145E+03  0.77372120425E+02 0.  0.
          5    1    3    3  501    0 -0.15082461286E+02 -0.43817644592E+02 -0.11568195239E+03  0.12470713983E+03  0.47000000000E+01 0. -1.
        -11    1    4    4    0    0 -0.34671728015E+02 -0.23869924206E+02  0.29994182327E+02  0.51687067809E+02  0.00000000000E+00 0.  1.
         12    1    4    4    0    0  0.23947562599E+02  0.14259313478E+02 -0.13353110515E+02  0.30905005028E+02  0.00000000000E+00 0. -1.
         -5    1    5    5    0  502  0.73239856362E+02  0.13563255598E+02  0.71553022169E+02  0.10339227942E+03  0.47000000000E+01 0.  1.
         11    1    6    6    0    0  0.13889296844E+02  0.33371551260E+02  0.94294217084E+02  0.10098501065E+03  0.00000000000E+00 0. -1.
        -12    1    6    6    0    0 -0.61322526503E+02  0.64934484631E+01  0.11068672113E+03  0.12670504080E+03  0.00000000000E+00 0.  1.
<mgrwt>
<rscale>  2 0.18209618E+03</rscale>
<asrwt>0</asrwt>
<pdfrwt beam="1">  1       21 0.55067279E-01 0.18210949E+03</pdfrwt>
<pdfrwt beam="2">  1       21 0.27760651E-01 0.18210949E+03</pdfrwt>
<totfact> 0.38744402E+04</totfact>
</mgrwt>
</event>
<event>
12    1  0.1013215E-001  0.1920628E+03  0.7546771E-02  0.1156938E+00
         21   -1    0    0  501  502  0.00000000000E+00  0.00000000000E+00  0.66635955130E+03  0.66635955130E+03  0.00000000000E+00 0. -1.
         21   -1    0    0  502  503 -0.00000000000E+00 -0.00000000000E+00 -0.79234939557E+02  0.79234939557E+02  0.00000000000E+00 0. -1.
         -6    2    1    2    0  503 -0.55869530371E+02  0.61112294402E+02  0.87905243358E+02  0.21122367622E+03  0.17329741093E+03 0.  0.
        -24    2    3    3    0    0 -0.87494981174E+02  0.39889504346E+02  0.11124991306E+03  0.16630553334E+03  0.77681677226E+02 0.  0.
          6    2    1    2  501    0  0.55869530371E+02 -0.61112294402E+02  0.49921936839E+03  0.53437081464E+03  0.17168597151E+03 0.  0.
         24    2    5    5    0    0  0.60543033303E+02 -0.52684270906E+02  0.17740053483E+03  0.21237341583E+03  0.84796383824E+02 0.  0.
          5    1    5    5  501    0 -0.46735029323E+01 -0.84280234964E+01  0.32181883355E+03  0.32199739881E+03  0.47000000000E+01 0. -1.
        -13    1    6    6    0    0  0.43968527646E+02  0.36099390979E+01  0.29008663719E+02  0.52799295965E+02  0.00000000000E+00 0.  1.
         14    1    6    6    0    0  0.16574505657E+02 -0.56294210004E+02  0.14839187111E+03  0.15957411986E+03  0.00000000000E+00 0. -1.
         -5    1    3    3    0  503  0.31625450803E+02  0.21222790056E+02 -0.23344669702E+02  0.44918142879E+02  0.47000000000E+01 0.  1.
         13    1    4    4    0    0 -0.69276738986E+02  0.30967652188E+02  0.28424576603E+02  0.81032207187E+02  0.00000000000E+00 0. -1.
        -14    1    4    4    0    0 -0.18218242188E+02  0.89218521582E+01  0.82825336457E+02  0.85273326155E+02  0.00000000000E+00 0.  1.
<mgrwt>
<rscale>  2 0.19169856E+03</rscale>
<asrwt>0</asrwt>
<pdfrwt beam="1">  1       21 0.10251685E+00 0.19206278E+03</pdfrwt>
<pdfrwt beam="2">  1       21 0.12189991E-01 0.19206278E+03</pdfrwt>
<totfact> 0.44160433E+04</totfact>
</mgrwt>
</event>
<event>
12    1  0.1013215E-001  0.1975989E+03  0.7546771E-02  0.1152012E+00
         21   -1    0    0  501  502  0.00000000000E+00  0.00000000000E+00  0.57348766571E+03  0.57348766571E+03  0.00000000000E+00 0.  1.
         21   -1    0    0  502  503 -0.00000000000E+00 -0.00000000000E+00 -0.26120137521E+03  0.26120137521E+03  0.00000000000E+00 0.  1.
         -6    2    1    2    0  503 -0.94571534999E+02  0.62836728117E+01 -0.20294338466E+03  0.28325137473E+03  0.17338415190E+03 0.  0.
        -24    2    3    3    0    0 -0.29803899870E+02 -0.47043125818E+02 -0.52445688504E+02  0.11088478701E+03  0.80271773456E+02 0.  0.
          6    2    1    2  501    0  0.94571534999E+02 -0.62836728117E+01  0.51522967517E+03  0.55143766619E+03  0.17215871093E+03 0.  0.
         24    2    5    5    0    0 -0.11592013108E+02 -0.29755685271E+02  0.23328212749E+03  0.24921565515E+03  0.81658534115E+02 0.  0.
          5    1    5    5  501    0  0.10616354811E+03  0.23472012459E+02  0.28194754768E+03  0.30222201104E+03  0.47000000000E+01 0. -1.
        -13    1    6    6    0    0  0.18958008502E+02 -0.40357180930E+02  0.19014906861E+03  0.19530687758E+03  0.00000000000E+00 0.  1.
         14    1    6    6    0    0 -0.30550021610E+02  0.10601495659E+02  0.43133058878E+02  0.53908777567E+02  0.00000000000E+00 0. -1.
         -5    1    3    3    0  503 -0.64767635129E+02  0.53326798630E+02 -0.15049769616E+03  0.17236658772E+03  0.47000000000E+01 0.  1.
         13    1    4    4    0    0 -0.43692930241E+02 -0.51646617471E+02 -0.63315637566E+02  0.92656976044E+02  0.00000000000E+00 0. -1.
        -14    1    4    4    0    0  0.13889030370E+02  0.46034916532E+01  0.10869949063E+02  0.18227810967E+02  0.00000000000E+00 0.  1.
<mgrwt>
<rscale>  2 0.19732975E+03</rscale>
<asrwt>0</asrwt>
<pdfrwt beam="1">  1       21 0.88228871E-01 0.19759890E+03</pdfrwt>
<pdfrwt beam="2">  1       21 0.40184827E-01 0.19759890E+03</pdfrwt>
<totfact> 0.65396998E+03</totfact>
</mgrwt>
</event>
<event>
12    1  0.1013215E-001  0.1948582E+03  0.7546771E-02  0.1154240E+00
         21   -1    0    0  501  502  0.00000000000E+00  0.00000000000E+00  0.71405044158E+02  0.71405044158E+02  0.00000000000E+00 0.  1.
         21   -1    0    0  502  503 -0.00000000000E+00 -0.00000000000E+00 -0.55801509843E+03  0.55801509843E+03  0.00000000000E+00 0.  1.
         -6    2    1    2    0  503  0.75526748966E+02  0.47058838835E+02 -0.31324203667E+03  0.36890419579E+03  0.17335197724E+03 0.  0.
        -24    2    3    3    0    0 -0.23123368643E+02  0.23639756793E+02 -0.19329516567E+03  0.21177481926E+03  0.79950138970E+02 0.  0.
          6    2    1    2  501    0 -0.75526748966E+02 -0.47058838835E+02 -0.17336801760E+03  0.26051594679E+03  0.17289668847E+03 0.  0.
         24    2    5    5    0    0 -0.24903046282E+02 -0.43859195374E+02 -0.18282750553E+02  0.97278306997E+02  0.81148131904E+02 0.  0.
          5    1    5    5  501    0 -0.50623702683E+02 -0.31996434610E+01 -0.15508526704E+03  0.16323763979E+03  0.47000000000E+01 0. -1.
        -13    1    6    6    0    0  0.98741466435E+01 -0.54205778808E+02  0.30604935918E+01  0.55182713318E+02  0.00000000000E+00 0.  1.
         14    1    6    6    0    0 -0.34777192926E+02  0.10346583434E+02 -0.21343244145E+02  0.42095593679E+02  0.00000000000E+00 0. -1.
         -5    1    3    3    0  503  0.98650117609E+02  0.23419082041E+02 -0.11994687100E+03  0.15712937654E+03  0.47000000000E+01 0.  1.
         13    1    4    4    0    0  0.12097983994E+02 -0.47658760296E+01 -0.14504714349E+03  0.14562880425E+03  0.00000000000E+00 0. -1.
        -14    1    4    4    0    0 -0.35221352637E+02  0.28405632823E+02 -0.48248022177E+02  0.66146015010E+02  0.00000000000E+00 0.  1.
<mgrwt>
<rscale>  2 0.19475693E+03</rscale>
<asrwt>0</asrwt>
<pdfrwt beam="1">  1       21 0.10985392E-01 0.19485824E+03</pdfrwt>
<pdfrwt beam="2">  1       21 0.85848473E-01 0.19485824E+03</pdfrwt>
<totfact> 0.80387638E+04</totfact>
</mgrwt>
</event>
<event>
12    1  0.1013215E-001  0.1963292E+03  0.7546771E-02  0.1157891E+00
         21   -1    0    0  503  502  0.00000000000E+00  0.00000000000E+00  0.13920019557E+03  0.13920019557E+03  0.00000000000E+00 0. -1.
         21   -1    0    0  501  503 -0.00000000000E+00 -0.00000000000E+00 -0.26392826373E+03  0.26392826373E+03  0.00000000000E+00 0. -1.
          6    2    1    2  501    0 -0.62944721682E+01  0.19425224781E+02 -0.10990094077E+03  0.20624016451E+03  0.17332001885E+03 0.  0.
         24    2    3    3    0    0 -0.67914239815E+01 -0.10246373416E+02  0.91756688603E+01  0.83431452834E+02  0.82009162995E+02 0.  0.
         -6    2    1    2    0  502  0.62944721682E+01 -0.19425224781E+02 -0.14827127393E+02  0.19688829480E+03  0.19526442887E+03 0.  0.
        -24    2    5    5    0    0  0.72146745674E+02 -0.17511719561E+02 -0.49613012617E+02  0.12224024567E+03  0.83483012680E+02 0.  0.
          5    1    3    3  501    0  0.49695181330E+00  0.29671598197E+02 -0.11907660963E+03  0.12280871167E+03  0.47000000000E+01 0. -1.
        -13    1    4    4    0    0 -0.36898196297E+02 -0.26943728788E+02  0.15857134178E+02  0.48362073108E+02  0.00000000000E+00 0.  1.
         14    1    4    4    0    0  0.30106772315E+02  0.16697355371E+02 -0.66814653177E+01  0.35069379727E+02  0.00000000000E+00 0. -1.
         -5    1    5    5    0  502 -0.65852273506E+02 -0.19135052202E+01  0.34785885224E+02  0.74648049130E+02  0.47000000000E+01 0.  1.
         11    1    6    6    0    0  0.19197519579E+02 -0.38729071312E+02  0.46948906935E+01  0.43480199187E+02  0.00000000000E+00 0. -1.
        -12    1    6    6    0    0  0.52949226095E+02  0.21217351752E+02 -0.54307903311E+02  0.78760046479E+02  0.00000000000E+00 0.  1.
<mgrwt>
<rscale>  2 0.19063349E+03</rscale>
<asrwt>0</asrwt>
<pdfrwt beam="1">  1       21 0.21415415E-01 0.19632921E+03</pdfrwt>
<pdfrwt beam="2">  1       21 0.40604348E-01 0.19632921E+03</pdfrwt>
<totfact> 0.11850215E+05</totfact>
</mgrwt>
</event>
<event>
12    1  0.1013215E-001  0.2433484E+03  0.7546771E-02  0.1117767E+00
         21   -1    0    0  503  502  0.00000000000E+00  0.00000000000E+00  0.68004533824E+03  0.68004533824E+03  0.00000000000E+00 0. -1.
         21   -1    0    0  501  503 -0.00000000000E+00 -0.00000000000E+00 -0.14701224740E+03  0.14701224740E+03  0.00000000000E+00 0. -1.
          6    2    1    2  501    0  0.17023558369E+03  0.11943495509E+02  0.12321494351E+01  0.24222369937E+03  0.17189532077E+03 0.  0.
         24    2    3    3    0    0  0.14270317500E+03 -0.45960908570E+02 -0.25786379048E+02  0.17248816738E+03  0.81305776356E+02 0.  0.
         -6    2    1    2    0  502 -0.17023558369E+03 -0.11943495509E+02  0.53180094141E+03  0.58483388627E+03  0.17348092752E+03 0.  0.
        -24    2    5    5    0    0 -0.17569196687E+03  0.11136138122E+02  0.33827365474E+03  0.38980224195E+03  0.80777729231E+02 0.  0.
          5    1    3    3  501    0  0.27532408689E+02  0.57904404079E+02  0.27018528483E+02  0.69735531986E+02  0.47000000000E+01 0. -1.
        -11    1    4    4    0    0  0.11276566889E+03 -0.11562136793E+01 -0.50167517871E-01  0.11277160736E+03  0.00000000000E+00 0.  1.
         12    1    4    4    0    0  0.29937506117E+02 -0.44804694891E+02 -0.25736211530E+02  0.59716560021E+02  0.00000000000E+00 0. -1.
         -5    1    5    5    0  502  0.54563831722E+01 -0.23079633631E+02  0.19352728666E+03  0.19503164433E+03  0.47000000000E+01 0.  1.
         13    1    6    6    0    0 -0.39300421167E+02 -0.17600226698E+02  0.14668290448E+03  0.15287303736E+03  0.00000000000E+00 0. -1.
        -14    1    6    6    0    0 -0.13639154570E+03  0.28736364820E+02  0.19159075026E+03  0.23692920459E+03  0.00000000000E+00 0.  1.
<mgrwt>
<rscale>  2 0.24306593E+03</rscale>
<asrwt>0</asrwt>
<pdfrwt beam="1">  1       21 0.10462236E+00 0.24334838E+03</pdfrwt>
<pdfrwt beam="2">  1       21 0.22617269E-01 0.24334838E+03</pdfrwt>
<totfact> 0.13082911E+04</totfact>
</mgrwt>
</event>
<event>
12    1  0.1013215E-001  0.1735957E+03  0.7546771E-02  0.1176134E+00
         21   -1    0    0  503  502  0.00000000000E+00  0.00000000000E+00  0.45567917672E+03  0.45567917672E+03  0.00000000000E+00 0. -1.
         21   -1    0    0  501  503 -0.00000000000E+00 -0.00000000000E+00 -0.11747738586E+03  0.11747738586E+03  0.00000000000E+00 0. -1.
          6    2    1    2  501    0  0.86995806548E+01  0.11149824227E+02 -0.23519116625E+02  0.17518162659E+03  0.17301864687E+03 0.  0.
         24    2    3    3    0    0  0.61998866681E+02  0.45619262537E+02 -0.21880180179E+02  0.11151270025E+03  0.77661853244E+02 0.  0.
         -6    2    1    2    0  502 -0.86995806548E+01 -0.11149824227E+02  0.36172090748E+03  0.39797493598E+03  0.16535426658E+03 0.  0.
        -24    2    5    5    0    0 -0.10135342357E+01  0.43913888338E+02  0.12759308336E+03  0.15729046249E+03  0.80813599286E+02 0.  0.
          5    1    3    3  501    0 -0.53299286027E+02 -0.34469438310E+02 -0.16389364460E+01  0.63668926338E+02  0.47000000000E+01 0. -1.
        -13    1    4    4    0    0  0.23460078342E+02  0.19971619857E+02  0.29289355095E+02  0.42510083479E+02  0.00000000000E+00 0.  1.
         14    1    4    4    0    0  0.38538788339E+02  0.25647642680E+02 -0.51169535274E+02  0.69002616775E+02  0.00000000000E+00 0. -1.
         -5    1    5    5    0  502 -0.76860464191E+01 -0.55063712565E+02  0.23412782412E+03  0.24068447349E+03  0.47000000000E+01 0.  1.
         13    1    6    6    0    0 -0.19047127118E+01 -0.62622882522E+01  0.99623680634E+02  0.99838479194E+02  0.00000000000E+00 0. -1.
        -14    1    6    6    0    0  0.89117847606E+00  0.50176176590E+02  0.27969402726E+02  0.57451983301E+02  0.00000000000E+00 0.  1.
<mgrwt>
<rscale>  2 0.17165389E+03</rscale>
<asrwt>0</asrwt>
<pdfrwt beam="1">  1       21 0.70104488E-01 0.17359566E+03</pdfrwt>
<pdfrwt beam="2">  1       21 0.18073444E-01 0.17359566E+03</pdfrwt>
<totfact> 0.51935061E+04</totfact>
</mgrwt>
</event>
<event>
12    1  0.1013215E-001  0.2350910E+03  0.7546771E-02  0.1123762E+00
         21   -1    0    0  501  502  0.00000000000E+00  0.00000000000E+00  0.29775541131E+02  0.29775541131E+02  0.00000000000E+00 0.  1.
         21   -1    0    0  502  503 -0.00000000000E+00 -0.00000000000E+00 -0.21029284786E+04  0.21029284786E+04  0.00000000000E+00 0.  1.
         -6    2    1    2    0  503  0.13315734293E+03  0.76373421726E+02 -0.14306614238E+04  0.14498482331E+04  0.17805620400E+03 0.  0.
        -24    2    3    3    0    0  0.26566826208E+02  0.89883534245E+02 -0.61760706648E+03  0.62971193989E+03  0.79459377578E+02 0.  0.
          6    2    1    2  501    0 -0.13315734293E+03 -0.76373421726E+02 -0.64249151367E+03  0.68285578669E+03  0.17301127928E+03 0.  0.
         24    2    5    5    0    0 -0.15615851333E+03 -0.56970394277E+02 -0.42722662608E+03  0.46544697099E+03  0.80543067151E+02 0.  0.
          5    1    5    5  501    0  0.23001170403E+02 -0.19403027449E+02 -0.21526488759E+03  0.21740881570E+03  0.47000000000E+01 0. -1.
        -13    1    6    6    0    0 -0.57300229721E+02 -0.41221456553E+02 -0.94275510313E+02  0.11777264815E+03  0.00000000000E+00 0.  1.
         14    1    6    6    0    0 -0.98858283608E+02 -0.15748937724E+02 -0.33295111576E+03  0.34767432284E+03  0.00000000000E+00 0. -1.
         -5    1    3    3    0  503  0.10659051672E+03 -0.13510112519E+02 -0.81305435734E+03  0.82013629318E+03  0.47000000000E+01 0.  1.
         13    1    4    4    0    0 -0.14191418577E+02 -0.83847582326E+01 -0.80495808983E+02  0.82166147504E+02  0.00000000000E+00 0. -1.
        -14    1    4    4    0    0  0.40758244785E+02  0.98268292478E+02 -0.53711125750E+03  0.54754579238E+03  0.00000000000E+00 0.  1.
<mgrwt>
<rscale>  2 0.23413584E+03</rscale>
<asrwt>0</asrwt>
<pdfrwt beam="1">  1       21 0.45808520E-02 0.23509102E+03</pdfrwt>
<pdfrwt beam="2">  1       21 0.32352749E+00 0.23509102E+03</pdfrwt>
<totfact> 0.74426981E+03</totfact>
</mgrwt>
</event>
<event>
12    1  0.1013215E-001  0.1819623E+03  0.7546771E-02  0.1166297E+00
         21   -1    0    0  501  502  0.00000000000E+00  0.00000000000E+00  0.30104065150E+03  0.30104065150E+03  0.00000000000E+00 0.  1.
         21   -1    0    0  502  503 -0.00000000000E+00 -0.00000000000E+00 -0.12891103458E+03  0.12891103458E+03  0.00000000000E+00 0.  1.
         -6    2    1    2    0  503 -0.45937535647E+02  0.30038565815E+02  0.19626289923E+01  0.18197290606E+03  0.17348692749E+03 0.  0.
        -24    2    3    3    0    0 -0.65102087419E+02 -0.38765199988E+02  0.79447940001E+01  0.11014592971E+03  0.79548623891E+02 0.  0.
          6    2    1    2  501    0  0.45937535647E+02 -0.30038565815E+02  0.17016698793E+03  0.24797878002E+03  0.17182578079E+03 0.  0.
         24    2    5    5    0    0 -0.10048648805E+02 -0.49755980292E+02  0.16265779594E+03  0.18796455465E+03  0.79350376851E+02 0.  0.
          5    1    5    5  501    0  0.55986184452E+02  0.19717414478E+02  0.75091919935E+01  0.60014225377E+02  0.47000000000E+01 0. -1.
        -13    1    6    6    0    0  0.22049232207E+02  0.62181270867E+01  0.79351233261E+02  0.82592081735E+02  0.00000000000E+00 0.  1.
         14    1    6    6    0    0 -0.32097881012E+02 -0.55974107379E+02  0.83306562678E+02  0.10537247291E+03  0.00000000000E+00 0. -1.
         -5    1    3    3    0  503  0.19164551772E+02  0.68803765802E+02 -0.59821650079E+01  0.71826976349E+02  0.47000000000E+01 0.  1.
         11    1    4    4    0    0 -0.79952807839E+01 -0.25082797496E+02  0.36375405341E+02  0.44902576304E+02  0.00000000000E+00 0. -1.
        -12    1    4    4    0    0 -0.57106806635E+02 -0.13682402492E+02 -0.28430611341E+02  0.65243353403E+02  0.00000000000E+00 0.  1.
<mgrwt>
<rscale>  2 0.18156525E+03</rscale>
<asrwt>0</asrwt>
<pdfrwt beam="1">  1       21 0.46313946E-01 0.18196232E+03</pdfrwt>
<pdfrwt beam="2">  1       21 0.19832467E-01 0.18196232E+03</pdfrwt>
<totfact> 0.10513965E+05</totfact>
</mgrwt>
</event>
<event>
12    1  0.1013215E-001  0.2542875E+03  0.7546771E-02  0.1110690E+00
         21   -1    0    0  501  502  0.00000000000E+00  0.00000000000E+00  0.23636942362E+03  0.23636942362E+03  0.00000000000E+00 0.  1.
         21   -1    0    0  502  503 -0.00000000000E+00 -0.00000000000E+00 -0.27413396951E+03  0.27413396951E+03  0.00000000000E+00 0.  1.
         -6    2    1    2    0  503 -0.16816792098E+03  0.78400318155E+02 -0.34515046417E+02  0.25661919910E+03  0.17388233201E+03 0.  0.
        -24    2    3    3    0    0 -0.42729089355E+02  0.56577229137E+02  0.32943119877E+02  0.11245317712E+03  0.80831367452E+02 0.  0.
          6    2    1    2  501    0  0.16816792098E+03 -0.78400318155E+02 -0.32494994784E+01  0.25388419402E+03  0.17326155140E+03 0.  0.
         24    2    5    5    0    0  0.17422082521E+02  0.32497203527E+01 -0.36685947369E+01  0.82381126288E+02  0.80368537000E+02 0.  0.
          5    1    5    5  501    0  0.15074583846E+03 -0.81650038508E+02  0.41909525853E+00  0.17150306773E+03  0.47000000000E+01 0. -1.
        -13    1    6    6    0    0  0.48795284202E+02 -0.61642175766E+01  0.15781955468E+01  0.49208414320E+02  0.00000000000E+00 0.  1.
         14    1    6    6    0    0 -0.31373201681E+02  0.94139379293E+01 -0.52467902837E+01  0.33172711968E+02  0.00000000000E+00 0. -1.
         -5    1    3    3    0  503 -0.12543883162E+03  0.21823089019E+02 -0.67458166294E+02  0.14416602198E+03  0.47000000000E+01 0.  1.
         11    1    4    4    0    0  0.13010028444E+02 -0.12714761591E+02  0.20260114220E+01  0.18303844534E+02  0.00000000000E+00 0. -1.
        -12    1    4    4    0    0 -0.55739117800E+02  0.69291990727E+02  0.30917108455E+02  0.94149332591E+02  0.00000000000E+00 0.  1.
<mgrwt>
<rscale>  2 0.25418140E+03</rscale>
<asrwt>0</asrwt>
<pdfrwt beam="1">  1       21 0.36364527E-01 0.25428748E+03</pdfrwt>
<pdfrwt beam="2">  1       21 0.42174456E-01 0.25428748E+03</pdfrwt>
<totfact> 0.38333949E+04</totfact>
</mgrwt>
</event>
<event>
12    1  0.1013215E-001  0.1886848E+03  0.7546771E-02  0.1159915E+00
         21   -1    0    0  503  502  0.00000000000E+00  0.00000000000E+00  0.56197225498E+02  0.56197225498E+02  0.00000000000E+00 0.  1.
         21   -1    0    0  501  503 -0.00000000000E+00 -0.00000000000E+00 -0.74061755129E+03  0.74061755129E+03  0.00000000000E+00 0. -1.
          6    2    1    2  501    0  0.72983180219E+02 -0.90103793547E+01 -0.49552526602E+03  0.52982542948E+03  0.17251656420E+03 0.  0.
         24    2    3    3    0    0  0.11004272605E+03 -0.18080674377E+02 -0.44777136828E+03  0.46852122947E+03  0.81096435613E+02 0.  0.
         -6    2    1    2    0  502 -0.72983180219E+02  0.90103793547E+01 -0.18889505977E+03  0.26698934731E+03  0.17376488840E+03 0.  0.
        -24    2    5    5    0    0 -0.43652020955E+02  0.37841102061E+02 -0.38778315264E+02  0.11126955263E+03  0.86831490072E+02 0.  0.
          5    1    3    3  501    0 -0.37059545833E+02  0.90702950221E+01 -0.47753897741E+02  0.61304200008E+02  0.47000000000E+01 0. -1.
        -13    1    4    4    0    0  0.95015808867E+02  0.14350186686E+02 -0.25586314581E+03  0.27331279000E+03  0.00000000000E+00 0.  1.
         14    1    4    4    0    0  0.15026917186E+02 -0.32430861063E+02 -0.19190822247E+03  0.19520843947E+03  0.00000000000E+00 0. -1.
         -5    1    5    5    0  502 -0.29331159264E+02 -0.28830722706E+02 -0.15011674451E+03  0.15571979468E+03  0.47000000000E+01 0.  1.
         11    1    6    6    0    0  0.21043407998E+02  0.14880606079E+02  0.93647843775E+01  0.27421827873E+02  0.00000000000E+00 0. -1.
        -12    1    6    6    0    0 -0.64695428953E+02  0.22960495982E+02 -0.48143099642E+02  0.83847724753E+02  0.00000000000E+00 0.  1.
<mgrwt>
<rscale>  2 0.18839693E+03</rscale>
<asrwt>0</asrwt>
<pdfrwt beam="1">  1       21 0.86457271E-02 0.18868484E+03</pdfrwt>
<pdfrwt beam="2">  1       21 0.11394116E+00 0.18868484E+03</pdfrwt>
<totfact> 0.62961548E+04</totfact>
</mgrwt>
</event>
<event>
12    1  0.1013215E-001  0.1866000E+03  0.7546771E-02  0.1162945E+00
         21   -1    0    0  503  502  0.00000000000E+00  0.00000000000E+00  0.55483643505E+02  0.55483643505E+02  0.00000000000E+00 0.  1.
         21   -1    0    0  501  503 -0.00000000000E+00 -0.00000000000E+00 -0.78966405940E+03  0.78966405940E+03  0.00000000000E+00 0.  1.
          6    2    1    2  501    0 -0.57466852659E+02  0.65050107789E+01 -0.56526092179E+03  0.59344676419E+03  0.17121447925E+03 0.  0.
         24    2    3    3    0    0 -0.12322824505E+02 -0.23700332059E+01 -0.52696245415E+03  0.53340001318E+03  0.81661967343E+02 0.  0.
         -6    2    1    2    0  502  0.57466852659E+02 -0.65050107789E+01 -0.16891949410E+03  0.25170093871E+03  0.17741142224E+03 0.  0.
        -24    2    5    5    0    0  0.11487631309E+02  0.62755630189E+02 -0.87228126919E+02  0.13505320125E+03  0.80996211318E+02 0.  0.
          5    1    3    3  501    0 -0.45144028154E+02  0.88750439848E+01 -0.38298467634E+02  0.60046751010E+02  0.47000000000E+01 0. -1.
        -13    1    4    4    0    0 -0.41466868391E+02  0.44621261531E+01 -0.16453797635E+03  0.16974144280E+03  0.00000000000E+00 0.  1.
         14    1    4    4    0    0  0.29144043886E+02 -0.68321593590E+01 -0.36242447780E+03  0.36365857037E+03  0.00000000000E+00 0. -1.
         -5    1    5    5    0  502  0.45979221350E+02 -0.69260640968E+02 -0.81691367184E+02  0.11664773747E+03  0.47000000000E+01 0.  1.
         13    1    6    6    0    0 -0.27812781661E+02  0.17317498341E+02 -0.48873366478E+01  0.33126011411E+02  0.00000000000E+00 0. -1.
        -14    1    6    6    0    0  0.39300412970E+02  0.45438131849E+02 -0.82340790272E+02  0.10192718984E+03  0.00000000000E+00 0.  1.
<mgrwt>
<rscale>  2 0.18511192E+03</rscale>
<asrwt>0</asrwt>
<pdfrwt beam="1">  1       21 0.85359452E-02 0.18660002E+03</pdfrwt>
<pdfrwt beam="2">  1       21 0.12148678E+00 0.18660002E+03</pdfrwt>
<totfact> 0.55059390E+04</totfact>
</mgrwt>
</event>
<event>
12    1  0.1013215E-001  0.1973870E+03  0.7546771E-02  0.1152584E+00
         21   -1    0    0  501  502  0.00000000000E+00  0.00000000000E+00  0.38687068870E+03  0.38687068870E+03  0.00000000000E+00 0. -1.
         21   -1    0    0  502  503 -0.00000000000E+00 -0.00000000000E+00 -0.18543370776E+03  0.18543370776E+03  0.00000000000E+00 0. -1.
         -6    2    1    2    0  503 -0.44257763815E+02  0.78326808636E+02 -0.93965256659E+02  0.21861175833E+03  0.17569232428E+03 0.  0.
        -24    2    3    3    0    0 -0.48165181302E+02  0.12055364022E+03 -0.60162130129E+02  0.16417726026E+03  0.80508546277E+02 0.  0.
          6    2    1    2  501    0  0.44257763815E+02 -0.78326808636E+02  0.29540223760E+03  0.35369263812E+03  0.17245915944E+03 0.  0.
         24    2    5    5    0    0 -0.36730197572E+01 -0.12912908364E+02  0.47616531871E+02  0.92931858238E+02  0.78668684313E+02 0.  0.
          5    1    5    5  501    0  0.47930783572E+02 -0.65413900272E+02  0.24778570573E+03  0.26076077989E+03  0.47000000000E+01 0. -1.
        -13    1    6    6    0    0 -0.40154357950E+02 -0.65747422715E+01  0.35422895849E+02  0.53947949439E+02  0.00000000000E+00 0.  1.
         14    1    6    6    0    0  0.36481338193E+02 -0.63381660924E+01  0.12193636022E+02  0.38983908799E+02  0.00000000000E+00 0. -1.
         -5    1    3    3    0  503  0.39074174872E+01 -0.42226831585E+02 -0.33803126530E+02  0.54434498072E+02  0.47000000000E+01 0.  1.
         11    1    4    4    0    0 -0.33775390811E+02  0.68827341941E+02 -0.76248453586E+02  0.10812865808E+03  0.00000000000E+00 0. -1.
        -12    1    4    4    0    0 -0.14389790491E+02  0.51726298280E+02  0.16086323457E+02  0.56048602182E+02  0.00000000000E+00 0.  1.
<mgrwt>
<rscale>  2 0.19666500E+03</rscale>
<asrwt>0</asrwt>
<pdfrwt beam="1">  1       21 0.59518567E-01 0.19738701E+03</pdfrwt>
<pdfrwt beam="2">  1       21 0.28528263E-01 0.19738701E+03</pdfrwt>
<totfact> 0.30898868E+04</totfact>
</mgrwt>
</event>
<event>
12    1  0.1013215E-001  0.1856512E+03  0.7546771E-02  0.1163427E+00
         21   -1    0    0  501  502  0.00000000000E+00  0.00000000000E+00  0.34800901750E+03  0.34800901750E+03  0.00000000000E+00 0.  1.
         21   -1    0    0  502  503 -0.00000000000E+00 -0.00000000000E+00 -0.97125103466E+02  0.97125103466E+02  0.00000000000E+00 0.  1.
         -6    2    1    2    0  503 -0.26191632827E+01 -0.68916833910E+02  0.13935198434E+03  0.23213216518E+03  0.17236582189E+03 0.  0.
        -24    2    3    3    0    0  0.45022785306E+02  0.58681786629E+01  0.47178805518E+02  0.10414568829E+03  0.80987640921E+02 0.  0.
          6    2    1    2  501    0  0.26191632827E+01  0.68916833910E+02  0.11153192969E+03  0.21300195579E+03  0.16785133844E+03 0.  0.
         24    2    5    5    0    0 -0.38900706521E+02  0.14813582292E+02  0.10533384246E+02  0.91043530063E+02  0.80282407752E+02 0.  0.
          5    1    5    5  501    0  0.41519869804E+02  0.54103251618E+02  0.10099854544E+03  0.12195842573E+03  0.47000000000E+01 0. -1.
        -11    1    6    6    0    0 -0.30863226049E+01  0.17612747078E+01 -0.32993830084E+02  0.33184639510E+02  0.00000000000E+00 0.  1.
         12    1    6    6    0    0 -0.35814383916E+02  0.13052307584E+02  0.43527214330E+02  0.57858890552E+02  0.00000000000E+00 0. -1.
         -5    1    3    3    0  503 -0.47641948589E+02 -0.74785012573E+02  0.92173178826E+02  0.12798647689E+03  0.47000000000E+01 0.  1.
         13    1    4    4    0    0  0.13240853709E+02  0.11941868249E+02 -0.21675784522E+02  0.28067206111E+02  0.00000000000E+00 0. -1.
        -14    1    4    4    0    0  0.31781931597E+02 -0.60736895865E+01  0.68854590040E+02  0.76078482180E+02  0.00000000000E+00 0.  1.
<mgrwt>
<rscale>  2 0.18459632E+03</rscale>
<asrwt>0</asrwt>
<pdfrwt beam="1">  1       21 0.53539848E-01 0.18565120E+03</pdfrwt>
<pdfrwt beam="2">  1       21 0.14942324E-01 0.18565120E+03</pdfrwt>
<totfact> 0.13073805E+05</totfact>
</mgrwt>
</event>
<event>
12    1  0.1013215E-001  0.1777460E+03  0.7546771E-02  0.1170128E+00
         21   -1    0    0  501  502  0.00000000000E+00  0.00000000000E+00  0.11307797152E+04  0.11307797152E+04  0.00000000000E+00 0.  1.
         21   -1    0    0  502  503 -0.00000000000E+00 -0.00000000000E+00 -0.58172369673E+02  0.58172369673E+02  0.00000000000E+00 0.  1.
         -6    2    1    2    0  503  0.18550952911E+02 -0.34104782627E+02  0.10754350062E+03  0.20774804875E+03  0.17345423944E+03 0.  0.
        -24    2    3    3    0    0  0.16821174826E+02  0.49480608270E+02  0.48664057225E+02  0.10538404844E+03  0.77500481826E+02 0.  0.
          6    2    1    2  501    0 -0.18550952911E+02  0.34104782627E+02  0.96506384486E+03  0.98120403608E+03  0.17293311339E+03 0.  0.
         24    2    5    5    0    0  0.52003561028E+02  0.37225222112E+02  0.44712611561E+03  0.45845241441E+03  0.78528755839E+02 0.  0.
          5    1    5    5  501    0 -0.70554513939E+02 -0.31204394847E+01  0.51793772925E+03  0.52275162167E+03  0.47000000000E+01 0. -1.
        -11    1    6    6    0    0 -0.97549721401E+00  0.38546699434E+02  0.29175039427E+03  0.29428743124E+03  0.00000000000E+00 0.  1.
         12    1    6    6    0    0  0.52979058242E+02 -0.13214773217E+01  0.15537572134E+03  0.16416498317E+03  0.00000000000E+00 0. -1.
         -5    1    3    3    0  503  0.17297780856E+01 -0.83585390897E+02  0.58879443393E+02  0.10236400030E+03  0.47000000000E+01 0.  1.
         13    1    4    4    0    0  0.48017991620E+02  0.27868257344E+02  0.28405357522E+02  0.62363704368E+02  0.00000000000E+00 0. -1.
        -14    1    4    4    0    0 -0.31196816794E+02  0.21612350926E+02  0.20258699703E+02  0.43020344075E+02  0.00000000000E+00 0.  1.
<mgrwt>
<rscale>  2 0.17761876E+03</rscale>
<asrwt>0</asrwt>
<pdfrwt beam="1">  1       21 0.17396609E+00 0.17774602E+03</pdfrwt>
<pdfrwt beam="2">  1       21 0.89495962E-02 0.17774602E+03</pdfrwt>
<totfact> 0.19963948E+04</totfact>
</mgrwt>
</event>
<event>
12    1  0.1013215E-001  0.1904387E+03  0.7546771E-02  0.1160092E+00
         21   -1    0    0  503  502  0.00000000000E+00  0.00000000000E+00  0.31540516340E+03  0.31540516340E+03  0.00000000000E+00 0.  1.
         21   -1    0    0  501  503 -0.00000000000E+00 -0.00000000000E+00 -0.11002669906E+03  0.11002669906E+03  0.00000000000E+00 0. -1.
          6    2    1    2  501    0  0.44571383951E+02  0.46535855551E+02  0.89443219897E+02  0.20247925084E+03  0.16983981664E+03 0.  0.
         24    2    3    3    0    0  0.40779522046E+02  0.54774220234E+02  0.12598459262E+03  0.16453704756E+03  0.80852568431E+02 0.  0.
         -6    2    1    2    0  502 -0.44571383951E+02 -0.46535855551E+02  0.11593524444E+03  0.22295261162E+03  0.17920572537E+03 0.  0.
        -24    2    5    5    0    0 -0.58490631531E+02  0.27827390705E+02  0.32950000733E+02  0.11055920203E+03  0.83319367226E+02 0.  0.
          5    1    3    3  501    0  0.37918619051E+01 -0.82383646835E+01 -0.36541372720E+02  0.37942203278E+02  0.47000000000E+01 0. -1.
        -11    1    4    4    0    0 -0.10968726794E+02  0.52480716382E+02  0.71370618030E+02  0.89265355416E+02  0.00000000000E+00 0.  1.
         12    1    4    4    0    0  0.51748248840E+02  0.22935038522E+01  0.54613974587E+02  0.75271692143E+02  0.00000000000E+00 0. -1.
         -5    1    5    5    0  502  0.13919247581E+02 -0.74363246255E+02  0.82985243707E+02  0.11239340959E+03  0.47000000000E+01 0.  1.
         13    1    6    6    0    0  0.57060642718E+01  0.38233982194E+02  0.24701476078E+01  0.38736264573E+02  0.00000000000E+00 0. -1.
        -14    1    6    6    0    0 -0.64196695803E+02 -0.10406591489E+02  0.30479853126E+02  0.71822937458E+02  0.00000000000E+00 0.  1.
<mgrwt>
<rscale>  2 0.18820316E+03</rscale>
<asrwt>0</asrwt>
<pdfrwt beam="1">  1       21 0.48523871E-01 0.19043867E+03</pdfrwt>
<pdfrwt beam="2">  1       21 0.16927185E-01 0.19043867E+03</pdfrwt>
<totfact> 0.12762588E+05</totfact>
</mgrwt>
</event>
<event>
12    1  0.1013215E-001  0.1764334E+03  0.7546771E-02  0.1172186E+00
         21   -1    0    0  503  502  0.00000000000E+00  0.00000000000E+00  0.68938785158E+03  0.68938785158E+03  0.00000000000E+00 0.  1.
         21   -1    0    0  501  503 -0.00000000000E+00 -0.00000000000E+00 -0.45413677465E+02  0.45413677465E+02  0.00000000000E+00 0.  1.
          6    2    1    2  501    0  0.16417078999E+02  0.11272914423E+02  0.26015621101E+03  0.31237405198E+03  0.17175475289E+03 0.  0.
         24    2    3    3    0    0  0.51085901598E+02  0.60032067100E+02  0.16053131235E+03  0.19607017130E+03  0.80371583309E+02 0.  0.
         -6    2    1    2    0  502 -0.16417078999E+02 -0.11272914423E+02  0.38381796310E+03  0.42242747706E+03  0.17530586269E+03 0.  0.
        -24    2    5    5    0    0 -0.46982859989E+02 -0.59931134442E+02  0.30652767223E+03  0.32600254042E+03  0.80742259760E+02 0.  0.
          5    1    3    3  501    0 -0.34668822599E+02 -0.48759152676E+02  0.99624898661E+02  0.11630388069E+03  0.47000000000E+01 0. -1.
        -11    1    4    4    0    0  0.54860001988E+02  0.30933907913E+01  0.88568518429E+02  0.10422845745E+03  0.00000000000E+00 0.  1.
         12    1    4    4    0    0 -0.37741003900E+01  0.56938676309E+02  0.71962793925E+02  0.91841713850E+02  0.00000000000E+00 0. -1.
         -5    1    5    5    0  502  0.30565780990E+02  0.48658220019E+02  0.77290290876E+02  0.96424936643E+02  0.47000000000E+01 0.  1.
         13    1    6    6    0    0 -0.24980078335E+02 -0.27500974523E+02  0.33032136819E+02  0.49713478818E+02  0.00000000000E+00 0. -1.
        -14    1    6    6    0    0 -0.22002781655E+02 -0.32430159919E+02  0.27349553541E+03  0.27628906160E+03  0.00000000000E+00 0.  1.
<mgrwt>
<rscale>  2 0.17554472E+03</rscale>
<asrwt>0</asrwt>
<pdfrwt beam="1">  1       21 0.10605966E+00 0.17643340E+03</pdfrwt>
<pdfrwt beam="2">  1       21 0.69867201E-02 0.17643340E+03</pdfrwt>
<totfact> 0.10895737E+05</totfact>
</mgrwt>
</event>
<event>
12    1  0.1013215E-001  0.1765778E+03  0.7546771E-02  0.1171331E+00
         21   -1    0    0  503  502  0.00000000000E+00  0.00000000000E+00  0.15329486544E+03  0.15329486544E+03  0.00000000000E+00 0.  1.
         21   -1    0    0  501  503 -0.00000000000E+00 -0.00000000000E+00 -0.20824648630E+03  0.20824648630E+03  0.00000000000E+00 0.  1.
          6    2    1    2  501    0  0.44242236997E+01  0.28369985681E+02 -0.57214904464E+02  0.18494903548E+03  0.17351706138E+03 0.  0.
         24    2    3    3    0    0 -0.55730560909E+02  0.48215529000E+02 -0.52181752707E+02  0.12123195522E+03  0.80892638687E+02 0.  0.
         -6    2    1    2    0  502 -0.44242236997E+01 -0.28369985681E+02  0.22632836106E+01  0.17659231626E+03  0.17422770694E+03 0.  0.
        -24    2    5    5    0    0  0.29860375219E+01  0.46283361882E+02 -0.21971026912E+02  0.97614939246E+02  0.83035440224E+02 0.  0.
          5    1    3    3  501    0  0.60154784609E+02 -0.19845543319E+02 -0.50331517573E+01  0.63717080266E+02  0.47000000000E+01 0. -1.
        -13    1    4    4    0    0 -0.19795662215E+02 -0.11780976612E+02 -0.45474170051E+02  0.50976070801E+02  0.00000000000E+00 0.  1.
         14    1    4    4    0    0 -0.35934898694E+02  0.59996505612E+02 -0.67075826558E+01  0.70255884415E+02  0.00000000000E+00 0. -1.
         -5    1    5    5    0  502 -0.74102612216E+01 -0.74653347563E+02  0.24234310523E+02  0.78977377015E+02  0.47000000000E+01 0.  1.
         11    1    6    6    0    0  0.12212507449E+02 -0.22228464751E+02 -0.10892907081E+02  0.27602634078E+02  0.00000000000E+00 0. -1.
        -12    1    6    6    0    0 -0.92264699275E+01  0.68511826633E+02 -0.11078119832E+02  0.70012305168E+02  0.00000000000E+00 0.  1.
<mgrwt>
<rscale>  2 0.17640226E+03</rscale>
<asrwt>0</asrwt>
<pdfrwt beam="1">  1       21 0.23583826E-01 0.17657781E+03</pdfrwt>
<pdfrwt beam="2">  1       21 0.32037921E-01 0.17657781E+03</pdfrwt>
<totfact> 0.15939785E+05</totfact>
</mgrwt>
</event>
<event>
12    1  0.1013215E-001  0.2496106E+03  0.7546771E-02  0.1113675E+00
         21   -1    0    0  503  502  0.00000000000E+00  0.00000000000E+00  0.13796780986E+03  0.13796780986E+03  0.00000000000E+00 0.  1.
         21   -1    0    0  501  503 -0.00000000000E+00 -0.00000000000E+00 -0.84376846885E+03  0.84376846885E+03  0.00000000000E+00 0. -1.
          6    2    1    2  501    0  0.82160993330E+02  0.15909919929E+03 -0.68785905623E+03  0.73148165765E+03  0.17277832677E+03 0.  0.
         24    2    3    3    0    0  0.84744225615E+02  0.37876407724E+02 -0.27056403433E+03  0.29690270788E+03  0.79562021303E+02 0.  0.
         -6    2    1    2    0  502 -0.82160993330E+02 -0.15909919929E+03 -0.17941602769E+02  0.25025462106E+03  0.17390368085E+03 0.  0.
        -24    2    5    5    0    0  0.10361873667E+02 -0.55406732808E+02  0.32857068063E+02  0.10221677630E+03  0.78685500374E+02 0.  0.
          5    1    3    3  501    0 -0.25832322844E+01  0.12122279157E+03 -0.41729502189E+03  0.43457894977E+03  0.47000000000E+01 0. -1.
        -13    1    4    4    0    0  0.57438929837E+02  0.55435576606E+01 -0.64534891718E+02  0.86572015925E+02  0.00000000000E+00 0.  1.
         14    1    4    4    0    0  0.27305295778E+02  0.32332850064E+02 -0.20602914262E+03  0.21033069195E+03  0.00000000000E+00 0. -1.
         -5    1    5    5    0  502 -0.92522866997E+02 -0.10369246648E+03 -0.50798670832E+02  0.14803784476E+03  0.47000000000E+01 0.  1.
         11    1    6    6    0    0  0.75790473266E+01  0.32409669616E+01 -0.20989644293E+02  0.22550188309E+02  0.00000000000E+00 0. -1.
        -12    1    6    6    0    0  0.27828263402E+01 -0.58647699769E+02  0.53846712356E+02  0.79666587991E+02  0.00000000000E+00 0.  1.
<mgrwt>
<rscale>  2 0.24941473E+03</rscale>
<asrwt>0</asrwt>
<pdfrwt beam="1">  1       21 0.21225817E-01 0.24961065E+03</pdfrwt>
<pdfrwt beam="2">  1       21 0.12981053E+00 0.24961065E+03</pdfrwt>
<totfact> 0.86192942E+03</totfact>
</mgrwt>
</event>
<event>
12    1  0.1013215E-001  0.2202809E+03  0.7546771E-02  0.1133824E+00
         21   -1    0    0  501  502  0.00000000000E+00  0.00000000000E+00  0.15359543017E+04  0.15359543017E+04  0.00000000000E+00 0. -1.
         21   -1    0    0  502  503 -0.00000000000E+00 -0.00000000000E+00 -0.89000693726E+02  0.89000693726E+02  0.00000000000E+00 0. -1.
         -6    2    1    2    0  503  0.12721137864E+03  0.45503825906E+02  0.69817512299E+02  0.23031256296E+03  0.17296259308E+03 0.  0.
        -24    2    3    3    0    0  0.92430370842E+02 -0.14744619319E+02 -0.12566905397E+02  0.12238260449E+03  0.77838277978E+02 0.  0.
          6    2    1    2  501    0 -0.12721137864E+03 -0.45503825906E+02  0.13771360957E+04  0.13946424325E+04  0.17398377912E+03 0.  0.
         24    2    5    5    0    0 -0.80842078790E+02 -0.49332759967E+02  0.43453665460E+03  0.45088368733E+03  0.74194557758E+02 0.  0.
          5    1    5    5  501    0 -0.46369299851E+02  0.38289340613E+01  0.94259944107E+03  0.94375874513E+03  0.47000000000E+01 0. -1.
        -13    1    6    6    0    0 -0.94363281076E+02 -0.39922386993E+02  0.39454062346E+03  0.40762793005E+03  0.00000000000E+00 0.  1.
         14    1    6    6    0    0  0.13521202286E+02 -0.94103729743E+01  0.39996031142E+02  0.43255757280E+02  0.00000000000E+00 0. -1.
         -5    1    3    3    0  503  0.34781007799E+02  0.60248445225E+02  0.82384417696E+02  0.10792995847E+03  0.47000000000E+01 0.  1.
         13    1    4    4    0    0  0.74771285738E+02  0.95289818159E+01  0.20108528015E+02  0.78012175744E+02  0.00000000000E+00 0. -1.
        -14    1    4    4    0    0  0.17659085104E+02 -0.24273601135E+02 -0.32675433413E+02  0.44370428750E+02  0.00000000000E+00 0.  1.
<mgrwt>
<rscale>  2 0.22007924E+03</rscale>
<asrwt>0</asrwt>
<pdfrwt beam="1">  1       21 0.23630064E+00 0.22028093E+03</pdfrwt>
<pdfrwt beam="2">  1       21 0.13692416E-01 0.22028093E+03</pdfrwt>
<totfact> 0.36097275E+03</totfact>
</mgrwt>
</event>
<event>
12    1  0.1013215E-001  0.2068396E+03  0.7546771E-02  0.1144263E+00
         21   -1    0    0  501  502  0.00000000000E+00  0.00000000000E+00  0.30162218646E+03  0.30162218646E+03  0.00000000000E+00 0.  1.
         21   -1    0    0  502  503 -0.00000000000E+00 -0.00000000000E+00 -0.15256816855E+03  0.15256816855E+03  0.00000000000E+00 0.  1.
         -6    2    1    2    0  503  0.48738599384E+02 -0.10027866225E+03  0.12585763276E+02  0.20638757078E+03  0.17322288176E+03 0.  0.
        -24    2    3    3    0    0 -0.32800837119E+02 -0.33000654597E+02 -0.19697227381E+02  0.95756239303E+02  0.81340878280E+02 0.  0.
          6    2    1    2  501    0 -0.48738599384E+02  0.10027866225E+03  0.13646825463E+03  0.24780278422E+03  0.17421645781E+03 0.  0.
         24    2    5    5    0    0  0.10136351930E+02 -0.10375916393E+02  0.47465200886E+02  0.94003144286E+02  0.79832578369E+02 0.  0.
          5    1    5    5  501    0 -0.58874951314E+02  0.11065457865E+03  0.89003053747E+02  0.15379963993E+03  0.47000000000E+01 0. -1.
        -13    1    6    6    0    0  0.16125554451E+02  0.30949971237E+02  0.37189183199E+02  0.50999701695E+02  0.00000000000E+00 0.  1.
         14    1    6    6    0    0 -0.59892025213E+01 -0.41325887630E+02  0.10276017688E+02  0.43003442592E+02  0.00000000000E+00 0. -1.
         -5    1    3    3    0  503  0.81539436503E+02 -0.67278007658E+02  0.32282990657E+02  0.11063133148E+03  0.47000000000E+01 0.  1.
         13    1    4    4    0    0  0.16846852927E+02 -0.19658907293E+02  0.18406114587E+02  0.31765927402E+02  0.00000000000E+00 0. -1.
        -14    1    4    4    0    0 -0.49647690046E+02 -0.13341747303E+02 -0.38103341968E+02  0.63990311901E+02  0.00000000000E+00 0.  1.
<mgrwt>
<rscale>  2 0.20663028E+03</rscale>
<asrwt>0</asrwt>
<pdfrwt beam="1">  1       21 0.46403413E-01 0.20683964E+03</pdfrwt>
<pdfrwt beam="2">  1       21 0.23472026E-01 0.20683964E+03</pdfrwt>
<totfact> 0.75501708E+04</totfact>
</mgrwt>
</event>
<event>
12    1  0.1013215E-001  0.2287215E+03  0.7546771E-02  0.1127637E+00
         21   -1    0    0  503  502  0.00000000000E+00  0.00000000000E+00  0.11839288893E+04  0.11839288893E+04  0.00000000000E+00 0. -1.
         21   -1    0    0  501  503 -0.00000000000E+00 -0.00000000000E+00 -0.58029861533E+02  0.58029861533E+02  0.00000000000E+00 0. -1.
          6    2    1    2  501    0 -0.11483341210E+03  0.95876389985E+02  0.25803868499E+03  0.34446497299E+03  0.17231703332E+03 0.  0.
         24    2    3    3    0    0 -0.77380540600E+02  0.27048530536E+02  0.55623828307E+02  0.12736164269E+03  0.80047527668E+02 0.  0.
         -6    2    1    2    0  502  0.11483341210E+03 -0.95876389985E+02  0.86786034274E+03  0.89749377781E+03  0.17301592994E+03 0.  0.
        -24    2    5    5    0    0  0.97403419095E+02 -0.12364576989E+03  0.54489876446E+03  0.57283824626E+03  0.80332374606E+02 0.  0.
          5    1    3    3  501    0 -0.37452871502E+02  0.68827859449E+02  0.20241485668E+03  0.21710333030E+03  0.47000000000E+01 0. -1.
        -11    1    4    4    0    0 -0.10743553327E+02 -0.24760410155E+02  0.13780861458E+01  0.27025931447E+02  0.00000000000E+00 0.  1.
         12    1    4    4    0    0 -0.66636987272E+02  0.51808940691E+02  0.54245742161E+02  0.10033571124E+03  0.00000000000E+00 0. -1.
         -5    1    5    5    0  502  0.17429993007E+02  0.27769379907E+02  0.32296157828E+03  0.32465553154E+03  0.47000000000E+01 0.  1.
         11    1    6    6    0    0  0.81707689751E+02 -0.39166680773E+02  0.29267220467E+03  0.30637753644E+03  0.00000000000E+00 0. -1.
        -12    1    6    6    0    0  0.15695729345E+02 -0.84479089119E+02  0.25222655979E+03  0.26646070982E+03  0.00000000000E+00 0.  1.
<mgrwt>
<rscale>  2 0.22858929E+03</rscale>
<asrwt>0</asrwt>
<pdfrwt beam="1">  1       21 0.18214289E+00 0.22872146E+03</pdfrwt>
<pdfrwt beam="2">  1       21 0.89276719E-02 0.22872146E+03</pdfrwt>
<totfact> 0.16995214E+04</totfact>
</mgrwt>
</event>
<event>
12    1  0.1013215E-001  0.2214739E+03  0.7546771E-02  0.1132882E+00
         21   -1    0    0  503  502  0.00000000000E+00  0.00000000000E+00  0.10587330145E+04  0.10587330145E+04  0.00000000000E+00 0.  1.
         21   -1    0    0  501  503 -0.00000000000E+00 -0.00000000000E+00 -0.83817902573E+02  0.83817902573E+02  0.00000000000E+00 0. -1.
          6    2    1    2  501    0  0.85555548984E+02  0.10788270333E+03  0.10455812692E+03  0.24445740317E+03  0.17282531765E+03 0.  0.
         24    2    3    3    0    0  0.62534260940E+02  0.16600679905E+01  0.24747831871E+02  0.10953149329E+03  0.86437279126E+02 0.  0.
         -6    2    1    2    0  502 -0.85555548984E+02 -0.10788270333E+03  0.87035698497E+03  0.89809351387E+03  0.17347117549E+03 0.  0.
        -24    2    5    5    0    0 -0.47398997209E+02 -0.16561123482E+02  0.64168154756E+03  0.64887453573E+03  0.82231495749E+02 0.  0.
          5    1    3    3  501    0  0.23021288044E+02  0.10622263534E+03  0.79810295046E+02  0.13492590988E+03  0.47000000000E+01 0. -1.
        -13    1    4    4    0    0  0.83890612341E+02  0.33491398225E+01  0.12581799273E+02  0.84894954205E+02  0.00000000000E+00 0.  1.
         14    1    4    4    0    0 -0.21356351401E+02 -0.16890718320E+01  0.12166032598E+02  0.24636539083E+02  0.00000000000E+00 0. -1.
         -5    1    5    5    0  502 -0.38156551775E+02 -0.91321579844E+02  0.22867543741E+03  0.24921897814E+03  0.47000000000E+01 0.  1.
         11    1    6    6    0    0  0.15919417614E+01 -0.19637426404E+02  0.34634844831E+02  0.39846395958E+02  0.00000000000E+00 0. -1.
        -12    1    6    6    0    0 -0.48990938970E+02  0.30763029225E+01  0.60704670273E+03  0.60902813978E+03  0.00000000000E+00 0.  1.
<mgrwt>
<rscale>  2 0.22134739E+03</rscale>
<asrwt>0</asrwt>
<pdfrwt beam="1">  1       21 0.16288199E+00 0.22147388E+03</pdfrwt>
<pdfrwt beam="2">  1       21 0.12895063E-01 0.22147388E+03</pdfrwt>
<totfact> 0.12114115E+04</totfact>
</mgrwt>
</event>
<event>
12    1  0.1013215E-001  0.2013968E+03  0.7546771E-02  0.1149026E+00
         21   -1    0    0  503  502  0.00000000000E+00  0.00000000000E+00  0.29991761420E+03  0.29991761420E+03  0.00000000000E+00 0. -1.
         21   -1    0    0  501  503 -0.00000000000E+00 -0.00000000000E+00 -0.19560718868E+03  0.19560718868E+03  0.00000000000E+00 0.  1.
          6    2    1    2  501    0 -0.10427364371E+03  0.18969561716E+01 -0.86948099550E+02  0.21936417212E+03  0.17229067525E+03 0.  0.
         24    2    3    3    0    0 -0.12811771370E+03 -0.27044365641E+02 -0.95541972684E+02  0.18060743803E+03  0.79656963615E+02 0.  0.
         -6    2    1    2    0  502  0.10427364371E+03 -0.18969561716E+01  0.19125852507E+03  0.27616063076E+03  0.16973001901E+03 0.  0.
        -24    2    5    5    0    0  0.32843268051E+02 -0.26880902588E+01  0.18279579740E+03  0.20407296039E+03  0.84531435156E+02 0.  0.
          5    1    3    3  501    0  0.23844069984E+02  0.28941321813E+02  0.85938731339E+01  0.38756734087E+02  0.47000000000E+01 0. -1.
        -13    1    4    4    0    0 -0.36296081928E+02 -0.31982109251E+02 -0.70147382363E+02  0.85211009429E+02  0.00000000000E+00 0.  1.
         14    1    4    4    0    0 -0.91821631769E+02  0.49377436098E+01 -0.25394590320E+02  0.95396428603E+02  0.00000000000E+00 0. -1.
         -5    1    5    5    0  502  0.71430375660E+02  0.79113408720E+00  0.84627276712E+01  0.72087670373E+02  0.47000000000E+01 0.  1.
         11    1    6    6    0    0 -0.11432237231E+02  0.23378062211E+02  0.18495601085E+02  0.31926745846E+02  0.00000000000E+00 0. -1.
        -12    1    6    6    0    0  0.44275505283E+02 -0.26066152469E+02  0.16430019631E+03  0.17214621454E+03  0.00000000000E+00 0.  1.
<mgrwt>
<rscale>  2 0.20084801E+03</rscale>
<asrwt>0</asrwt>
<pdfrwt beam="1">  1       21 0.46141171E-01 0.20139679E+03</pdfrwt>
<pdfrwt beam="2">  1       21 0.30093414E-01 0.20139679E+03</pdfrwt>
<totfact> 0.47464689E+04</totfact>
</mgrwt>
</event>
<event>
12    1  0.1013215E-001  0.1786032E+03  0.7546771E-02  0.1170594E+00
         21   -1    0    0  503  502  0.00000000000E+00  0.00000000000E+00  0.78663383808E+03  0.78663383808E+03  0.00000000000E+00 0.  1.
         21   -1    0    0  501  503 -0.00000000000E+00 -0.00000000000E+00 -0.15447178688E+03  0.15447178688E+03  0.00000000000E+00 0.  1.
          6    2    1    2  501    0 -0.44829196322E+02 -0.31824586388E+02 -0.91611040620E+02  0.19562149818E+03  0.16386801593E+03 0.  0.
         24    2    3    3    0    0 -0.81778875534E+02 -0.41610572307E+02 -0.35660744156E+02  0.12769823274E+03  0.81338341263E+02 0.  0.
         -6    2    1    2    0  502  0.44829196322E+02  0.31824586388E+02  0.72377309182E+03  0.74548412678E+03  0.16993126167E+03 0.  0.
        -24    2    5    5    0    0  0.90986417342E+02  0.38906594355E+02  0.59413378740E+03  0.60761069519E+03  0.80022174093E+02 0.  0.
          5    1    3    3  501    0  0.36949679211E+02  0.97859859195E+01 -0.55950296464E+02  0.67923265445E+02  0.47000000000E+01 0. -1.
        -11    1    4    4    0    0 -0.52567083879E+02 -0.46003174510E+02 -0.57893612107E+02  0.90726295500E+02  0.00000000000E+00 0.  1.
         12    1    4    4    0    0 -0.29211791655E+02  0.43926022022E+01  0.22232867951E+02  0.36971937238E+02  0.00000000000E+00 0. -1.
         -5    1    5    5    0  502 -0.46157221019E+02 -0.70820079674E+01  0.12963930441E+03  0.13787343159E+03  0.47000000000E+01 0.  1.
         11    1    6    6    0    0  0.12874621778E+02 -0.22472555448E+02  0.84308324288E+02  0.88196741315E+02  0.00000000000E+00 0. -1.
        -12    1    6    6    0    0  0.78111795564E+02  0.61379149803E+02  0.50982546312E+03  0.51941395387E+03  0.00000000000E+00 0.  1.
<mgrwt>
<rscale>  2 0.17714574E+03</rscale>
<asrwt>0</asrwt>
<pdfrwt beam="1">  1       21 0.12102059E+00 0.17860318E+03</pdfrwt>
<pdfrwt beam="2">  1       21 0.23764891E-01 0.17860318E+03</pdfrwt>
<totfact> 0.87174175E+03</totfact>
</mgrwt>
</event>
<event>
12    1  0.1013215E-001  0.1864921E+03  0.7546771E-02  0.1161818E+00
         21   -1    0    0  503  502  0.00000000000E+00  0.00000000000E+00  0.11889546687E+04  0.11889546687E+04  0.00000000000E+00 0.  1.
         21   -1    0    0  501  503 -0.00000000000E+00 -0.00000000000E+00 -0.49804384810E+02  0.49804384810E+02  0.00000000000E+00 0.  1.
          6    2    1    2  501    0 -0.55012048008E+02 -0.40409933833E+02  0.17008774523E+03  0.25191483557E+03  0.17283505179E+03 0.  0.
         24    2    3    3    0    0 -0.96770197686E+02 -0.51435097090E+02  0.88984787459E+02  0.15990898224E+03  0.75116907743E+02 0.  0.
         -6    2    1    2    0  502  0.55012048008E+02  0.40409933833E+02  0.96906253869E+03  0.98684421796E+03  0.17355119836E+03 0.  0.
        -24    2    5    5    0    0  0.67532203626E+02  0.80656800497E+02  0.56282967706E+03  0.57840353385E+03  0.81898013360E+02 0.  0.
          5    1    3    3  501    0  0.41758149678E+02  0.11025163257E+02  0.81102957767E+02  0.92005853335E+02  0.47000000000E+01 0. -1.
        -11    1    4    4    0    0 -0.49542104310E+02 -0.13895994366E+02  0.85110346562E+02  0.99454963932E+02  0.00000000000E+00 0.  1.
         12    1    4    4    0    0 -0.47228093376E+02 -0.37539102723E+02  0.38744408973E+01  0.60454018307E+02  0.00000000000E+00 0. -1.
         -5    1    5    5    0  502 -0.12520155618E+02 -0.40246866664E+02  0.40623286162E+03  0.40844068411E+03  0.47000000000E+01 0.  1.
         13    1    6    6    0    0 -0.12099210385E+02  0.89080262675E+01  0.19579558908E+02  0.24680011162E+02  0.00000000000E+00 0. -1.
        -14    1    6    6    0    0  0.79631414011E+02  0.71748774229E+02  0.54325011816E+03  0.55372352269E+03  0.00000000000E+00 0.  1.
<mgrwt>
<rscale>  2 0.18632532E+03</rscale>
<asrwt>0</asrwt>
<pdfrwt beam="1">  1       21 0.18291608E+00 0.18649211E+03</pdfrwt>
<pdfrwt beam="2">  1       21 0.76622140E-02 0.18649211E+03</pdfrwt>
<totfact> 0.22589183E+04</totfact>
</mgrwt>
</event>
<event>
12    1  0.1013215E-001  0.2082011E+03  0.7546771E-02  0.1143273E+00
         21   -1    0    0  501  502  0.00000000000E+00  0.00000000000E+00  0.19477421538E+03  0.19477421538E+03  0.00000000000E+00 0.  1.
         21   -1    0    0  502  503 -0.00000000000E+00 -0.00000000000E+00 -0.23744938573E+03  0.23744938573E+03  0.00000000000E+00 0. -1.
         -6    2    1    2    0  503  0.58561376996E+02 -0.99457223725E+02  0.35439739545E+02  0.20985082582E+03  0.17163979647E+03 0.  0.
        -24    2    3    3    0    0  0.23223334212E+02  0.95512077704E+01 -0.65807214144E+01  0.87705729548E+02  0.83776131920E+02 0.  0.
          6    2    1    2  501    0 -0.58561376996E+02  0.99457223725E+02 -0.78114909888E+02  0.22237277529E+03  0.17328167189E+03 0.  0.
         24    2    5    5    0    0 -0.78394733694E+02  0.44333349020E+02 -0.10739160860E+03  0.15671290407E+03  0.70105610327E+02 0.  0.
          5    1    5    5  501    0  0.19833356698E+02  0.55123874706E+02  0.29276698709E+02  0.65659871214E+02  0.47000000000E+01 0. -1.
        -11    1    6    6    0    0 -0.44201938216E+02  0.18667714758E+02 -0.81708682238E+01  0.48672969951E+02  0.00000000000E+00 0.  1.
         12    1    6    6    0    0 -0.34192795478E+02  0.25665634261E+02 -0.99220740373E+02  0.10803993412E+03  0.00000000000E+00 0. -1.
         -5    1    3    3    0  503  0.35338042784E+02 -0.10900843150E+03  0.42020460959E+02  0.12214509628E+03  0.47000000000E+01 0.  1.
         13    1    4    4    0    0 -0.18066593683E+01 -0.15284540644E+02 -0.37672347154E+02  0.40695048112E+02  0.00000000000E+00 0. -1.
        -14    1    4    4    0    0  0.25029993580E+02  0.24835748414E+02  0.31091625740E+02  0.47010681436E+02  0.00000000000E+00 0.  1.
<mgrwt>
<rscale>  2 0.20785917E+03</rscale>
<asrwt>0</asrwt>
<pdfrwt beam="1">  1       21 0.29965264E-01 0.20820113E+03</pdfrwt>
<pdfrwt beam="2">  1       21 0.36530675E-01 0.20820113E+03</pdfrwt>
<totfact> 0.76667007E+04</totfact>
</mgrwt>
</event>
<event>
12    1  0.1013215E-001  0.1791078E+03  0.7546771E-02  0.1169343E+00
         21   -1    0    0  501  502  0.00000000000E+00  0.00000000000E+00  0.51281429124E+02  0.51281429124E+02  0.00000000000E+00 0. -1.
         21   -1    0    0  502  503 -0.00000000000E+00 -0.00000000000E+00 -0.91818183075E+03  0.91818183075E+03  0.00000000000E+00 0. -1.
         -6    2    1    2    0  503  0.46517477224E+02 -0.45866288780E+01 -0.70927344147E+03  0.73087182647E+03  0.17005851670E+03 0.  0.
        -24    2    3    3    0    0  0.56952615119E+02 -0.48173529437E+02 -0.63372473147E+03  0.64290360729E+03  0.78445673431E+02 0.  0.
          6    2    1    2  501    0 -0.46517477224E+02  0.45866288780E+01 -0.15762696016E+03  0.23859143341E+03  0.17290084059E+03 0.  0.
         24    2    5    5    0    0 -0.45223978323E+02 -0.51836894994E+02 -0.14664389582E+03  0.18090257064E+03  0.80554552845E+02 0.  0.
          5    1    5    5  501    0 -0.12934989012E+01  0.56423523872E+02 -0.10983064340E+02  0.57688862772E+02  0.47000000000E+01 0. -1.
        -13    1    6    6    0    0 -0.10736040608E+02 -0.40473341604E+02 -0.13710795586E+03  0.14335949745E+03  0.00000000000E+00 0.  1.
         14    1    6    6    0    0 -0.34487937715E+02 -0.11363553390E+02 -0.95359399590E+01  0.37543073188E+02  0.00000000000E+00 0. -1.
         -5    1    3    3    0  503 -0.10435137895E+02  0.43586900559E+02 -0.75548709995E+02  0.87968219176E+02  0.47000000000E+01 0.  1.
         11    1    4    4    0    0  0.45591768717E+02  0.98756932098E+01 -0.21354676498E+03  0.21858261487E+03  0.00000000000E+00 0. -1.
        -12    1    4    4    0    0  0.11360846402E+02 -0.58049222647E+02 -0.42017796649E+03  0.42432099242E+03  0.00000000000E+00 0.  1.
<mgrwt>
<rscale>  2 0.17841829E+03</rscale>
<asrwt>0</asrwt>
<pdfrwt beam="1">  1       21 0.78894508E-02 0.17910783E+03</pdfrwt>
<pdfrwt beam="2">  1       21 0.14125874E+00 0.17910783E+03</pdfrwt>
<totfact> 0.43317147E+04</totfact>
</mgrwt>
</event>
<event>
12    1  0.1013215E-001  0.2584828E+03  0.7546771E-02  0.1108193E+00
         21   -1    0    0  501  502  0.00000000000E+00  0.00000000000E+00  0.40498627689E+03  0.40498627689E+03  0.00000000000E+00 0.  1.
         21   -1    0    0  502  503 -0.00000000000E+00 -0.00000000000E+00 -0.19363456857E+03  0.19363456857E+03  0.00000000000E+00 0.  1.
         -6    2    1    2    0  503 -0.15610944871E+03 -0.11155390895E+03 -0.10757518126E+02  0.25781908218E+03  0.17187355922E+03 0.  0.
        -24    2    3    3    0    0 -0.10755727782E+03 -0.78880132824E+02 -0.73653438184E+02  0.17177911644E+03  0.79325862873E+02 0.  0.
          6    2    1    2  501    0  0.15610944871E+03  0.11155390895E+03  0.22210922644E+03  0.34080176329E+03  0.17320190187E+03 0.  0.
         24    2    5    5    0    0  0.10608296152E+03  0.14832757223E+01  0.11968356359E+03  0.18227321656E+03  0.87427542846E+02 0.  0.
          5    1    5    5  501    0  0.50026487190E+02  0.11007063322E+03  0.10242566285E+03  0.15852854673E+03  0.47000000000E+01 0. -1.
        -13    1    6    6    0    0  0.11073010338E+03  0.21987677180E+02  0.83469613806E+02  0.14039868294E+03  0.00000000000E+00 0.  1.
         14    1    6    6    0    0 -0.46471418578E+01 -0.20504401457E+02  0.36213949788E+02  0.41874533619E+02  0.00000000000E+00 0. -1.
         -5    1    3    3    0  503 -0.48552170892E+02 -0.32673776123E+02  0.62895920058E+02  0.86039965739E+02  0.47000000000E+01 0.  1.
         13    1    4    4    0    0  0.49588047062E+01  0.69922816884E+01  0.49275060010E+01  0.98874699855E+01  0.00000000000E+00 0. -1.
        -14    1    4    4    0    0 -0.11251608253E+03 -0.85872414512E+02 -0.78580944185E+02  0.16189164645E+03  0.00000000000E+00 0.  1.
<mgrwt>
<rscale>  2 0.25826042E+03</rscale>
<asrwt>0</asrwt>
<pdfrwt beam="1">  1       21 0.62305581E-01 0.25848275E+03</pdfrwt>
<pdfrwt beam="2">  1       21 0.29789934E-01 0.25848275E+03</pdfrwt>
<totfact> 0.24951571E+04</totfact>
</mgrwt>
</event>
<event>
12    1  0.1013215E-001  0.2250576E+03  0.7546771E-02  0.1130188E+00
         21   -1    0    0  503  502  0.00000000000E+00  0.00000000000E+00  0.59855500423E+03  0.59855500423E+03  0.00000000000E+00 0.  1.
         21   -1    0    0  501  503 -0.00000000000E+00 -0.00000000000E+00 -0.84579968512E+02  0.84579968512E+02  0.00000000000E+00 0.  1.
          6    2    1    2  501    0 -0.10068696014E+03  0.10220877420E+03  0.25745508795E+03  0.34195618050E+03  0.17339668278E+03 0.  0.
         24    2    3    3    0    0 -0.12151825682E+03  0.11290513330E+03  0.16689591367E+03  0.24830037947E+03  0.79275321376E+02 0.  0.
         -6    2    1    2    0  502  0.10068696014E+03 -0.10220877420E+03  0.25651994777E+03  0.34117879225E+03  0.17325122571E+03 0.  0.
        -24    2    5    5    0    0  0.59162919418E+02 -0.11220290590E+03  0.10343092325E+03  0.18217417579E+03  0.79998320702E+02 0.  0.
          5    1    3    3  501    0  0.20831296679E+02 -0.10696359095E+02  0.90559174281E+02  0.93655801025E+02  0.47000000000E+01 0. -1.
        -13    1    4    4    0    0 -0.62404589337E+02  0.83363874172E+01  0.68360657452E+02  0.92935502435E+02  0.00000000000E+00 0.  1.
         14    1    4    4    0    0 -0.59113667486E+02  0.10456874588E+03  0.98535256220E+02  0.15536487704E+03  0.00000000000E+00 0. -1.
         -5    1    5    5    0  502  0.41524040726E+02  0.99941316963E+01  0.15308902452E+03  0.15900461646E+03  0.47000000000E+01 0.  1.
         11    1    6    6    0    0  0.17248234065E+02 -0.92686434401E+02  0.97386959160E+02  0.13554518256E+03  0.00000000000E+00 0. -1.
        -12    1    6    6    0    0  0.41914685353E+02 -0.19516471496E+02  0.60439640871E+01  0.46628993231E+02  0.00000000000E+00 0.  1.
<mgrwt>
<rscale>  2 0.22502955E+03</rscale>
<asrwt>0</asrwt>
<pdfrwt beam="1">  1       21 0.92085382E-01 0.22505756E+03</pdfrwt>
<pdfrwt beam="2">  1       21 0.13012303E-01 0.22505756E+03</pdfrwt>
<totfact> 0.49758523E+04</totfact>
</mgrwt>
</event>
<event>
10    1  0.1013215E-001  0.2024944E+03  0.7546771E-02  0.1147657E+00
         21   -1    0    0  501  502  0.00000000000E+00  0.00000000000E+00  0.55290766454E+03  0.55290766454E+03  0.00000000000E+00 0. -1.
         21   -1    0    0  502  503 -0.00000000000E+00 -0.00000000000E+00 -0.75230251017E+02  0.75230251017E+02  0.00000000000E+00 0. -1.
         -6    2    1    2    0  503 -0.33740302624E+02 -0.99309820905E+02  0.20124228603E+03  0.28548633551E+03  0.17321414933E+03 0.  0.
          6    2    1    2  501    0  0.33740302624E+02  0.99309820905E+02  0.27643512749E+03  0.34265158004E+03  0.17318451734E+03 0.  0.
          5    1    4    4  501    0  0.29736040683E+02  0.13672432548E+03  0.13883653193E+03  0.19716857227E+03  0.47000000000E+01 0. -1.
        -13    1    4    4    0    0  0.22938642640E+01 -0.12256817933E+02  0.11751131812E+02  0.17134190905E+02  0.00000000000E+00 0.  1.
         14    1    4    4    0    0  0.17103976774E+01 -0.25157686646E+02  0.12584746375E+03  0.12834881687E+03  0.00000000000E+00 0. -1.
         -5    1    3    3    0  503  0.59657924903E+02 -0.66625416655E+02  0.11179595148E+03  0.14324258765E+03  0.47000000000E+01 0.  1.
         13    1    3    3    0    0 -0.88571168155E+02 -0.37918847037E+02  0.63626367994E+02  0.11545997355E+03  0.00000000000E+00 0. -1.
        -14    1    3    3    0    0 -0.48270593719E+01  0.52344427870E+01  0.25819966557E+02  0.26783774314E+02  0.00000000000E+00 0.  1.
<mgrwt>
<rscale>  2 0.20248808E+03</rscale>
<asrwt>0</asrwt>
<pdfrwt beam="1">  1       21 0.85062715E-01 0.20249442E+03</pdfrwt>
<pdfrwt beam="2">  1       21 0.11573885E-01 0.20249442E+03</pdfrwt>
<totfact> 0.74546432E+04</totfact>
</mgrwt>
</event>
<event>
12    1  0.1013215E-001  0.3005812E+03  0.7546771E-02  0.1084989E+00
         21   -1    0    0  503  502  0.00000000000E+00  0.00000000000E+00  0.97956708222E+03  0.97956708222E+03  0.00000000000E+00 0.  1.
         21   -1    0    0  501  503 -0.00000000000E+00 -0.00000000000E+00 -0.92228358141E+02  0.92228358141E+02  0.00000000000E+00 0. -1.
          6    2    1    2  501    0  0.92782549270E+01 -0.24485232524E+03  0.42669930559E+03  0.52176114578E+03  0.17356165669E+03 0.  0.
         24    2    3    3    0    0  0.10260853092E+02 -0.41916252053E+02  0.18571078836E+03  0.20667136376E+03  0.79764016912E+02 0.  0.
         -6    2    1    2    0  502 -0.92782549270E+01  0.24485232524E+03  0.46063941849E+03  0.55003429457E+03  0.17409854724E+03 0.  0.
        -24    2    5    5    0    0  0.47022034978E+01  0.11531905865E+03  0.11752119250E+03  0.18298317092E+03  0.79693250320E+02 0.  0.
          5    1    3    3  501    0 -0.98259816540E+00 -0.20293607318E+03  0.24098851722E+03  0.31508978202E+03  0.47000000000E+01 0. -1.
        -11    1    4    4    0    0  0.40842575432E+02 -0.27078357611E+01  0.81105659763E+02  0.90849195858E+02  0.00000000000E+00 0.  1.
         12    1    4    4    0    0 -0.30581722340E+02 -0.39208416292E+02  0.10460512860E+03  0.11582216791E+03  0.00000000000E+00 0. -1.
         -5    1    5    5    0  502 -0.13980458425E+02  0.12953326659E+03  0.34311822599E+03  0.36705112366E+03  0.47000000000E+01 0.  1.
         13    1    6    6    0    0 -0.23736584173E+02  0.44428646691E+02  0.10425266886E+02  0.51439442694E+02  0.00000000000E+00 0. -1.
        -14    1    6    6    0    0  0.28438787671E+02  0.70890411962E+02  0.10709592561E+03  0.13154372823E+03  0.00000000000E+00 0.  1.
<mgrwt>
<rscale>  2 0.30050350E+03</rscale>
<asrwt>0</asrwt>
<pdfrwt beam="1">  1       21 0.15070262E+00 0.30058119E+03</pdfrwt>
<pdfrwt beam="2">  1       21 0.14188979E-01 0.30058119E+03</pdfrwt>
<totfact> 0.12009077E+04</totfact>
</mgrwt>
</event>
<event>
12    1  0.1013215E-001  0.2460772E+03  0.7546771E-02  0.1115816E+00
         21   -1    0    0  501  502  0.00000000000E+00  0.00000000000E+00  0.43315760156E+03  0.43315760156E+03  0.00000000000E+00 0.  1.
         21   -1    0    0  502  503 -0.00000000000E+00 -0.00000000000E+00 -0.16011378418E+03  0.16011378418E+03  0.00000000000E+00 0.  1.
         -6    2    1    2    0  503 -0.14166913625E+03  0.10271635336E+03  0.30801937378E+02  0.24799745635E+03  0.17301209668E+03 0.  0.
        -24    2    3    3    0    0 -0.62081117190E+02 -0.10367558961E+02  0.39867304261E+02  0.10933781954E+03  0.80023780485E+02 0.  0.
          6    2    1    2  501    0  0.14166913625E+03 -0.10271635336E+03  0.24224188001E+03  0.34527392939E+03  0.17295133556E+03 0.  0.
         24    2    5    5    0    0  0.81764711494E+02 -0.12410819078E+03  0.11842388805E+03  0.20599314843E+03  0.79502508601E+02 0.  0.
          5    1    5    5  501    0  0.59904424753E+02  0.21391837419E+02  0.12381799196E+03  0.13928078096E+03  0.47000000000E+01 0. -1.
        -13    1    6    6    0    0 -0.75477996121E+00 -0.19682822295E+02  0.55270648474E+02  0.58675614774E+02  0.00000000000E+00 0.  1.
         14    1    6    6    0    0  0.82519491455E+02 -0.10442536848E+03  0.63153239577E+02  0.14731753365E+03  0.00000000000E+00 0. -1.
         -5    1    3    3    0  503 -0.79588019057E+02  0.11308391232E+03 -0.90653668828E+01  0.13865963681E+03  0.47000000000E+01 0.  1.
         11    1    4    4    0    0  0.14627511082E+02 -0.55469767226E+01  0.27289495477E+02  0.31455517713E+02  0.00000000000E+00 0. -1.
        -12    1    4    4    0    0 -0.76708628272E+02 -0.48205822383E+01  0.12577808784E+02  0.77882301830E+02  0.00000000000E+00 0.  1.
<mgrwt>
<rscale>  2 0.24606650E+03</rscale>
<asrwt>0</asrwt>
<pdfrwt beam="1">  1       21 0.66639631E-01 0.24607718E+03</pdfrwt>
<pdfrwt beam="2">  1       21 0.24632890E-01 0.24607718E+03</pdfrwt>
<totfact> 0.31307188E+04</totfact>
</mgrwt>
</event>
<event>
12    1  0.1013215E-001  0.1984274E+03  0.7546771E-02  0.1151880E+00
         21   -1    0    0  503  502  0.00000000000E+00  0.00000000000E+00  0.64585007696E+02  0.64585007696E+02  0.00000000000E+00 0.  1.
         21   -1    0    0  501  503 -0.00000000000E+00 -0.00000000000E+00 -0.60034420895E+03  0.60034420895E+03  0.00000000000E+00 0.  1.
          6    2    1    2  501    0 -0.95083979297E+02 -0.10379659613E+02 -0.28531892441E+03  0.34540807233E+03  0.16956163289E+03 0.  0.
         24    2    3    3    0    0 -0.28943870877E+02  0.32984471386E+02 -0.23051730346E+03  0.24907391713E+03  0.83509676001E+02 0.  0.
         -6    2    1    2    0  502  0.95083979297E+02  0.10379659613E+02 -0.25044027684E+03  0.31952114432E+03  0.17385260697E+03 0.  0.
        -24    2    5    5    0    0 -0.12287632988E+02 -0.16808262786E+02 -0.14004213661E+03  0.16306768282E+03  0.80905905411E+02 0.  0.
          5    1    3    3  501    0 -0.66140108420E+02 -0.43364130999E+02 -0.54801620955E+02  0.96334155201E+02  0.47000000000E+01 0. -1.
        -13    1    4    4    0    0 -0.35589887539E+02  0.15643816482E+02 -0.33897764049E+02  0.51579332069E+02  0.00000000000E+00 0.  1.
         14    1    4    4    0    0  0.66460166617E+01  0.17340654904E+02 -0.19661953941E+03  0.19749458506E+03  0.00000000000E+00 0. -1.
         -5    1    5    5    0  502  0.10737161229E+03  0.27187922398E+02 -0.11039814023E+03  0.15645346150E+03  0.47000000000E+01 0.  1.
         13    1    6    6    0    0  0.17330536315E+02 -0.18610700423E+01 -0.12573614724E+03  0.12693852762E+03  0.00000000000E+00 0. -1.
        -14    1    6    6    0    0 -0.29618169303E+02 -0.14947192743E+02 -0.14305989374E+02  0.36129155204E+02  0.00000000000E+00 0.  1.
<mgrwt>
<rscale>  2 0.19748354E+03</rscale>
<asrwt>0</asrwt>
<pdfrwt beam="1">  1       21 0.99361553E-02 0.19842739E+03</pdfrwt>
<pdfrwt beam="2">  1       21 0.92360645E-01 0.19842739E+03</pdfrwt>
<totfact> 0.80980529E+04</totfact>
</mgrwt>
</event>
<event>
12    1  0.1013215E-001  0.1807786E+03  0.7546771E-02  0.1167078E+00
         21   -1    0    0  501  502  0.00000000000E+00  0.00000000000E+00  0.51061671268E+03  0.51061671268E+03  0.00000000000E+00 0.  1.
         21   -1    0    0  502  503 -0.00000000000E+00 -0.00000000000E+00 -0.64402204221E+02  0.64402204221E+02  0.00000000000E+00 0. -1.
         -6    2    1    2    0  503  0.98203608292E+01 -0.50648937308E+02  0.19934374935E+03  0.26903511531E+03  0.17314793828E+03 0.  0.
        -24    2    3    3    0    0  0.11714624519E+02 -0.25130372967E+02  0.20093462169E+02  0.87906595155E+02  0.80963289068E+02 0.  0.
          6    2    1    2  501    0 -0.98203608292E+01  0.50648937308E+02  0.24687075911E+03  0.30598380159E+03  0.17326038437E+03 0.  0.
         24    2    5    5    0    0  0.47360698079E+02  0.68358473879E+02  0.12834924888E+03  0.17312018892E+03  0.81124308628E+02 0.  0.
          5    1    5    5  501    0 -0.57181058908E+02 -0.17709536572E+02  0.11852151023E+03  0.13286361267E+03  0.47000000000E+01 0. -1.
        -11    1    6    6    0    0  0.35847265736E+02  0.88075267255E+01  0.99160915866E+02  0.10580872470E+03  0.00000000000E+00 0.  1.
         12    1    6    6    0    0  0.11513432343E+02  0.59550947154E+02  0.29188333018E+02  0.67311464221E+02  0.00000000000E+00 0. -1.
         -5    1    3    3    0  503 -0.18942636897E+01 -0.25518564341E+02  0.17925028718E+03  0.18112852016E+03  0.47000000000E+01 0.  1.
         13    1    4    4    0    0  0.96933214876E+01  0.24646027513E+02 -0.11545946597E+02  0.28891106529E+02  0.00000000000E+00 0. -1.
        -14    1    4    4    0    0  0.20213030314E+01 -0.49776400480E+02  0.31639408766E+02  0.59015488626E+02  0.00000000000E+00 0.  1.
<mgrwt>
<rscale>  2 0.18075169E+03</rscale>
<asrwt>0</asrwt>
<pdfrwt beam="1">  1       21 0.78556414E-01 0.18077864E+03</pdfrwt>
<pdfrwt beam="2">  1       21 0.99080318E-02 0.18077864E+03</pdfrwt>
<totfact> 0.11871850E+05</totfact>
</mgrwt>
</event>
<event>
12    1  0.1013215E-001  0.1897148E+03  0.7546771E-02  0.1158756E+00
         21   -1    0    0  501  502  0.00000000000E+00  0.00000000000E+00  0.12324098989E+04  0.12324098989E+04  0.00000000000E+00 0.  1.
         21   -1    0    0  502  503 -0.00000000000E+00 -0.00000000000E+00 -0.31146572926E+02  0.31146572926E+02  0.00000000000E+00 0.  1.
         -6    2    1    2    0  503  0.74828865212E+02  0.25351712087E+02  0.44208272131E+03  0.48107052593E+03  0.17248086869E+03 0.  0.
        -24    2    3    3    0    0  0.80792169311E+02 -0.42524397722E+02  0.27757934635E+03  0.30295208878E+03  0.79962338346E+02 0.  0.
          6    2    1    2  501    0 -0.74828865212E+02 -0.25351712087E+02  0.75918060464E+03  0.78248594587E+03  0.17229914873E+03 0.  0.
         24    2    5    5    0    0 -0.25434890328E+02 -0.76717907081E+00  0.68448829407E+03  0.68950640362E+03  0.79040076618E+02 0.  0.
          5    1    5    5  501    0 -0.49393974883E+02 -0.24584533016E+02  0.74692310573E+02  0.92979542250E+02  0.47000000000E+01 0. -1.
        -13    1    6    6    0    0 -0.54197895320E+02  0.10427285371E+01  0.45127319087E+03  0.45451731753E+03  0.00000000000E+00 0.  1.
         14    1    6    6    0    0  0.28763004991E+02 -0.18099076079E+01  0.23321510320E+03  0.23498908609E+03  0.00000000000E+00 0. -1.
         -5    1    3    3    0  503 -0.59633040992E+01  0.67876109809E+02  0.16450337496E+03  0.17811843715E+03  0.47000000000E+01 0.  1.
         11    1    4    4    0    0 -0.83711173327E+01 -0.32513762017E+01  0.99989236190E+02  0.10039170487E+03  0.00000000000E+00 0. -1.
        -12    1    4    4    0    0  0.89163286644E+02 -0.39273021521E+02  0.17759011016E+03  0.20256038391E+03  0.00000000000E+00 0.  1.
<mgrwt>
<rscale>  2 0.18967352E+03</rscale>
<asrwt>0</asrwt>
<pdfrwt beam="1">  1       21 0.18960148E+00 0.18971483E+03</pdfrwt>
<pdfrwt beam="2">  1       21 0.47917814E-02 0.18971483E+03</pdfrwt>
<totfact> 0.45447455E+04</totfact>
</mgrwt>
</event>
<event>
12    1  0.1013215E-001  0.1837299E+03  0.7546771E-02  0.1164515E+00
         21   -1    0    0  501  502  0.00000000000E+00  0.00000000000E+00  0.20030070172E+02  0.20030070172E+02  0.00000000000E+00 0. -1.
         21   -1    0    0  502  503 -0.00000000000E+00 -0.00000000000E+00 -0.16977368189E+04  0.16977368189E+04  0.00000000000E+00 0. -1.
         -6    2    1    2    0  503 -0.14349725540E+02 -0.58632808361E+02 -0.94151070303E+03  0.95927008458E+03  0.17353089176E+03 0.  0.
        -24    2    3    3    0    0 -0.56112630076E+02 -0.82605297194E+02 -0.55169945194E+03  0.56646768909E+03  0.80877037154E+02 0.  0.
          6    2    1    2  501    0  0.14349725540E+02  0.58632808361E+02 -0.73619604571E+03  0.75849680451E+03  0.17230514762E+03 0.  0.
         24    2    5    5    0    0  0.11731164595E+02  0.90531751790E+02 -0.69882510789E+03  0.70906931776E+03  0.78032990856E+02 0.  0.
          5    1    5    5  501    0  0.26185609455E+01 -0.31898943428E+02 -0.37370937813E+02  0.49427486748E+02  0.47000000000E+01 0. -1.
        -11    1    6    6    0    0  0.24390393806E+02  0.53082421644E+02 -0.59681846995E+03  0.59967067701E+03  0.00000000000E+00 0.  1.
         12    1    6    6    0    0 -0.12659229211E+02  0.37449330146E+02 -0.10200663795E+03  0.10939864075E+03  0.00000000000E+00 0. -1.
         -5    1    3    3    0  503  0.41762904536E+02  0.23972488833E+02 -0.38981125109E+03  0.39280239548E+03  0.47000000000E+01 0.  1.
         11    1    4    4    0    0 -0.11635739650E+02 -0.76129355507E+02 -0.25476478431E+03  0.26615064255E+03  0.00000000000E+00 0. -1.
        -12    1    4    4    0    0 -0.44476890426E+02 -0.64759416870E+01 -0.29693466763E+03  0.30031704654E+03  0.00000000000E+00 0.  1.
<mgrwt>
<rscale>  2 0.18343994E+03</rscale>
<asrwt>0</asrwt>
<pdfrwt beam="1">  1       21 0.30815476E-02 0.18372994E+03</pdfrwt>
<pdfrwt beam="2">  1       21 0.26119042E+00 0.18372994E+03</pdfrwt>
<totfact> 0.34877657E+04</totfact>
</mgrwt>
</event>
<event>
12    1  0.1013215E-001  0.1812941E+03  0.7546771E-02  0.1168049E+00
         21   -1    0    0  501  502  0.00000000000E+00  0.00000000000E+00  0.38531554003E+03  0.38531554003E+03  0.00000000000E+00 0.  1.
         21   -1    0    0  502  503 -0.00000000000E+00 -0.00000000000E+00 -0.84689243853E+02  0.84689243853E+02  0.00000000000E+00 0.  1.
         -6    2    1    2    0  503  0.52058985555E+01  0.25462003851E+02  0.18602233908E+03  0.25552494369E+03  0.17324338715E+03 0.  0.
        -24    2    3    3    0    0  0.55858475488E+01  0.60234437463E+02  0.43762015955E+02  0.10900069301E+03  0.79414406043E+02 0.  0.
          6    2    1    2  501    0 -0.52058985555E+01 -0.25462003851E+02  0.11460395710E+03  0.21447984020E+03  0.17942162592E+03 0.  0.
         24    2    5    5    0    0  0.24130608561E+02 -0.62985571740E+02  0.12746394480E+03  0.16492060210E+03  0.80014244080E+02 0.  0.
          5    1    5    5  501    0 -0.29336507117E+02  0.37523567889E+02 -0.12859987704E+02  0.49559238096E+02  0.47000000000E+01 0. -1.
        -13    1    6    6    0    0 -0.19534764592E+02 -0.30679255843E+02  0.13719237053E+02  0.38872113810E+02  0.00000000000E+00 0.  1.
         14    1    6    6    0    0  0.43665373154E+02 -0.32306315898E+02  0.11374470775E+03  0.12604848829E+03  0.00000000000E+00 0. -1.
         -5    1    3    3    0  503 -0.37994899329E+00 -0.34772433612E+02  0.14226032313E+03  0.14652425068E+03  0.47000000000E+01 0.  1.
         11    1    4    4    0    0 -0.18055027889E+02 -0.91711057312E+01  0.27064551426E+02  0.33802117631E+02  0.00000000000E+00 0. -1.
        -12    1    4    4    0    0  0.23640875438E+02  0.69405543194E+02  0.16697464528E+02  0.75198575380E+02  0.00000000000E+00 0.  1.
<mgrwt>
<rscale>  2 0.17974630E+03</rscale>
<asrwt>0</asrwt>
<pdfrwt beam="1">  1       21 0.59279313E-01 0.18129406E+03</pdfrwt>
<pdfrwt beam="2">  1       21 0.13029115E-01 0.18129406E+03</pdfrwt>
<totfact> 0.13515355E+05</totfact>
</mgrwt>
</event>
<event>
12    1  0.1013215E-001  0.1881674E+03  0.7546771E-02  0.1160719E+00
         21   -1    0    0  501  502  0.00000000000E+00  0.00000000000E+00  0.33769746460E+03  0.33769746460E+03  0.00000000000E+00 0. -1.
         21   -1    0    0  502  503 -0.00000000000E+00 -0.00000000000E+00 -0.11480982235E+03  0.11480982235E+03  0.00000000000E+00 0. -1.
         -6    2    1    2    0  503  0.63326093880E+02  0.11101721371E+02  0.40853938063E+02  0.19255130150E+03  0.17684319910E+03 0.  0.
        -24    2    3    3    0    0  0.10340923779E+03  0.33647374556E+02  0.95286214645E+01  0.13670928897E+03  0.82298352284E+02 0.  0.
          6    2    1    2  501    0 -0.63326093880E+02 -0.11101721371E+02  0.18203370419E+03  0.25995598545E+03  0.17409021376E+03 0.  0.
         24    2    5    5    0    0 -0.41009736150E+02  0.53134316584E+02  0.15369227050E+03  0.18613447599E+03  0.80744504986E+02 0.  0.
          5    1    5    5  501    0 -0.22316357730E+02 -0.64236037954E+02  0.28341433695E+02  0.73821509455E+02  0.47000000000E+01 0. -1.
        -11    1    6    6    0    0  0.17289007016E+02  0.41477788292E+02  0.76199032948E+02  0.88462474006E+02  0.00000000000E+00 0.  1.
         12    1    6    6    0    0 -0.58298743165E+02  0.11656528291E+02  0.77493237548E+02  0.97672001987E+02  0.00000000000E+00 0. -1.
         -5    1    3    3    0  503 -0.40083143908E+02 -0.22545653186E+02  0.31325316599E+02  0.55842012528E+02  0.47000000000E+01 0.  1.
         13    1    4    4    0    0  0.17718302385E+02  0.46427645733E+02  0.17958882444E+01  0.49726147471E+02  0.00000000000E+00 0. -1.
        -14    1    4    4    0    0  0.85690935403E+02 -0.12780271177E+02  0.77327332201E+01  0.86983141497E+02  0.00000000000E+00 0.  1.
<mgrwt>
<rscale>  2 0.18751778E+03</rscale>
<asrwt>0</asrwt>
<pdfrwt beam="1">  1       21 0.51953456E-01 0.18816737E+03</pdfrwt>
<pdfrwt beam="2">  1       21 0.17663050E-01 0.18816737E+03</pdfrwt>
<totfact> 0.10242233E+05</totfact>
</mgrwt>
</event>
<event>
12    1  0.1013215E-001  0.1955039E+03  0.7546771E-02  0.1155796E+00
         21   -1    0    0  501  502  0.00000000000E+00  0.00000000000E+00  0.13571097383E+03  0.13571097383E+03  0.00000000000E+00 0. -1.
         21   -1    0    0  502  503 -0.00000000000E+00 -0.00000000000E+00 -0.38791445512E+03  0.38791445512E+03  0.00000000000E+00 0. -1.
         -6    2    1    2    0  503  0.54879611596E+02 -0.40300965191E+02 -0.26962917024E+03  0.32734644070E+03  0.17268428772E+03 0.  0.
        -24    2    3    3    0    0  0.66653187163E+02 -0.86297741790E+02 -0.17603238237E+03  0.22229041165E+03  0.80843551819E+02 0.  0.
          6    2    1    2  501    0 -0.54879611596E+02  0.40300965191E+02  0.17425688955E+02  0.19627898826E+03  0.18326441835E+03 0.  0.
         24    2    5    5    0    0  0.12339727666E+02 -0.38278311843E+02  0.23677868628E+02  0.92575940568E+02  0.79951017960E+02 0.  0.
          5    1    5    5  501    0 -0.67219339262E+02  0.78579277034E+02 -0.62521796732E+01  0.10370304769E+03  0.47000000000E+01 0. -1.
        -11    1    6    6    0    0  0.25176584006E+02 -0.39358758783E+02 -0.17145010504E+02  0.49768701614E+02  0.00000000000E+00 0.  1.
         12    1    6    6    0    0 -0.12836856340E+02  0.10804469397E+01  0.40822879132E+02  0.42807238954E+02  0.00000000000E+00 0. -1.
         -5    1    3    3    0  503 -0.11773575567E+02  0.45996776600E+02 -0.93596787877E+02  0.10505602905E+03  0.47000000000E+01 0.  1.
         13    1    4    4    0    0  0.95241738534E+00 -0.67287096491E+02 -0.90357740746E+02  0.11266313401E+03  0.00000000000E+00 0. -1.
        -14    1    4    4    0    0  0.65700769778E+02 -0.19010645299E+02 -0.85674641621E+02  0.10962727763E+03  0.00000000000E+00 0.  1.
<mgrwt>
<rscale>  2 0.19298538E+03</rscale>
<asrwt>0</asrwt>
<pdfrwt beam="1">  1       21 0.20878612E-01 0.19550393E+03</pdfrwt>
<pdfrwt beam="2">  1       21 0.59679146E-01 0.19550393E+03</pdfrwt>
<totfact> 0.55753240E+04</totfact>
</mgrwt>
</event>
<event>
12    1  0.1013215E-001  0.2332224E+03  0.7546771E-02  0.1124519E+00
         21   -1    0    0  503  502  0.00000000000E+00  0.00000000000E+00  0.62021517626E+02  0.62021517626E+02  0.00000000000E+00 0. -1.
         21   -1    0    0  501  503 -0.00000000000E+00 -0.00000000000E+00 -0.94604383730E+03  0.94604383730E+03  0.00000000000E+00 0.  1.
          6    2    1    2  501    0 -0.15393839876E+03  0.26894210447E+02 -0.58151193198E+03  0.62653715777E+03  0.17312525484E+03 0.  0.
         24    2    3    3    0    0 -0.14405297662E+03  0.75496202706E+02 -0.48421140908E+03  0.51722404338E+03  0.81296283217E+02 0.  0.
         -6    2    1    2    0  502  0.15393839876E+03 -0.26894210447E+02 -0.30251038769E+03  0.38152819715E+03  0.17213628726E+03 0.  0.
        -24    2    5    5    0    0  0.10976630772E+03 -0.78304297574E+02 -0.16302149732E+03  0.22637211051E+03  0.80548857837E+02 0.  0.
          5    1    3    3  501    0 -0.98854221390E+01 -0.48601992259E+02 -0.97300522900E+02  0.10931311440E+03  0.47000000000E+01 0. -1.
        -13    1    4    4    0    0 -0.20854107094E+02  0.89773311629E+00 -0.17355524741E+03  0.17480595988E+03  0.00000000000E+00 0.  1.
         14    1    4    4    0    0 -0.12319886953E+03  0.74598469590E+02 -0.31065616168E+03  0.34241808350E+03  0.00000000000E+00 0. -1.
         -5    1    5    5    0  502  0.44172091039E+02  0.51410087127E+02 -0.13948889037E+03  0.15515608664E+03  0.47000000000E+01 0.  1.
         13    1    6    6    0    0  0.94274001899E+02 -0.32615050613E+02 -0.70909616791E+02  0.12239077871E+03  0.00000000000E+00 0. -1.
        -14    1    6    6    0    0  0.15492305823E+02 -0.45689246961E+02 -0.92111880534E+02  0.10398133180E+03  0.00000000000E+00 0.  1.
<mgrwt>
<rscale>  2 0.23303888E+03</rscale>
<asrwt>0</asrwt>
<pdfrwt beam="1">  1       21 0.95417721E-02 0.23322239E+03</pdfrwt>
<pdfrwt beam="2">  1       21 0.14554520E+00 0.23322239E+03</pdfrwt>
<totfact> 0.27833381E+04</totfact>
</mgrwt>
</event>
<event>
12    1  0.1013215E-001  0.2213938E+03  0.7546771E-02  0.1132972E+00
         21   -1    0    0  501  502  0.00000000000E+00  0.00000000000E+00  0.36651915241E+02  0.36651915241E+02  0.00000000000E+00 0. -1.
         21   -1    0    0  502  503 -0.00000000000E+00 -0.00000000000E+00 -0.15921346049E+04  0.15921346049E+04  0.00000000000E+00 0. -1.
         -6    2    1    2    0  503 -0.50094605910E+02  0.12806761347E+03 -0.11051362952E+04  0.11269627381E+04  0.17264993181E+03 0.  0.
        -24    2    3    3    0    0 -0.61795874112E+02  0.99040266967E+02 -0.10719012096E+04  0.10810697382E+04  0.78178457745E+02 0.  0.
          6    2    1    2  501    0  0.50094605910E+02 -0.12806761347E+03 -0.45034639447E+03  0.50182378205E+03  0.17350634009E+03 0.  0.
         24    2    5    5    0    0  0.86222291795E+02 -0.39931906500E+02 -0.24081903355E+03  0.27161318823E+03  0.82164933770E+02 0.  0.
          5    1    5    5  501    0 -0.36127685885E+02 -0.88135706972E+02 -0.20952736093E+03  0.23021059382E+03  0.47000000000E+01 0. -1.
        -13    1    6    6    0    0 -0.13182018638E+02 -0.16880363960E+02 -0.63678906746E+02  0.67184190604E+02  0.00000000000E+00 0.  1.
         14    1    6    6    0    0  0.99404310433E+02 -0.23051542541E+02 -0.17714012680E+03  0.20442899763E+03  0.00000000000E+00 0. -1.
         -5    1    3    3    0  503  0.11701268202E+02  0.29027346506E+02 -0.33235085625E+02  0.45892999893E+02  0.47000000000E+01 0.  1.
         11    1    4    4    0    0 -0.64397959434E+02  0.77093977520E+02 -0.57724617975E+03  0.58592126654E+03  0.00000000000E+00 0. -1.
        -12    1    4    4    0    0  0.26020853224E+01  0.21946289448E+02 -0.49465502986E+03  0.49514847170E+03  0.00000000000E+00 0.  1.
<mgrwt>
<rscale>  2 0.22122602E+03</rscale>
<asrwt>0</asrwt>
<pdfrwt beam="1">  1       21 0.56387560E-02 0.22139384E+03</pdfrwt>
<pdfrwt beam="2">  1       21 0.24494379E+00 0.22139384E+03</pdfrwt>
<totfact> 0.15236683E+04</totfact>
</mgrwt>
</event>
<event>
12    1  0.1013215E-001  0.2074085E+03  0.7546771E-02  0.1143839E+00
         21   -1    0    0  501  502  0.00000000000E+00  0.00000000000E+00  0.37151260306E+02  0.37151260306E+02  0.00000000000E+00 0. -1.
         21   -1    0    0  502  503 -0.00000000000E+00 -0.00000000000E+00 -0.20610453104E+04  0.20610453104E+04  0.00000000000E+00 0.  1.
         -6    2    1    2    0  503  0.11395679899E+03  0.76859597471E+01 -0.17071851683E+04  0.17196166096E+04  0.17191526678E+03 0.  0.
        -24    2    3    3    0    0  0.12558377859E+02 -0.38127913886E+02 -0.86333662298E+03  0.86845093340E+03  0.85120200070E+02 0.  0.
          6    2    1    2  501    0 -0.11395679899E+03 -0.76859597471E+01 -0.31670888178E+03  0.37857996114E+03  0.17312725138E+03 0.  0.
         24    2    5    5    0    0 -0.13710426255E+03  0.21216991641E+02 -0.25612697129E+03  0.30742208353E+03  0.98283124053E+02 0.  0.
          5    1    5    5  501    0  0.23147463565E+02 -0.28902951388E+02 -0.60581910485E+02  0.71157877614E+02  0.47000000000E+01 0. -1.
        -11    1    6    6    0    0 -0.48544739933E+02 -0.38774060061E+02 -0.10993320597E+03  0.12627481650E+03  0.00000000000E+00 0.  1.
         12    1    6    6    0    0 -0.88559522620E+02  0.59991051702E+02 -0.14619376533E+03  0.18114726703E+03  0.00000000000E+00 0. -1.
         -5    1    3    3    0  503  0.10139842113E+03  0.45813873633E+02 -0.84384854536E+03  0.85116567620E+03  0.47000000000E+01 0.  1.
         13    1    4    4    0    0  0.27957112640E+02 -0.23127959085E+02 -0.81180193685E+03  0.81261238442E+03  0.00000000000E+00 0. -1.
        -14    1    4    4    0    0 -0.15398734781E+02 -0.14999954801E+02 -0.51534686132E+02  0.55838548975E+02  0.00000000000E+00 0.  1.
<mgrwt>
<rscale>  2 0.20715536E+03</rscale>
<asrwt>0</asrwt>
<pdfrwt beam="1">  1       21 0.57155784E-02 0.20740846E+03</pdfrwt>
<pdfrwt beam="2">  1       21 0.31708390E+00 0.20740846E+03</pdfrwt>
<totfact> 0.57317826E+03</totfact>
</mgrwt>
</event>
<event>
12    1  0.1013215E-001  0.2220218E+03  0.7546771E-02  0.1132396E+00
         21   -1    0    0  503  502  0.00000000000E+00  0.00000000000E+00  0.10682445200E+03  0.10682445200E+03  0.00000000000E+00 0. -1.
         21   -1    0    0  501  503 -0.00000000000E+00 -0.00000000000E+00 -0.14796427631E+04  0.14796427631E+04  0.00000000000E+00 0. -1.
          6    2    1    2  501    0 -0.48174531499E+02  0.13072599624E+03 -0.13444402157E+04  0.13626391283E+04  0.17278839311E+03 0.  0.
         24    2    3    3    0    0 -0.72641658470E+02  0.14885216021E+03 -0.98212423674E+03  0.99901548120E+03  0.77653970459E+02 0.  0.
         -6    2    1    2    0  502  0.48174531499E+02 -0.13072599624E+03 -0.28378095422E+02  0.22382808683E+03  0.17286880742E+03 0.  0.
        -24    2    5    5    0    0  0.31040239688E+02 -0.13391196327E+03  0.29503652388E+02  0.16319706283E+03  0.82866793262E+02 0.  0.
          5    1    3    3  501    0  0.24467126970E+02 -0.18126163969E+02 -0.36231597895E+03  0.36362364709E+03  0.47000000000E+01 0. -1.
        -11    1    4    4    0    0  0.28538417018E+01  0.52485577770E+02 -0.17707129634E+03  0.18470821388E+03  0.00000000000E+00 0.  1.
         12    1    4    4    0    0 -0.75495500171E+02  0.96366582441E+02 -0.80505294040E+03  0.81430726732E+03  0.00000000000E+00 0. -1.
         -5    1    5    5    0  502  0.17134291811E+02  0.31859670312E+01 -0.57881747810E+02  0.60631024001E+02  0.47000000000E+01 0.  1.
         11    1    6    6    0    0  0.43650966215E+02 -0.13032101157E+03  0.75730938799E+01  0.13764564890E+03  0.00000000000E+00 0. -1.
        -12    1    6    6    0    0 -0.12610726527E+02 -0.35909516985E+01  0.21930558509E+02  0.25551413936E+02  0.00000000000E+00 0.  1.
<mgrwt>
<rscale>  2 0.22200618E+03</rscale>
<asrwt>0</asrwt>
<pdfrwt beam="1">  1       21 0.16434530E-01 0.22202184E+03</pdfrwt>
<pdfrwt beam="2">  1       21 0.22763736E+00 0.22202184E+03</pdfrwt>
<totfact> 0.29136901E+03</totfact>
</mgrwt>
</event>
<event>
12    1  0.1013215E-001  0.1755499E+03  0.7546771E-02  0.1172501E+00
         21   -1    0    0  501  502  0.00000000000E+00  0.00000000000E+00  0.19110258425E+03  0.19110258425E+03  0.00000000000E+00 0.  1.
         21   -1    0    0  502  503 -0.00000000000E+00 -0.00000000000E+00 -0.17102494582E+03  0.17102494582E+03  0.00000000000E+00 0.  1.
         -6    2    1    2    0  503  0.39594242276E+01 -0.16498742652E+02 -0.35770939479E+02  0.17790802221E+03  0.17344687575E+03 0.  0.
        -24    2    3    3    0    0  0.31848222932E+02  0.46604006926E+02 -0.44098606819E+02  0.10825759406E+03  0.81171280535E+02 0.  0.
          6    2    1    2  501    0 -0.39594242276E+01  0.16498742652E+02  0.55848577913E+02  0.18421950787E+03  0.17472801113E+03 0.  0.
         24    2    5    5    0    0 -0.44215269054E+02 -0.44469465456E+02  0.32720051673E+02  0.10744272642E+03  0.80875300954E+02 0.  0.
          5    1    5    5  501    0  0.40255844826E+02  0.60968208108E+02  0.23128526240E+02  0.76776781442E+02  0.47000000000E+01 0. -1.
        -11    1    6    6    0    0 -0.55969524182E+02 -0.29826331186E+02  0.50889594192E+02  0.81313888520E+02  0.00000000000E+00 0.  1.
         12    1    6    6    0    0  0.11754255128E+02 -0.14643134271E+02 -0.18169542519E+02  0.26128837904E+02  0.00000000000E+00 0. -1.
         -5    1    3    3    0  503 -0.27888798704E+02 -0.63102749578E+02  0.83276673404E+01  0.69650428145E+02  0.47000000000E+01 0.  1.
         13    1    4    4    0    0  0.55237686533E+02  0.11161461869E+02 -0.26850372571E+02  0.62423735484E+02  0.00000000000E+00 0. -1.
        -14    1    4    4    0    0 -0.23389463601E+02  0.35442545057E+02 -0.17248234249E+02  0.45833858580E+02  0.00000000000E+00 0.  1.
<mgrwt>
<rscale>  2 0.17523024E+03</rscale>
<asrwt>0</asrwt>
<pdfrwt beam="1">  1       21 0.29400398E-01 0.17554989E+03</pdfrwt>
<pdfrwt beam="2">  1       21 0.26311530E-01 0.17554989E+03</pdfrwt>
<totfact> 0.15306055E+05</totfact>
</mgrwt>
</event>
<event>
12    1  0.1013215E-001  0.1784448E+03  0.7546771E-02  0.1169752E+00
         21   -1    0    0  503  502  0.00000000000E+00  0.00000000000E+00  0.28815784088E+04  0.28815784088E+04  0.00000000000E+00 0.  1.
         21   -1    0    0  501  503 -0.00000000000E+00 -0.00000000000E+00 -0.11283941917E+02  0.11283941917E+02  0.00000000000E+00 0. -1.
          6    2    1    2  501    0  0.15534005822E+02 -0.37987775088E+02  0.16803369285E+04  0.16895995007E+04  0.17184266882E+03 0.  0.
         24    2    3    3    0    0  0.43858903892E+00 -0.50867573176E+02  0.35272662359E+03  0.36183258866E+03  0.62602307171E+02 0.  0.
         -6    2    1    2    0  502 -0.15534005822E+02  0.37987775088E+02  0.11899575384E+04  0.12032628501E+04  0.17366106896E+03 0.  0.
        -24    2    5    5    0    0 -0.58318868553E+02 -0.19357143615E+02  0.53192876680E+03  0.54133918500E+03  0.79524278247E+02 0.  0.
          5    1    3    3  501    0  0.15095416784E+02  0.12879798088E+02  0.13276103049E+04  0.13277669120E+04  0.47000000000E+01 0. -1.
        -11    1    4    4    0    0 -0.11844881232E+02 -0.27999105584E+02  0.31238430571E+03  0.31386016883E+03  0.00000000000E+00 0.  1.
         12    1    4    4    0    0  0.12283470271E+02 -0.22868467592E+02  0.40342317879E+02  0.47972419824E+02  0.00000000000E+00 0. -1.
         -5    1    5    5    0  502  0.42784862730E+02  0.57344918703E+02  0.65802877158E+03  0.66192366509E+03  0.47000000000E+01 0.  1.
         13    1    6    6    0    0 -0.37502444714E+02  0.23828774096E+02  0.15087937260E+03  0.15728581917E+03  0.00000000000E+00 0. -1.
        -14    1    6    6    0    0 -0.20816423839E+02 -0.43185917711E+02  0.38104939420E+03  0.38405336583E+03  0.00000000000E+00 0.  1.
<mgrwt>
<rscale>  2 0.17800085E+03</rscale>
<asrwt>0</asrwt>
<pdfrwt beam="1">  1       21 0.44331917E+00 0.17844479E+03</pdfrwt>
<pdfrwt beam="2">  1       21 0.17359934E-02 0.17844479E+03</pdfrwt>
<totfact> 0.72808063E+03</totfact>
</mgrwt>
</event>
<event>
12    1  0.1013215E-001  0.2416206E+03  0.7546771E-02  0.1118737E+00
         21   -1    0    0  501  502  0.00000000000E+00  0.00000000000E+00  0.47954408951E+03  0.47954408951E+03  0.00000000000E+00 0.  1.
         21   -1    0    0  502  503 -0.00000000000E+00 -0.00000000000E+00 -0.55210483844E+03  0.55210483844E+03  0.00000000000E+00 0. -1.
         -6    2    1    2    0  503 -0.16105813218E+03 -0.47616241551E+02 -0.49172557325E+03  0.54783111513E+03  0.17354498815E+03 0.  0.
        -24    2    3    3    0    0 -0.43762369182E+02  0.28405653927E+02 -0.25012966241E+03  0.26867470960E+03  0.83061576150E+02 0.  0.
          6    2    1    2  501    0  0.16105813218E+03  0.47616241551E+02  0.41916482432E+03  0.48381781282E+03  0.17370520331E+03 0.  0.
         24    2    5    5    0    0  0.16615882694E+03  0.80264094002E+02  0.39191583320E+03  0.44073072805E+03  0.81206365423E+02 0.  0.
          5    1    5    5  501    0 -0.51006947584E+01 -0.32647852451E+02  0.27248991125E+02  0.43087084771E+02  0.47000000000E+01 0. -1.
        -13    1    6    6    0    0 -0.40557982625E+01  0.12751170515E+02  0.85546273091E+01  0.15881545814E+02  0.00000000000E+00 0.  1.
         14    1    6    6    0    0  0.17021462520E+03  0.67512923486E+02  0.38336120589E+03  0.42484918224E+03  0.00000000000E+00 0. -1.
         -5    1    3    3    0  503 -0.11729576300E+03 -0.76021895477E+02 -0.24159591084E+03  0.27915640552E+03  0.47000000000E+01 0.  1.
         11    1    4    4    0    0 -0.52992352412E+02 -0.11871848838E+02 -0.11156756833E+03  0.12408244240E+03  0.00000000000E+00 0. -1.
        -12    1    4    4    0    0  0.92299832299E+01  0.40277502765E+02 -0.13856209408E+03  0.14459226721E+03  0.00000000000E+00 0.  1.
<mgrwt>
<rscale>  2 0.24159183E+03</rscale>
<asrwt>0</asrwt>
<pdfrwt beam="1">  1       21 0.73776014E-01 0.24162062E+03</pdfrwt>
<pdfrwt beam="2">  1       21 0.84939206E-01 0.24162062E+03</pdfrwt>
<totfact> 0.19003659E+03</totfact>
</mgrwt>
</event>
<event>
12    1  0.1013215E-001  0.1904315E+03  0.7546771E-02  0.1158219E+00
         21   -1    0    0  501  502  0.00000000000E+00  0.00000000000E+00  0.12966844685E+04  0.12966844685E+04  0.00000000000E+00 0. -1.
         21   -1    0    0  502  503 -0.00000000000E+00 -0.00000000000E+00 -0.28548734882E+02  0.28548734882E+02  0.00000000000E+00 0.  1.
         -6    2    1    2    0  503 -0.53562997732E+02  0.58668385335E+02  0.53096915058E+03  0.56386684370E+03  0.17235603962E+03 0.  0.
        -24    2    3    3    0    0 -0.76933010239E+02  0.65592223936E+02  0.52145571675E+03  0.53728315606E+03  0.80846133790E+02 0.  0.
          6    2    1    2  501    0  0.53562997732E+02 -0.58668385335E+02  0.73716658304E+03  0.76136635969E+03  0.17306989439E+03 0.  0.
         24    2    5    5    0    0  0.36841203810E+02  0.25088712949E+02  0.24151413569E+03  0.25838692823E+03  0.80299496416E+02 0.  0.
          5    1    5    5  501    0  0.16721793923E+02 -0.83757098284E+02  0.49565244735E+03  0.50297943146E+03  0.47000000000E+01 0. -1.
        -11    1    6    6    0    0  0.27265294999E+02 -0.66011223589E+01  0.20097530099E+02  0.34509155943E+02  0.00000000000E+00 0.  1.
         12    1    6    6    0    0  0.95759088103E+01  0.31689835308E+02  0.22141660559E+03  0.22387777228E+03  0.00000000000E+00 0. -1.
         -5    1    3    3    0  503  0.23370012507E+02 -0.69238386010E+01  0.95134338363E+01  0.26583687647E+02  0.47000000000E+01 0.  1.
         13    1    4    4    0    0 -0.91991448958E+02  0.54185692938E+02  0.38511510946E+03  0.39964004246E+03  0.00000000000E+00 0. -1.
        -14    1    4    4    0    0  0.15058438719E+02  0.11406530998E+02  0.13634060729E+03  0.13764311360E+03  0.00000000000E+00 0.  1.
<mgrwt>
<rscale>  2 0.19026917E+03</rscale>
<asrwt>0</asrwt>
<pdfrwt beam="1">  1       21 0.19948987E+00 0.19043152E+03</pdfrwt>
<pdfrwt beam="2">  1       21 0.43921141E-02 0.19043152E+03</pdfrwt>
<totfact> 0.45370008E+04</totfact>
</mgrwt>
</event>
<event>
12    1  0.1013215E-001  0.2125465E+03  0.7546771E-02  0.1139740E+00
         21   -1    0    0  501  502  0.00000000000E+00  0.00000000000E+00  0.48158133519E+03  0.48158133519E+03  0.00000000000E+00 0.  1.
         21   -1    0    0  502  503 -0.00000000000E+00 -0.00000000000E+00 -0.99385481068E+02  0.99385481068E+02  0.00000000000E+00 0.  1.
         -6    2    1    2    0  503  0.11991085098E+03  0.22735198992E+02  0.26192318597E+03  0.33675069585E+03  0.17292129525E+03 0.  0.
        -24    2    3    3    0    0  0.49228171228E+02  0.80940784253E+02  0.14784681756E+03  0.19039688072E+03  0.73603446441E+02 0.  0.
          6    2    1    2  501    0 -0.11991085098E+03 -0.22735198992E+02  0.12027266815E+03  0.24421612041E+03  0.17401292282E+03 0.  0.
         24    2    5    5    0    0 -0.60089797901E+02 -0.81240156551E+02  0.66914103762E+02  0.14486515240E+03  0.79357849332E+02 0.  0.
          5    1    5    5  501    0 -0.59821053076E+02  0.58504957559E+02  0.53358564388E+02  0.99350968005E+02  0.47000000000E+01 0. -1.
        -13    1    6    6    0    0 -0.67595493667E+02 -0.38598394515E+02  0.65192768433E+02  0.10153365885E+03  0.00000000000E+00 0.  1.
         14    1    6    6    0    0  0.75056957660E+01 -0.42641762037E+02  0.17213353296E+01  0.43331493556E+02  0.00000000000E+00 0. -1.
         -5    1    3    3    0  503  0.70682679748E+02 -0.58205585261E+02  0.11407636841E+03  0.14635381512E+03  0.47000000000E+01 0.  1.
         11    1    4    4    0    0 -0.12085320503E+02 -0.57281739636E+01  0.11850098714E+02  0.17868737732E+02  0.00000000000E+00 0. -1.
        -12    1    4    4    0    0  0.61313491731E+02  0.86668958217E+02  0.13599671885E+03  0.17252814299E+03  0.00000000000E+00 0.  1.
<mgrwt>
<rscale>  2 0.21232291E+03</rscale>
<asrwt>0</asrwt>
<pdfrwt beam="1">  1       21 0.74089435E-01 0.21254646E+03</pdfrwt>
<pdfrwt beam="2">  1       21 0.15290074E-01 0.21254646E+03</pdfrwt>
<totfact> 0.61322836E+04</totfact>
</mgrwt>
</event>
<event>
12    1  0.1013215E-001  0.2845314E+03  0.7546771E-02  0.1093267E+00
         21   -1    0    0  503  502  0.00000000000E+00  0.00000000000E+00  0.12506000737E+04  0.12506000737E+04  0.00000000000E+00 0. -1.
         21   -1    0    0  501  503 -0.00000000000E+00 -0.00000000000E+00 -0.97819553032E+02  0.97819553032E+02  0.00000000000E+00 0. -1.
          6    2    1    2  501    0 -0.77908731498E+02  0.21178359110E+03  0.18387667968E+03  0.33860145312E+03  0.17296893022E+03 0.  0.
         24    2    3    3    0    0 -0.93117261140E+02  0.10770251435E+03  0.56560380778E+02  0.17338734998E+03  0.81200003318E+02 0.  0.
         -6    2    1    2    0  502  0.77908731498E+02 -0.21178359110E+03  0.96890384103E+03  0.10098181737E+04  0.17330906141E+03 0.  0.
        -24    2    5    5    0    0  0.59779467740E+01 -0.15723444084E+03  0.78749121081E+03  0.80713053222E+03  0.80986935384E+02 0.  0.
          5    1    3    3  501    0  0.15208529642E+02  0.10408107675E+03  0.12731629890E+03  0.16521410314E+03  0.47000000000E+01 0. -1.
        -11    1    4    4    0    0 -0.37075548215E+02  0.57508060058E+01  0.41714031961E+02  0.56104621089E+02  0.00000000000E+00 0.  1.
         12    1    4    4    0    0 -0.56041712925E+02  0.10195170835E+03  0.14846348816E+02  0.11728272889E+03  0.00000000000E+00 0. -1.
         -5    1    5    5    0  502  0.71930784724E+02 -0.54549150266E+02  0.18141263022E+03  0.20268764143E+03  0.47000000000E+01 0.  1.
         13    1    6    6    0    0  0.17346207326E+02 -0.15632367708E+03  0.63407365706E+03  0.65328966431E+03  0.00000000000E+00 0. -1.
        -14    1    6    6    0    0 -0.11368260552E+02 -0.91076376104E+00  0.15341755375E+03  0.15384086790E+03  0.00000000000E+00 0.  1.
<mgrwt>
<rscale>  2 0.28447958E+03</rscale>
<asrwt>0</asrwt>
<pdfrwt beam="1">  1       21 0.19240000E+00 0.28453135E+03</pdfrwt>
<pdfrwt beam="2">  1       21 0.15049163E-01 0.28453135E+03</pdfrwt>
<totfact> 0.54742174E+03</totfact>
</mgrwt>
</event>
<event>
12    1  0.1013215E-001  0.2604177E+03  0.7546771E-02  0.1107044E+00
         21   -1    0    0  503  502  0.00000000000E+00  0.00000000000E+00  0.14447652052E+03  0.14447652052E+03  0.00000000000E+00 0.  1.
         21   -1    0    0  501  503 -0.00000000000E+00 -0.00000000000E+00 -0.53726472159E+03  0.53726472159E+03  0.00000000000E+00 0. -1.
          6    2    1    2  501    0 -0.15456783276E+03  0.11669573173E+03 -0.31948417900E+03  0.41217410622E+03  0.17409263189E+03 0.  0.
         24    2    3    3    0    0 -0.87153851758E+02 -0.70966510129E+01 -0.16354125599E+03  0.20191359139E+03  0.79857370642E+02 0.  0.
         -6    2    1    2    0  502  0.15456783276E+03 -0.11669573173E+03 -0.73304022068E+02  0.26956713589E+03  0.17257998833E+03 0.  0.
        -24    2    5    5    0    0  0.12222561579E+03 -0.60062440399E+02  0.15676316612E+02  0.15914549237E+03  0.80838993912E+02 0.  0.
          5    1    3    3  501    0 -0.67413981004E+02  0.12379238274E+03 -0.15594292301E+03  0.21026051483E+03  0.47000000000E+01 0. -1.
        -13    1    4    4    0    0  0.12469526238E+01  0.21802344793E+02 -0.53798574515E+02  0.58061895846E+02  0.00000000000E+00 0.  1.
         14    1    4    4    0    0 -0.88400804382E+02 -0.28898995806E+02 -0.10974268147E+03  0.14385169554E+03  0.00000000000E+00 0. -1.
         -5    1    5    5    0  502  0.32342216970E+02 -0.56633291329E+02 -0.88980338679E+02  0.11042164352E+03  0.47000000000E+01 0.  1.
         11    1    6    6    0    0  0.40188411599E+02  0.32264514222E+00 -0.27300935141E+02  0.48585528568E+02  0.00000000000E+00 0. -1.
        -12    1    6    6    0    0  0.82037204194E+02 -0.60385085541E+02  0.42977251752E+02  0.11055996380E+03  0.00000000000E+00 0.  1.
<mgrwt>
<rscale>  2 0.26016509E+03</rscale>
<asrwt>0</asrwt>
<pdfrwt beam="1">  1       21 0.22227157E-01 0.26041765E+03</pdfrwt>
<pdfrwt beam="2">  1       21 0.82656111E-01 0.26041765E+03</pdfrwt>
<totfact> 0.23334587E+04</totfact>
</mgrwt>
</event>
<event>
12    1  0.1013215E-001  0.1939646E+03  0.7546771E-02  0.1155021E+00
         21   -1    0    0  501  502  0.00000000000E+00  0.00000000000E+00  0.34965057999E+03  0.34965057999E+03  0.00000000000E+00 0.  1.
         21   -1    0    0  502  503 -0.00000000000E+00 -0.00000000000E+00 -0.12522334394E+03  0.12522334394E+03  0.00000000000E+00 0.  1.
         -6    2    1    2    0  503  0.62113470641E+02  0.64097408146E+02  0.22682366883E+02  0.19528631232E+03  0.17220828390E+03 0.  0.
        -24    2    3    3    0    0  0.72936838336E+02  0.25046404974E+01 -0.31151719953E+02  0.11263636846E+03  0.79940391747E+02 0.  0.
          6    2    1    2  501    0 -0.62113470641E+02 -0.64097408146E+02  0.20174486917E+03  0.27958761162E+03  0.17176052913E+03 0.  0.
         24    2    5    5    0    0 -0.28628422903E+02 -0.39547742855E+02  0.21567735262E+03  0.23554060737E+03  0.81111323052E+02 0.  0.
          5    1    5    5  501    0 -0.33485047739E+02 -0.24549665292E+02 -0.13932483444E+02  0.44047004244E+02  0.47000000000E+01 0. -1.
        -13    1    6    6    0    0  0.76391805195E+00 -0.56733987562E+02  0.16503939132E+03  0.17452028422E+03  0.00000000000E+00 0.  1.
         14    1    6    6    0    0 -0.29392340955E+02  0.17186244707E+02  0.50637961291E+02  0.61020323152E+02  0.00000000000E+00 0. -1.
         -5    1    3    3    0  503 -0.10823367694E+02  0.61592767649E+02  0.53834086836E+02  0.82649943862E+02  0.47000000000E+01 0.  1.
         11    1    4    4    0    0  0.19519159837E+01  0.93401494717E+01  0.21811159530E+02  0.23807037787E+02  0.00000000000E+00 0. -1.
        -12    1    4    4    0    0  0.70984922352E+02 -0.68355089743E+01 -0.52962879482E+02  0.88829330670E+02  0.00000000000E+00 0.  1.
<mgrwt>
<rscale>  2 0.19386514E+03</rscale>
<asrwt>0</asrwt>
<pdfrwt beam="1">  1       21 0.53792396E-01 0.19396457E+03</pdfrwt>
<pdfrwt beam="2">  1       21 0.19265130E-01 0.19396457E+03</pdfrwt>
<totfact> 0.80871390E+04</totfact>
</mgrwt>
</event>
<event>
12    1  0.1013215E-001  0.2453546E+03  0.7546771E-02  0.1116417E+00
         21   -1    0    0  503  502  0.00000000000E+00  0.00000000000E+00  0.12348679968E+03  0.12348679968E+03  0.00000000000E+00 0.  1.
         21   -1    0    0  501  503 -0.00000000000E+00 -0.00000000000E+00 -0.48675681402E+03  0.48675681402E+03  0.00000000000E+00 0. -1.
          6    2    1    2  501    0 -0.13516033597E+03 -0.10817603134E+03 -0.16760266729E+03  0.29642104870E+03  0.17263954894E+03 0.  0.
         24    2    3    3    0    0 -0.95805434613E+02  0.37006133756E+01 -0.69970384866E+02  0.14273518577E+03  0.79278639358E+02 0.  0.
         -6    2    1    2    0  502  0.13516033597E+03  0.10817603134E+03 -0.19566734704E+03  0.31382256500E+03  0.17386351379E+03 0.  0.
        -24    2    5    5    0    0  0.12500127619E+03  0.33243266608E+02 -0.18107745978E+03  0.23666635632E+03  0.80569745872E+02 0.  0.
          5    1    3    3  501    0 -0.39354901354E+02 -0.11187664472E+03 -0.97632282422E+02  0.15368586293E+03  0.47000000000E+01 0. -1.
        -13    1    4    4    0    0 -0.77601131300E+02  0.29897567680E+02 -0.23589020893E+02  0.86442131157E+02  0.00000000000E+00 0.  1.
         14    1    4    4    0    0 -0.18204303312E+02 -0.26196954305E+02 -0.46381363973E+02  0.56293054615E+02  0.00000000000E+00 0. -1.
         -5    1    5    5    0  502  0.10159059774E+02  0.74932764736E+02 -0.14589887261E+02  0.77156208673E+02  0.47000000000E+01 0.  1.
         11    1    6    6    0    0  0.81969446133E+02 -0.30717433742E+01 -0.55488249667E+02  0.99032174357E+02  0.00000000000E+00 0. -1.
        -12    1    6    6    0    0  0.43031830059E+02  0.36315009982E+02 -0.12558921012E+03  0.13763418197E+03  0.00000000000E+00 0.  1.
<mgrwt>
<rscale>  2 0.24513789E+03</rscale>
<asrwt>0</asrwt>
<pdfrwt beam="1">  1       21 0.18997969E-01 0.24535462E+03</pdfrwt>
<pdfrwt beam="2">  1       21 0.74885663E-01 0.24535462E+03</pdfrwt>
<totfact> 0.39509577E+04</totfact>
</mgrwt>
</event>
<event>
12    1  0.1013215E-001  0.2162238E+03  0.7546771E-02  0.1137103E+00
         21   -1    0    0  503  502  0.00000000000E+00  0.00000000000E+00  0.20405712066E+03  0.20405712066E+03  0.00000000000E+00 0.  1.
         21   -1    0    0  501  503 -0.00000000000E+00 -0.00000000000E+00 -0.32539559312E+03  0.32539559312E+03  0.00000000000E+00 0. -1.
          6    2    1    2  501    0  0.11532271881E+03 -0.61101708032E+02 -0.20638970026E+03  0.29891374207E+03  0.17239480452E+03 0.  0.
         24    2    3    3    0    0  0.54407868672E+02 -0.97500931949E+02 -0.97679539547E+02  0.16900796271E+03  0.80967592945E+02 0.  0.
         -6    2    1    2    0  502 -0.11532271881E+03  0.61101708032E+02  0.85051227808E+02  0.23053897171E+03  0.16994633838E+03 0.  0.
        -24    2    5    5    0    0 -0.37217535831E+02  0.88658337021E+02  0.25881052960E+02  0.12864202867E+03  0.81446282550E+02 0.  0.
          5    1    3    3  501    0  0.60914850139E+02  0.36399223917E+02 -0.10871016072E+03  0.12990577937E+03  0.47000000000E+01 0. -1.
        -13    1    4    4    0    0  0.48937171412E+02 -0.23186864896E+02 -0.12014042947E+02  0.55469042514E+02  0.00000000000E+00 0.  1.
         14    1    4    4    0    0  0.54706972604E+01 -0.74314067053E+02 -0.85665496600E+02  0.11353892019E+03  0.00000000000E+00 0. -1.
         -5    1    5    5    0  502 -0.78105182979E+02 -0.27556628989E+02  0.59170174848E+02  0.10189694304E+03  0.47000000000E+01 0.  1.
         11    1    6    6    0    0  0.15636749069E+02  0.45344492842E+02  0.35445882085E+02  0.59640938199E+02  0.00000000000E+00 0. -1.
        -12    1    6    6    0    0 -0.52854284900E+02  0.43313844180E+02 -0.95648291251E+01  0.69001090471E+02  0.00000000000E+00 0.  1.
<mgrwt>
<rscale>  2 0.21573535E+03</rscale>
<asrwt>0</asrwt>
<pdfrwt beam="1">  1       21 0.31393404E-01 0.21622377E+03</pdfrwt>
<pdfrwt beam="2">  1       21 0.50060860E-01 0.21622377E+03</pdfrwt>
<totfact> 0.36616279E+04</totfact>
</mgrwt>
</event>
<event>
12    1  0.1013215E-001  0.2255911E+03  0.7546771E-02  0.1130076E+00
         21   -1    0    0  501  502  0.00000000000E+00  0.00000000000E+00  0.32084026826E+02  0.32084026826E+02  0.00000000000E+00 0.  1.
         21   -1    0    0  502  503 -0.00000000000E+00 -0.00000000000E+00 -0.18863172624E+04  0.18863172624E+04  0.00000000000E+00 0. -1.
         -6    2    1    2    0  503  0.12574475526E+03 -0.65772306816E+02 -0.13197281126E+04  0.13388702888E+04  0.17536709868E+03 0.  0.
        -24    2    3    3    0    0  0.48405128551E+02 -0.97850868279E+02 -0.95352443940E+03  0.96318734773E+03  0.81259838815E+02 0.  0.
          6    2    1    2  501    0 -0.12574475526E+03  0.65772306816E+02 -0.53450512297E+03  0.57953100040E+03  0.17327063836E+03 0.  0.
         24    2    5    5    0    0 -0.35836601653E+02  0.62377345041E+02 -0.15524130492E+03  0.18971292035E+03  0.81950803538E+02 0.  0.
          5    1    5    5  501    0 -0.89908153608E+02  0.33949617751E+01 -0.37926381805E+03  0.38981808005E+03  0.47000000000E+01 0. -1.
        -11    1    6    6    0    0 -0.14171140347E+02  0.43481777967E+02 -0.15431623747E+03  0.16095026368E+03  0.00000000000E+00 0.  1.
         12    1    6    6    0    0 -0.21665461306E+02  0.18895567074E+02 -0.92506745703E+00  0.28762656666E+02  0.00000000000E+00 0. -1.
         -5    1    3    3    0  503  0.77339626711E+02  0.32078561463E+02 -0.36620367316E+03  0.37568294106E+03  0.47000000000E+01 0.  1.
         11    1    4    4    0    0  0.16109044254E+02 -0.60201227172E+02 -0.24061705469E+03  0.24855634385E+03  0.00000000000E+00 0. -1.
        -12    1    4    4    0    0  0.32296084296E+02 -0.37649641107E+02 -0.71290738471E+03  0.71463100388E+03  0.00000000000E+00 0.  1.
<mgrwt>
<rscale>  2 0.22518357E+03</rscale>
<asrwt>0</asrwt>
<pdfrwt beam="1">  1       21 0.49360027E-02 0.22559113E+03</pdfrwt>
<pdfrwt beam="2">  1       21 0.29020274E+00 0.22559113E+03</pdfrwt>
<totfact> 0.10344302E+04</totfact>
</mgrwt>
</event>
<event>
12    1  0.1013215E-001  0.2015651E+03  0.7546771E-02  0.1148449E+00
         21   -1    0    0  503  502  0.00000000000E+00  0.00000000000E+00  0.12771271708E+04  0.12771271708E+04  0.00000000000E+00 0.  1.
         21   -1    0    0  501  503 -0.00000000000E+00 -0.00000000000E+00 -0.35603737791E+02  0.35603737791E+02  0.00000000000E+00 0. -1.
          6    2    1    2  501    0  0.95962065250E+02 -0.38092978026E+02  0.83529493550E+03  0.85924432650E+03  0.17298378655E+03 0.  0.
         24    2    3    3    0    0 -0.72176370219E+01 -0.48022954839E+02  0.30617320320E+03  0.32004440718E+03  0.79549316370E+02 0.  0.
         -6    2    1    2    0  502 -0.95962065250E+02  0.38092978026E+02  0.40622849752E+03  0.45348658210E+03  0.17311468744E+03 0.  0.
        -24    2    5    5    0    0 -0.66219961467E+01  0.77469021080E+02  0.24891422425E+03  0.26827861443E+03  0.63006538298E+02 0.  0.
          5    1    3    3  501    0  0.10317970227E+03  0.99299768126E+01  0.52912173230E+03  0.53919991932E+03  0.47000000000E+01 0. -1.
        -11    1    4    4    0    0 -0.19972811636E+02 -0.67136002612E+02  0.22170082292E+03  0.23250249662E+03  0.00000000000E+00 0.  1.
         12    1    4    4    0    0  0.12755174614E+02  0.19113047773E+02  0.84472380278E+02  0.87541910560E+02  0.00000000000E+00 0. -1.
         -5    1    5    5    0  502 -0.89340069103E+02 -0.39376043054E+02  0.15731427327E+03  0.18520796767E+03  0.47000000000E+01 0.  1.
         11    1    6    6    0    0  0.87536494918E+01  0.14131804783E+02  0.75288240523E+01  0.18248766464E+02  0.00000000000E+00 0. -1.
        -12    1    6    6    0    0 -0.15375645638E+02  0.63337216297E+02  0.24138540020E+03  0.25002984797E+03  0.00000000000E+00 0.  1.
<mgrwt>
<rscale>  2 0.20153699E+03</rscale>
<asrwt>0</asrwt>
<pdfrwt beam="1">  1       21 0.19648107E+00 0.20156510E+03</pdfrwt>
<pdfrwt beam="2">  1       21 0.54774991E-02 0.20156510E+03</pdfrwt>
<totfact> 0.32388939E+04</totfact>
</mgrwt>
</event>
<event>
12    1  0.1013215E-001  0.1821146E+03  0.7546771E-02  0.1166145E+00
         21   -1    0    0  503  502  0.00000000000E+00  0.00000000000E+00  0.70460688602E+03  0.70460688602E+03  0.00000000000E+00 0. -1.
         21   -1    0    0  501  503 -0.00000000000E+00 -0.00000000000E+00 -0.95446742853E+02  0.95446742853E+02  0.00000000000E+00 0. -1.
          6    2    1    2  501    0 -0.33677103874E+02  0.26148467914E+02  0.19249508853E+02  0.18312911411E+03  0.17705320992E+03 0.  0.
         24    2    3    3    0    0  0.43284372980E+01  0.51253521615E+02 -0.44763427049E+02  0.10442440749E+03  0.79088770573E+02 0.  0.
         -6    2    1    2    0  502  0.33677103874E+02 -0.26148467914E+02  0.58991063431E+03  0.61692451476E+03  0.17545201835E+03 0.  0.
        -24    2    5    5    0    0  0.48115263149E+02 -0.54068514470E+02  0.21946851979E+03  0.24512155666E+03  0.81729208709E+02 0.  0.
          5    1    3    3  501    0 -0.38005541172E+02 -0.25105053701E+02  0.64012935902E+02  0.78704706618E+02  0.47000000000E+01 0. -1.
        -11    1    4    4    0    0 -0.24131115170E+02  0.41634223479E+01 -0.42868742933E+02  0.49369767324E+02  0.00000000000E+00 0.  1.
         12    1    4    4    0    0  0.28459552468E+02  0.47090099267E+02 -0.18946841156E+01  0.55054640164E+02  0.00000000000E+00 0. -1.
         -5    1    5    5    0  502 -0.14438159275E+02  0.27920046556E+02  0.37044211452E+03  0.37180295810E+03  0.47000000000E+01 0.  1.
         13    1    6    6    0    0 -0.11242832252E+02 -0.45783429091E+02  0.12084490476E+03  0.12971512889E+03  0.00000000000E+00 0. -1.
        -14    1    6    6    0    0  0.59358095401E+02 -0.82850853789E+01  0.98623615031E+02  0.11540642777E+03  0.00000000000E+00 0.  1.
<mgrwt>
<rscale>  2 0.18172428E+03</rscale>
<asrwt>0</asrwt>
<pdfrwt beam="1">  1       21 0.10840106E+00 0.18211460E+03</pdfrwt>
<pdfrwt beam="2">  1       21 0.14684115E-01 0.18211460E+03</pdfrwt>
<totfact> 0.27760810E+04</totfact>
</mgrwt>
</event>
<event>
12    1  0.1013215E-001  0.2090392E+03  0.7546771E-02  0.1142824E+00
         21   -1    0    0  501  502  0.00000000000E+00  0.00000000000E+00  0.19430626869E+04  0.19430626869E+04  0.00000000000E+00 0.  1.
         21   -1    0    0  502  503 -0.00000000000E+00 -0.00000000000E+00 -0.51652145782E+02  0.51652145782E+02  0.00000000000E+00 0. -1.
         -6    2    1    2    0  503 -0.90829181837E+02  0.70123823639E+02  0.19047520859E+03  0.28098253939E+03  0.17176463967E+03 0.  0.
        -24    2    3    3    0    0  0.20570020876E+02  0.11685025207E+02  0.80695293158E+02  0.11395381324E+03  0.76903027516E+02 0.  0.
          6    2    1    2  501    0  0.90829181837E+02 -0.70123823639E+02  0.17009353325E+04  0.17137322933E+04  0.17472858013E+03 0.  0.
         24    2    5    5    0    0 -0.12016107186E+02 -0.28639128073E+02  0.47049532235E+03  0.47829599704E+03  0.80228585590E+02 0.  0.
          5    1    5    5  501    0  0.10284528902E+03 -0.41484695566E+02  0.12304400102E+04  0.12354362963E+04  0.47000000000E+01 0. -1.
        -13    1    6    6    0    0 -0.88684227885E+01  0.11374510223E+02  0.36710335209E+03  0.36738658049E+03  0.00000000000E+00 0.  1.
         14    1    6    6    0    0 -0.31476843978E+01 -0.40013638296E+02  0.10339197025E+03  0.11090941655E+03  0.00000000000E+00 0. -1.
         -5    1    3    3    0  503 -0.11139920271E+03  0.58438798432E+02  0.10977991544E+03  0.16702872615E+03  0.47000000000E+01 0.  1.
         13    1    4    4    0    0  0.27511917689E+02 -0.24975482637E+02  0.18703308715E+02  0.41599207983E+02  0.00000000000E+00 0. -1.
        -14    1    4    4    0    0 -0.69418968135E+01  0.36660507844E+02  0.61991984443E+02  0.72354605257E+02  0.00000000000E+00 0.  1.
<mgrwt>
<rscale>  2 0.20841863E+03</rscale>
<asrwt>0</asrwt>
<pdfrwt beam="1">  1       21 0.29893266E+00 0.20903915E+03</pdfrwt>
<pdfrwt beam="2">  1       21 0.79464855E-02 0.20903915E+03</pdfrwt>
<totfact> 0.41258636E+03</totfact>
</mgrwt>
</event>
<event>
12    1  0.1013215E-001  0.1837228E+03  0.7546771E-02  0.1165043E+00
         21   -1    0    0  501  502  0.00000000000E+00  0.00000000000E+00  0.18482886046E+03  0.18482886046E+03  0.00000000000E+00 0.  1.
         21   -1    0    0  502  503 -0.00000000000E+00 -0.00000000000E+00 -0.21622741233E+03  0.21622741233E+03  0.00000000000E+00 0.  1.
         -6    2    1    2    0  503  0.22706784803E+02  0.57725027346E+02 -0.98668546394E+02  0.20854152175E+03  0.17293440198E+03 0.  0.
        -24    2    3    3    0    0  0.62441286547E+02  0.48303177867E+02 -0.11759844403E+03  0.16328632425E+03  0.81246036146E+02 0.  0.
          6    2    1    2  501    0 -0.22706784803E+02 -0.57725027346E+02  0.67269994521E+02  0.19251475104E+03  0.16937798071E+03 0.  0.
         24    2    5    5    0    0 -0.26149042084E+02 -0.19739910546E+02 -0.27228934715E+02  0.90500752690E+02  0.79846946601E+02 0.  0.
          5    1    5    5  501    0  0.34422572811E+01 -0.37985116800E+02  0.94498929236E+02  0.10201399835E+03  0.47000000000E+01 0. -1.
        -13    1    6    6    0    0 -0.28165393958E+02 -0.49194633124E+02 -0.15859829592E+02  0.58863703075E+02  0.00000000000E+00 0.  1.
         14    1    6    6    0    0  0.20163518746E+01  0.29454722578E+02 -0.11369105123E+02  0.31637049615E+02  0.00000000000E+00 0. -1.
         -5    1    3    3    0  503 -0.39734501744E+02  0.94218494790E+01  0.18929897638E+02  0.45255197503E+02  0.47000000000E+01 0.  1.
         11    1    4    4    0    0  0.10329793251E+02  0.32402345615E+02 -0.36509379386E+00  0.34011026498E+02  0.00000000000E+00 0. -1.
        -12    1    4    4    0    0  0.52111493296E+02  0.15900832252E+02 -0.11723335024E+03  0.12927529775E+03  0.00000000000E+00 0.  1.
<mgrwt>
<rscale>  2 0.18288118E+03</rscale>
<asrwt>0</asrwt>
<pdfrwt beam="1">  1       21 0.28435209E-01 0.18372285E+03</pdfrwt>
<pdfrwt beam="2">  1       21 0.33265756E-01 0.18372285E+03</pdfrwt>
<totfact> 0.10324126E+05</totfact>
</mgrwt>
</event>
<event>
12    1  0.1013215E-001  0.1989364E+03  0.7546771E-02  0.1150644E+00
         21   -1    0    0  501  502  0.00000000000E+00  0.00000000000E+00  0.15865494659E+04  0.15865494659E+04  0.00000000000E+00 0.  1.
         21   -1    0    0  502  503 -0.00000000000E+00 -0.00000000000E+00 -0.24942512285E+02  0.24942512285E+02  0.00000000000E+00 0.  1.
         -6    2    1    2    0  503 -0.27277857031E+02 -0.93255879284E+02  0.77683295824E+03  0.80189583296E+03  0.17357056607E+03 0.  0.
        -24    2    3    3    0    0 -0.63209438269E+02 -0.10989147822E+02  0.30406591192E+03  0.32065819548E+03  0.79053178836E+02 0.  0.
          6    2    1    2  501    0  0.27277857031E+02  0.93255879284E+02  0.78477399534E+03  0.80959614519E+03  0.17359422237E+03 0.  0.
         24    2    5    5    0    0 -0.93072453369E+01  0.12997073099E+03  0.60586180872E+03  0.62326818011E+03  0.66450563130E+02 0.  0.
          5    1    5    5  501    0  0.36585102368E+02 -0.36714851703E+02  0.17891218662E+03  0.18632796508E+03  0.47000000000E+01 0. -1.
        -11    1    6    6    0    0  0.26667447653E+02  0.74804071567E+02  0.29470313500E+03  0.30521589026E+03  0.00000000000E+00 0.  1.
         12    1    6    6    0    0 -0.35974692990E+02  0.55166659420E+02  0.31115867373E+03  0.31805228986E+03  0.00000000000E+00 0. -1.
         -5    1    3    3    0  503  0.35931581237E+02 -0.82266731462E+02  0.47276704633E+03  0.48123763748E+03  0.47000000000E+01 0.  1.
         13    1    4    4    0    0  0.13220165155E+02 -0.13056934142E+02  0.24050642968E+02  0.30392264198E+02  0.00000000000E+00 0. -1.
        -14    1    4    4    0    0 -0.76429603424E+02  0.20677863196E+01  0.28001526895E+03  0.29026593128E+03  0.00000000000E+00 0.  1.
<mgrwt>
<rscale>  2 0.19893125E+03</rscale>
<asrwt>0</asrwt>
<pdfrwt beam="1">  1       21 0.24408445E+00 0.19893641E+03</pdfrwt>
<pdfrwt beam="2">  1       21 0.38373108E-02 0.19893641E+03</pdfrwt>
<totfact> 0.30114911E+04</totfact>
</mgrwt>
</event>
<event>
12    1  0.1013215E-001  0.2685045E+03  0.7546771E-02  0.1102341E+00
         21   -1    0    0  503  502  0.00000000000E+00  0.00000000000E+00  0.10285001100E+03  0.10285001100E+03  0.00000000000E+00 0.  1.
         21   -1    0    0  501  503 -0.00000000000E+00 -0.00000000000E+00 -0.74531801345E+03  0.74531801345E+03  0.00000000000E+00 0. -1.
          6    2    1    2  501    0  0.15134455684E+03  0.13645426091E+03 -0.42964938490E+03  0.50664906508E+03  0.17484204585E+03 0.  0.
         24    2    3    3    0    0  0.16787331701E+03  0.95805023369E+02 -0.27335856079E+03  0.34424687258E+03  0.80130852119E+02 0.  0.
         -6    2    1    2    0  502 -0.15134455684E+03 -0.13645426091E+03 -0.21281861755E+03  0.34151895937E+03  0.17268032727E+03 0.  0.
        -24    2    5    5    0    0 -0.71667998672E+02 -0.14566431604E+03 -0.11169965454E+03  0.21236667051E+03  0.79173195707E+02 0.  0.
          5    1    3    3  501    0 -0.16528760173E+02  0.40649237541E+02 -0.15629082411E+03  0.16240219250E+03  0.47000000000E+01 0. -1.
        -13    1    4    4    0    0  0.20824440010E+02  0.38053222959E+01 -0.81173710793E+00  0.21184822318E+02  0.00000000000E+00 0.  1.
         14    1    4    4    0    0  0.14704887700E+03  0.91999701073E+02 -0.27254682368E+03  0.32306205027E+03  0.00000000000E+00 0. -1.
         -5    1    5    5    0  502 -0.79676558167E+02  0.92100551297E+01 -0.10111896301E+03  0.12915228886E+03  0.47000000000E+01 0.  1.
         11    1    6    6    0    0 -0.81229742521E+01 -0.84646161847E+02 -0.24695020352E+02  0.88548288839E+02  0.00000000000E+00 0. -1.
        -12    1    6    6    0    0 -0.63545024420E+02 -0.61018154193E+02 -0.87004634189E+02  0.12381838167E+03  0.00000000000E+00 0.  1.
<mgrwt>
<rscale>  2 0.26815319E+03</rscale>
<asrwt>0</asrwt>
<pdfrwt beam="1">  1       21 0.15823078E-01 0.26850453E+03</pdfrwt>
<pdfrwt beam="2">  1       21 0.11466431E+00 0.26850453E+03</pdfrwt>
<totfact> 0.20149080E+04</totfact>
</mgrwt>
</event>
<event>
12    1  0.1013215E-001  0.1838191E+03  0.7546771E-02  0.1164271E+00
         21   -1    0    0  501  502  0.00000000000E+00  0.00000000000E+00  0.34070115249E+03  0.34070115249E+03  0.00000000000E+00 0. -1.
         21   -1    0    0  502  503 -0.00000000000E+00 -0.00000000000E+00 -0.10179209978E+03  0.10179209978E+03  0.00000000000E+00 0. -1.
         -6    2    1    2    0  503  0.80180378701E+01 -0.61410723754E+02  0.15648439496E+03  0.24104029273E+03  0.17256155692E+03 0.  0.
        -24    2    3    3    0    0  0.71863615410E+02 -0.39962015770E+02  0.11365308382E+03  0.16108457961E+03  0.79182551127E+02 0.  0.
          6    2    1    2  501    0 -0.80180378701E+01  0.61410723754E+02  0.82424657743E+02  0.20145295954E+03  0.17307196416E+03 0.  0.
         24    2    5    5    0    0  0.28361952819E+02  0.98715715405E+02  0.62151057851E+02  0.14534346856E+03  0.81931538655E+02 0.  0.
          5    1    5    5  501    0 -0.36379990689E+02 -0.37304991652E+02  0.20273599892E+02  0.56109490973E+02  0.47000000000E+01 0. -1.
        -11    1    6    6    0    0 -0.14717140217E+02 -0.76170179516E+01  0.61309501570E+01  0.17669231123E+02  0.00000000000E+00 0.  1.
         12    1    6    6    0    0  0.43079093036E+02  0.10633273336E+03  0.56020107694E+02  0.12767423744E+03  0.00000000000E+00 0. -1.
         -5    1    3    3    0  503 -0.63845577540E+02 -0.21448707983E+02  0.42831311147E+02  0.79955713117E+02  0.47000000000E+01 0.  1.
         13    1    4    4    0    0 -0.55449017417E+01 -0.35967147014E+02  0.41379643845E+02  0.55105866515E+02  0.00000000000E+00 0. -1.
        -14    1    4    4    0    0  0.77408517151E+02 -0.39948687563E+01  0.72273439972E+02  0.10597871310E+03  0.00000000000E+00 0.  1.
<mgrwt>
<rscale>  2 0.18369889E+03</rscale>
<asrwt>0</asrwt>
<pdfrwt beam="1">  1       21 0.52415562E-01 0.18381912E+03</pdfrwt>
<pdfrwt beam="2">  1       21 0.15660323E-01 0.18381912E+03</pdfrwt>
<totfact> 0.12557597E+05</totfact>
</mgrwt>
</event>
<event>
12    1  0.1013215E-001  0.3754365E+03  0.7546771E-02  0.1052731E+00
         21   -1    0    0  501  502  0.00000000000E+00  0.00000000000E+00  0.32207983394E+03  0.32207983394E+03  0.00000000000E+00 0. -1.
         21   -1    0    0  502  503 -0.00000000000E+00 -0.00000000000E+00 -0.44578203932E+03  0.44578203932E+03  0.00000000000E+00 0.  1.
         -6    2    1    2    0  503  0.32582319098E+03 -0.63220857055E+02 -0.11738227305E+03  0.39237220924E+03  0.17326200973E+03 0.  0.
        -24    2    3    3    0    0  0.30410234772E+03 -0.59613103361E+02 -0.52200721665E+02  0.32341181801E+03  0.76408956959E+02 0.  0.
          6    2    1    2  501    0 -0.32582319098E+03  0.63220857055E+02 -0.63199323343E+01  0.37548966402E+03  0.17548480758E+03 0.  0.
         24    2    5    5    0    0 -0.25032902242E+03  0.68321736957E+02 -0.65132066455E+02  0.27953996061E+03  0.81042731291E+02 0.  0.
          5    1    5    5  501    0 -0.75494168564E+02 -0.51008799020E+01  0.58812134121E+02  0.95949703401E+02  0.47000000000E+01 0. -1.
        -13    1    6    6    0    0 -0.60168330264E+02  0.15544010479E+02 -0.53243271738E+02  0.81833307485E+02  0.00000000000E+00 0.  1.
         14    1    6    6    0    0 -0.19016069215E+03  0.52777726478E+02 -0.11888794717E+02  0.19770665313E+03  0.00000000000E+00 0. -1.
         -5    1    3    3    0  503  0.21720843258E+02 -0.36077536945E+01 -0.65181551384E+02  0.68960391236E+02  0.47000000000E+01 0.  1.
         13    1    4    4    0    0  0.98398712786E+02 -0.19315608481E+02  0.18950473486E+02  0.10205155488E+03  0.00000000000E+00 0. -1.
        -14    1    4    4    0    0  0.20570363493E+03 -0.40297494880E+02 -0.71151195151E+02  0.22136026312E+03  0.00000000000E+00 0.  1.
<mgrwt>
<rscale>  2 0.37517775E+03</rscale>
<asrwt>0</asrwt>
<pdfrwt beam="1">  1       21 0.49550744E-01 0.37543647E+03</pdfrwt>
<pdfrwt beam="2">  1       21 0.68581852E-01 0.37543647E+03</pdfrwt>
<totfact> 0.68347727E+03</totfact>
</mgrwt>
</event>
<event>
12    1  0.1013215E-001  0.1854297E+03  0.7546771E-02  0.1162809E+00
         21   -1    0    0  503  502  0.00000000000E+00  0.00000000000E+00  0.37534354024E+03  0.37534354024E+03  0.00000000000E+00 0.  1.
         21   -1    0    0  501  503 -0.00000000000E+00 -0.00000000000E+00 -0.91310576087E+02  0.91310576087E+02  0.00000000000E+00 0.  1.
          6    2    1    2  501    0 -0.20300534688E+02  0.61996901707E+02  0.13725290778E+03  0.23070011334E+03  0.17357549963E+03 0.  0.
         24    2    3    3    0    0  0.16753354624E+01 -0.11200044240E+02  0.20429251424E+02  0.91019805314E+02  0.87971602838E+02 0.  0.
         -6    2    1    2    0  502  0.20300534688E+02 -0.61996901707E+02  0.14678005637E+03  0.23595400299E+03  0.17284148532E+03 0.  0.
        -24    2    5    5    0    0  0.60163923381E+02  0.64611732148E+01  0.10735913823E+03  0.14734420349E+03  0.80764381411E+02 0.  0.
          5    1    3    3  501    0 -0.21975870151E+02  0.73196945947E+02  0.11682365636E+03  0.13968030803E+03  0.47000000000E+01 0. -1.
        -11    1    4    4    0    0  0.13112641689E+02  0.34156824751E+02  0.24552196256E+02  0.44061779244E+02  0.00000000000E+00 0.  1.
         12    1    4    4    0    0 -0.11437306227E+02 -0.45356868991E+02 -0.41229448322E+01  0.46958026071E+02  0.00000000000E+00 0. -1.
         -5    1    5    5    0  502 -0.39863388693E+02 -0.68458074922E+02  0.39420918141E+02  0.88609799499E+02  0.47000000000E+01 0.  1.
         13    1    6    6    0    0  0.53509991940E+01  0.31042229360E+02  0.10193567857E+02  0.33108337646E+02  0.00000000000E+00 0. -1.
        -14    1    6    6    0    0  0.54812924187E+02 -0.24581056146E+02  0.97165570375E+02  0.11423586585E+03  0.00000000000E+00 0.  1.
<mgrwt>
<rscale>  2 0.18525776E+03</rscale>
<asrwt>0</asrwt>
<pdfrwt beam="1">  1       21 0.57745159E-01 0.18542972E+03</pdfrwt>
<pdfrwt beam="2">  1       21 0.14047781E-01 0.18542972E+03</pdfrwt>
<totfact> 0.12460705E+05</totfact>
</mgrwt>
</event>
<event>
12    1  0.1013215E-001  0.2265734E+03  0.7546771E-02  0.1129863E+00
         21   -1    0    0  501  502  0.00000000000E+00  0.00000000000E+00  0.17939347664E+03  0.17939347664E+03  0.00000000000E+00 0. -1.
         21   -1    0    0  502  503 -0.00000000000E+00 -0.00000000000E+00 -0.28497361198E+03  0.28497361198E+03  0.00000000000E+00 0.  1.
         -6    2    1    2    0  503 -0.13767027324E+03 -0.45796214351E+02 -0.24866522271E+02  0.22793385702E+03  0.17402615281E+03 0.  0.
        -24    2    3    3    0    0 -0.48446554799E+02  0.23877059536E+02  0.28333853502E+02  0.10276354501E+03  0.82706446450E+02 0.  0.
          6    2    1    2  501    0  0.13767027324E+03  0.45796214351E+02 -0.80713613075E+02  0.23643323160E+03  0.16833178038E+03 0.  0.
         24    2    5    5    0    0  0.82240528061E+02  0.58247547415E+02  0.79346712214E+01  0.13103825708E+03  0.83377362483E+02 0.  0.
          5    1    5    5  501    0  0.55429745179E+02 -0.12451333064E+02 -0.88648284297E+02  0.10539497452E+03  0.47000000000E+01 0. -1.
        -11    1    6    6    0    0 -0.17416302851E+02  0.82697007157E+01  0.15551872751E+00  0.19280553442E+02  0.00000000000E+00 0.  1.
         12    1    6    6    0    0  0.99656830912E+02  0.49977846699E+02  0.77791524939E+01  0.11175770363E+03  0.00000000000E+00 0. -1.
         -5    1    3    3    0  503 -0.89223718441E+02 -0.69673273886E+02 -0.53200375773E+02  0.12517031201E+03  0.47000000000E+01 0.  1.
         13    1    4    4    0    0 -0.60598199245E+02  0.38133090745E+02  0.38665171993E+02  0.81371185851E+02  0.00000000000E+00 0. -1.
        -14    1    4    4    0    0  0.12151644445E+02 -0.14256031210E+02 -0.10331318491E+02  0.21392359158E+02  0.00000000000E+00 0.  1.
<mgrwt>
<rscale>  2 0.22547954E+03</rscale>
<asrwt>0</asrwt>
<pdfrwt beam="1">  1       21 0.27598997E-01 0.22657339E+03</pdfrwt>
<pdfrwt beam="2">  1       21 0.43842093E-01 0.22657339E+03</pdfrwt>
<totfact> 0.61690436E+04</totfact>
</mgrwt>
</event>
<event>
12    1  0.1013215E-001  0.1740833E+03  0.7546771E-02  0.1173710E+00
         21   -1    0    0  501  502  0.00000000000E+00  0.00000000000E+00  0.14236350524E+03  0.14236350524E+03  0.00000000000E+00 0. -1.
         21   -1    0    0  502  503 -0.00000000000E+00 -0.00000000000E+00 -0.26573936983E+03  0.26573936983E+03  0.00000000000E+00 0. -1.
         -6    2    1    2    0  503 -0.11786506419E+01 -0.17998131981E+02 -0.15295839922E+03  0.23173532958E+03  0.17314638059E+03 0.  0.
        -24    2    3    3    0    0 -0.68442637239E+02 -0.10109402237E+02 -0.94063030893E+02  0.14186080393E+03  0.80560780195E+02 0.  0.
          6    2    1    2  501    0  0.11786506419E+01  0.17998131981E+02  0.29582534639E+02  0.17636754548E+03  0.17293080342E+03 0.  0.
         24    2    5    5    0    0  0.48084392416E+02  0.97783094435E+01  0.66425691245E+02  0.11597530854E+03  0.81425890261E+02 0.  0.
          5    1    5    5  501    0 -0.46905741775E+02  0.82198225372E+01 -0.36843156607E+02  0.60392236941E+02  0.47000000000E+01 0. -1.
        -13    1    6    6    0    0  0.18380675862E+02 -0.31030810821E+02  0.52356574700E+02  0.63576500215E+02  0.00000000000E+00 0.  1.
         14    1    6    6    0    0  0.29703716555E+02  0.40809120264E+02  0.14069116545E+02  0.52398808329E+02  0.00000000000E+00 0. -1.
         -5    1    3    3    0  503  0.67263986597E+02 -0.78887297437E+01 -0.58895368331E+02  0.89874525650E+02  0.47000000000E+01 0.  1.
         11    1    4    4    0    0 -0.75736649774E+02  0.17410866116E+02 -0.68026113917E+02  0.10327986518E+03  0.00000000000E+00 0. -1.
        -12    1    4    4    0    0  0.72940125347E+01 -0.27520268352E+02 -0.26036916976E+02  0.38580938748E+02  0.00000000000E+00 0.  1.
<mgrwt>
<rscale>  2 0.17402966E+03</rscale>
<asrwt>0</asrwt>
<pdfrwt beam="1">  1       21 0.21902078E-01 0.17408329E+03</pdfrwt>
<pdfrwt beam="2">  1       21 0.40882980E-01 0.17408329E+03</pdfrwt>
<totfact> 0.11294810E+05</totfact>
</mgrwt>
</event>
<event>
12    1  0.1013215E-001  0.2324509E+03  0.7546771E-02  0.1126336E+00
         21   -1    0    0  503  502  0.00000000000E+00  0.00000000000E+00  0.78390776054E+03  0.78390776054E+03  0.00000000000E+00 0.  1.
         21   -1    0    0  501  503 -0.00000000000E+00 -0.00000000000E+00 -0.24184426162E+03  0.24184426162E+03  0.00000000000E+00 0.  1.
          6    2    1    2  501    0 -0.14238542975E+03 -0.11365809893E+02 -0.16424979407E+03  0.28462501886E+03  0.18338651605E+03 0.  0.
         24    2    3    3    0    0 -0.14911185519E+03  0.43621222134E+02 -0.14145892087E+03  0.22453897729E+03  0.79183139929E+02 0.  0.
         -6    2    1    2    0  502  0.14238542975E+03  0.11365809893E+02  0.70631329300E+03  0.74112700330E+03  0.17317036384E+03 0.  0.
        -24    2    5    5    0    0  0.56774320480E+02  0.26363646577E+01  0.15747415355E+03  0.18556246498E+03  0.80031528095E+02 0.  0.
          5    1    3    3  501    0  0.67264254428E+01 -0.54987032027E+02 -0.22790873204E+02  0.60086041572E+02  0.47000000000E+01 0. -1.
        -11    1    4    4    0    0 -0.12121290438E+03 -0.11629283508E+01 -0.91490778414E+02  0.15186995465E+03  0.00000000000E+00 0.  1.
         12    1    4    4    0    0 -0.27898950816E+02  0.44784150485E+02 -0.49968142456E+02  0.72669022643E+02  0.00000000000E+00 0. -1.
         -5    1    5    5    0  502  0.85611109270E+02  0.87294452349E+01  0.54883913945E+03  0.55556453832E+03  0.47000000000E+01 0.  1.
         11    1    6    6    0    0  0.23725233464E+02  0.40084980386E+02  0.92926852080E+02  0.10394754539E+03  0.00000000000E+00 0. -1.
        -12    1    6    6    0    0  0.33049087016E+02 -0.37448615729E+02  0.64547301471E+02  0.81614919591E+02  0.00000000000E+00 0.  1.
<mgrwt>
<rscale>  2 0.23043171E+03</rscale>
<asrwt>0</asrwt>
<pdfrwt beam="1">  1       21 0.12060119E+00 0.23245087E+03</pdfrwt>
<pdfrwt beam="2">  1       21 0.37206810E-01 0.23245087E+03</pdfrwt>
<totfact> 0.35200379E+03</totfact>
</mgrwt>
</event>
<event>
12    1  0.1013215E-001  0.2291775E+03  0.7546771E-02  0.1127573E+00
         21   -1    0    0  501  502  0.00000000000E+00  0.00000000000E+00  0.59304229300E+03  0.59304229300E+03  0.00000000000E+00 0. -1.
         21   -1    0    0  502  503 -0.00000000000E+00 -0.00000000000E+00 -0.11724134429E+03  0.11724134429E+03  0.00000000000E+00 0.  1.
         -6    2    1    2    0  503  0.68247901634E+02  0.13236531126E+03  0.59151509710E+02  0.23476381638E+03  0.17157154973E+03 0.  0.
        -24    2    3    3    0    0  0.81699024316E+02  0.19386036926E+02  0.25425078617E+02  0.11600013807E+03  0.75888394427E+02 0.  0.
          6    2    1    2  501    0 -0.68247901634E+02 -0.13236531126E+03  0.41664943900E+03  0.47551982091E+03  0.17419527363E+03 0.  0.
         24    2    5    5    0    0 -0.64818556571E+02 -0.33784828797E+02  0.31747988859E+03  0.33556782322E+03  0.80432732042E+02 0.  0.
          5    1    5    5  501    0 -0.34293450635E+01 -0.98580482461E+02  0.99169550406E+02  0.13995199769E+03  0.47000000000E+01 0. -1.
        -11    1    6    6    0    0 -0.16261270322E+01  0.20729460611E+02  0.32191965896E+02  0.38323328334E+02  0.00000000000E+00 0.  1.
         12    1    6    6    0    0 -0.63192429538E+02 -0.54514289408E+02  0.28528792270E+03  0.29724449488E+03  0.00000000000E+00 0. -1.
         -5    1    3    3    0  503 -0.13451122682E+02  0.11297927433E+03  0.33726431093E+02  0.11876367830E+03  0.47000000000E+01 0.  1.
         11    1    4    4    0    0  0.21955010801E+02 -0.27965958537E+02  0.16660581859E+02  0.39264390025E+02  0.00000000000E+00 0. -1.
        -12    1    4    4    0    0  0.59744013515E+02  0.47351995463E+02  0.87644967579E+01  0.76735748049E+02  0.00000000000E+00 0.  1.
<mgrwt>
<rscale>  2 0.22867895E+03</rscale>
<asrwt>0</asrwt>
<pdfrwt beam="1">  1       21 0.91237274E-01 0.22917754E+03</pdfrwt>
<pdfrwt beam="2">  1       21 0.18037130E-01 0.22917754E+03</pdfrwt>
<totfact> 0.27904351E+04</totfact>
</mgrwt>
</event>
<event>
12    1  0.1013215E-001  0.2430767E+03  0.7546771E-02  0.1117875E+00
         21   -1    0    0  503  502  0.00000000000E+00  0.00000000000E+00  0.30688021147E+02  0.30688021147E+02  0.00000000000E+00 0. -1.
         21   -1    0    0  501  503 -0.00000000000E+00 -0.00000000000E+00 -0.25130477331E+04  0.25130477331E+04  0.00000000000E+00 0. -1.
          6    2    1    2  501    0  0.44559514205E+02 -0.16436719631E+03 -0.18604762347E+04  0.18762883831E+04  0.17344783376E+03 0.  0.
         24    2    3    3    0    0 -0.11658459541E+02 -0.16709799186E+03 -0.13638203507E+04  0.13764313286E+04  0.80620064145E+02 0.  0.
         -6    2    1    2    0  502 -0.44559514205E+02  0.16436719631E+03 -0.62188347724E+03  0.66744737116E+03  0.17246683299E+03 0.  0.
        -24    2    5    5    0    0 -0.64420062991E+02  0.18607138748E+03 -0.54484838764E+03  0.58485192128E+03  0.80121773272E+02 0.  0.
          5    1    3    3  501    0  0.56217973746E+02  0.27307955480E+01 -0.49665588399E+03  0.49985705448E+03  0.47000000000E+01 0. -1.
        -13    1    4    4    0    0 -0.34760658344E+02 -0.27309778600E+02 -0.32903299993E+03  0.33198922034E+03  0.00000000000E+00 0.  1.
         14    1    4    4    0    0  0.23102198803E+02 -0.13978821326E+03 -0.10347873508E+04  0.10444421083E+04  0.00000000000E+00 0. -1.
         -5    1    5    5    0  502  0.19860548786E+02 -0.21704191170E+02 -0.77035089599E+02  0.82595449886E+02  0.47000000000E+01 0.  1.
         11    1    6    6    0    0 -0.39334665844E+02  0.16112359458E+03 -0.35627472232E+03  0.39298817595E+03  0.00000000000E+00 0. -1.
        -12    1    6    6    0    0 -0.25085397147E+02  0.24947792897E+02 -0.18857366532E+03  0.19186374533E+03  0.00000000000E+00 0.  1.
<mgrwt>
<rscale>  2 0.24290174E+03</rscale>
<asrwt>0</asrwt>
<pdfrwt beam="1">  1       21 0.47212345E-02 0.24307669E+03</pdfrwt>
<pdfrwt beam="2">  1       21 0.38662269E+00 0.24307669E+03</pdfrwt>
<totfact> 0.29327407E+03</totfact>
</mgrwt>
</event>
<event>
12    1  0.1013215E-001  0.1793189E+03  0.7546771E-02  0.1168483E+00
         21   -1    0    0  501  502  0.00000000000E+00  0.00000000000E+00  0.83436069556E+02  0.83436069556E+02  0.00000000000E+00 0. -1.
         21   -1    0    0  502  503 -0.00000000000E+00 -0.00000000000E+00 -0.87645852405E+03  0.87645852405E+03  0.00000000000E+00 0. -1.
         -6    2    1    2    0  503 -0.45756366450E+02 -0.95631556769E+00 -0.75578710575E+03  0.77675058110E+03  0.17329961454E+03 0.  0.
        -24    2    3    3    0    0 -0.91677414231E+02 -0.17673514361E+02 -0.42549269431E+03  0.44282739293E+03  0.79592497311E+02 0.  0.
          6    2    1    2  501    0  0.45756366450E+02  0.95631556769E+00 -0.37235348739E+02  0.18314401251E+03  0.17338021373E+03 0.  0.
         24    2    5    5    0    0  0.94696905632E+02  0.52434690689E+01 -0.46421355107E+02  0.13294412433E+03  0.80772520566E+02 0.  0.
          5    1    5    5  501    0 -0.48940539182E+02 -0.42871535012E+01  0.91860063671E+01  0.50199888183E+02  0.47000000000E+01 0. -1.
        -13    1    6    6    0    0 -0.74933445607E+01  0.25996689647E+01  0.12611842943E+02  0.14898559456E+02  0.00000000000E+00 0.  1.
         14    1    6    6    0    0  0.10219025019E+03  0.26438001042E+01 -0.59033198050E+02  0.11804556487E+03  0.00000000000E+00 0. -1.
         -5    1    3    3    0  503  0.45921047781E+02  0.16717198794E+02 -0.33029441145E+03  0.33392318817E+03  0.47000000000E+01 0.  1.
         13    1    4    4    0    0 -0.27255491420E+02 -0.44672605143E+02 -0.20236041747E+03  0.20901732469E+03  0.00000000000E+00 0. -1.
        -14    1    4    4    0    0 -0.64421922811E+02  0.26999090781E+02 -0.22313227683E+03  0.23381006823E+03  0.00000000000E+00 0.  1.
<mgrwt>
<rscale>  2 0.17929939E+03</rscale>
<asrwt>0</asrwt>
<pdfrwt beam="1">  1       21 0.12836319E-01 0.17931887E+03</pdfrwt>
<pdfrwt beam="2">  1       21 0.13483977E+00 0.17931887E+03</pdfrwt>
<totfact> 0.20669635E+04</totfact>
</mgrwt>
</event>
<event>
12    1  0.1013215E-001  0.1823017E+03  0.7546771E-02  0.1165911E+00
         21   -1    0    0  503  502  0.00000000000E+00  0.00000000000E+00  0.11214510697E+03  0.11214510697E+03  0.00000000000E+00 0.  1.
         21   -1    0    0  501  503 -0.00000000000E+00 -0.00000000000E+00 -0.41369375965E+03  0.41369375965E+03  0.00000000000E+00 0.  1.
          6    2    1    2  501    0  0.52761784498E+02 -0.22139822691E+02 -0.29247365232E+03  0.34463714431E+03  0.17308941701E+03 0.  0.
         24    2    3    3    0    0 -0.99875553639E+01  0.40195621003E+02 -0.14710413089E+03  0.17440913558E+03  0.84044524150E+02 0.  0.
         -6    2    1    2    0  502 -0.52761784498E+02  0.22139822691E+02 -0.90750003574E+01  0.18120172231E+03  0.17169080024E+03 0.  0.
        -24    2    5    5    0    0 -0.24949852657E+02  0.77844633743E+02  0.12626997900E+02  0.11509880063E+03  0.80037557934E+02 0.  0.
          5    1    3    3  501    0  0.62749339862E+02 -0.62335443695E+02 -0.14536952143E+03  0.17022800873E+03  0.47000000000E+01 0. -1.
        -13    1    4    4    0    0 -0.69678389549E+01  0.29350157807E+02 -0.35044161762E+01  0.30368791147E+02  0.00000000000E+00 0.  1.
         14    1    4    4    0    0 -0.30197164090E+01  0.10845463197E+02 -0.14359971471E+03  0.14404034444E+03  0.00000000000E+00 0. -1.
         -5    1    5    5    0  502 -0.27811931841E+02 -0.55704811052E+02 -0.21701998257E+02  0.66102921686E+02  0.47000000000E+01 0.  1.
         11    1    6    6    0    0 -0.52683045063E+02  0.40932197308E+02 -0.17619737249E+01  0.66738688667E+02  0.00000000000E+00 0. -1.
        -12    1    6    6    0    0  0.27733192406E+02  0.36912436435E+02  0.14388971625E+02  0.48360111962E+02  0.00000000000E+00 0.  1.
<mgrwt>
<rscale>  2 0.18196898E+03</rscale>
<asrwt>0</asrwt>
<pdfrwt beam="1">  1       21 0.17253094E-01 0.18230174E+03</pdfrwt>
<pdfrwt beam="2">  1       21 0.63645193E-01 0.18230174E+03</pdfrwt>
<totfact> 0.69576394E+04</totfact>
</mgrwt>
</event>
<event>
12    1  0.1013215E-001  0.1897456E+03  0.7546771E-02  0.1159701E+00
         21   -1    0    0  501  502  0.00000000000E+00  0.00000000000E+00  0.31751508087E+03  0.31751508087E+03  0.00000000000E+00 0. -1.
         21   -1    0    0  502  503 -0.00000000000E+00 -0.00000000000E+00 -0.11622812382E+03  0.11622812382E+03  0.00000000000E+00 0. -1.
         -6    2    1    2    0  503 -0.15145370045E+02 -0.64322242141E+02  0.54768093508E+02  0.19749162771E+03  0.17786698929E+03 0.  0.
        -24    2    3    3    0    0 -0.78523079728E+02 -0.57422903900E+02  0.39096735282E+02  0.13167357227E+03  0.79662481649E+02 0.  0.
          6    2    1    2  501    0  0.15145370045E+02  0.64322242141E+02  0.14651886355E+03  0.23625157698E+03  0.17314819428E+03 0.  0.
         24    2    5    5    0    0 -0.21134973835E+02  0.59505510421E+02  0.19342185508E+02  0.10383004665E+03  0.80118447055E+02 0.  0.
          5    1    5    5  501    0  0.36280343880E+02  0.48167317200E+01  0.12717667804E+03  0.13242153033E+03  0.47000000000E+01 0. -1.
        -11    1    6    6    0    0 -0.16604471307E+01  0.16644407865E+02 -0.30801177157E+02  0.35050048675E+02  0.00000000000E+00 0.  1.
         12    1    6    6    0    0 -0.19474526704E+02  0.42861102557E+02  0.50143362665E+02  0.68779997980E+02  0.00000000000E+00 0. -1.
         -5    1    3    3    0  503  0.63377709682E+02 -0.68993382411E+01  0.15671358226E+02  0.65818055436E+02  0.47000000000E+01 0.  1.
         11    1    4    4    0    0 -0.43673268609E+02 -0.37981680122E+02 -0.19240651638E+02  0.60993156102E+02  0.00000000000E+00 0. -1.
        -12    1    4    4    0    0 -0.34849811119E+02 -0.19441223778E+02  0.58337386920E+02  0.70680416168E+02  0.00000000000E+00 0.  1.
<mgrwt>
<rscale>  2 0.18863182E+03</rscale>
<asrwt>0</asrwt>
<pdfrwt beam="1">  1       21 0.48848474E-01 0.18974562E+03</pdfrwt>
<pdfrwt beam="2">  1       21 0.17881250E-01 0.18974562E+03</pdfrwt>
<totfact> 0.11380103E+05</totfact>
</mgrwt>
</event>
<event>
12    1  0.1013215E-001  0.1771712E+03  0.7546771E-02  0.1170802E+00
         21   -1    0    0  501  502  0.00000000000E+00  0.00000000000E+00  0.12890280313E+04  0.12890280313E+04  0.00000000000E+00 0.  1.
         21   -1    0    0  502  503 -0.00000000000E+00 -0.00000000000E+00 -0.43456990254E+02  0.43456990254E+02  0.00000000000E+00 0.  1.
         -6    2    1    2    0  503  0.31763624897E+02 -0.14859066243E+02  0.17861694138E+03  0.25092102601E+03  0.17270677414E+03 0.  0.
        -24    2    3    3    0    0 -0.44152386671E+02 -0.26134164062E+02  0.70631838446E+02  0.11835692417E+03  0.79919191161E+02 0.  0.
          6    2    1    2  501    0 -0.31763624897E+02  0.14859066243E+02  0.10669540997E+04  0.10815639955E+04  0.17366607594E+03 0.  0.
         24    2    5    5    0    0 -0.53843380465E+02  0.20456971003E+02  0.10449346171E+04  0.10495358867E+04  0.79496076433E+02 0.  0.
          5    1    5    5  501    0  0.22079755568E+02 -0.55979047606E+01  0.22019482575E+02  0.32028108850E+02  0.47000000000E+01 0. -1.
        -13    1    6    6    0    0 -0.69847452971E+02  0.33007910731E+02  0.77731763017E+03  0.78114716093E+03  0.00000000000E+00 0.  1.
         14    1    6    6    0    0  0.16004072506E+02 -0.12550939727E+02  0.26761698691E+03  0.26838872574E+03  0.00000000000E+00 0. -1.
         -5    1    3    3    0  503  0.75916011569E+02  0.11275097819E+02  0.10798510293E+03  0.13256410185E+03  0.47000000000E+01 0.  1.
         13    1    4    4    0    0 -0.48005304365E+02  0.16578976227E+02  0.47926904435E+02  0.69830937761E+02  0.00000000000E+00 0. -1.
        -14    1    4    4    0    0  0.38529176940E+01 -0.42713140289E+02  0.22704934011E+02  0.48525986405E+02  0.00000000000E+00 0.  1.
<mgrwt>
<rscale>  2 0.17693565E+03</rscale>
<asrwt>0</asrwt>
<pdfrwt beam="1">  1       21 0.19831198E+00 0.17717118E+03</pdfrwt>
<pdfrwt beam="2">  1       21 0.66856918E-02 0.17717118E+03</pdfrwt>
<totfact> 0.22807620E+04</totfact>
</mgrwt>
</event>
<event>
12    1  0.1013215E-001  0.1878035E+03  0.7546771E-02  0.1162536E+00
         21   -1    0    0  501  502  0.00000000000E+00  0.00000000000E+00  0.14364868355E+03  0.14364868355E+03  0.00000000000E+00 0. -1.
         21   -1    0    0  502  503 -0.00000000000E+00 -0.00000000000E+00 -0.23962045323E+03  0.23962045323E+03  0.00000000000E+00 0. -1.
         -6    2    1    2    0  503  0.29728255190E+02  0.32508551936E+02 -0.75931471506E+02  0.19439938888E+03  0.17345016266E+03 0.  0.
        -24    2    3    3    0    0  0.25205324010E+02  0.28000953116E+02  0.24017032682E+02  0.94136889194E+02  0.82858761242E+02 0.  0.
          6    2    1    2  501    0 -0.29728255190E+02 -0.32508551936E+02 -0.20040298169E+02  0.18886974790E+03  0.18256394227E+03 0.  0.
         24    2    5    5    0    0 -0.87123618944E+02 -0.14644652740E+02  0.12741523982E+02  0.12023969225E+03  0.80562065070E+02 0.  0.
          5    1    5    5  501    0  0.57395363754E+02 -0.17863899196E+02 -0.32781822151E+02  0.68630055650E+02  0.47000000000E+01 0. -1.
        -13    1    6    6    0    0 -0.29955174951E+02 -0.45426097492E+02  0.94462923343E+01  0.55227486622E+02  0.00000000000E+00 0.  1.
         14    1    6    6    0    0 -0.57168443993E+02  0.30781444752E+02  0.32952316477E+01  0.65012205633E+02  0.00000000000E+00 0. -1.
         -5    1    3    3    0  503  0.45229311797E+01  0.45075988200E+01 -0.99948504187E+02  0.10026249968E+03  0.47000000000E+01 0.  1.
         11    1    4    4    0    0  0.39988976487E+02 -0.17065182041E+02  0.91292897435E+01  0.44426147817E+02  0.00000000000E+00 0. -1.
        -12    1    4    4    0    0 -0.14783652477E+02  0.45066135157E+02  0.14887742938E+02  0.49710741378E+02  0.00000000000E+00 0.  1.
<mgrwt>
<rscale>  2 0.18555167E+03</rscale>
<asrwt>0</asrwt>
<pdfrwt beam="1">  1       21 0.22099798E-01 0.18780354E+03</pdfrwt>
<pdfrwt beam="2">  1       21 0.36864685E-01 0.18780354E+03</pdfrwt>
<totfact> 0.13604470E+05</totfact>
</mgrwt>
</event>
<event>
12    1  0.1013215E-001  0.2173063E+03  0.7546771E-02  0.1135915E+00
         21   -1    0    0  503  502  0.00000000000E+00  0.00000000000E+00  0.44576650341E+03  0.44576650341E+03  0.00000000000E+00 0. -1.
         21   -1    0    0  501  503 -0.00000000000E+00 -0.00000000000E+00 -0.10889994628E+03  0.10889994628E+03  0.00000000000E+00 0. -1.
          6    2    1    2  501    0 -0.21772457706E+02 -0.12961348371E+03  0.12253410648E+03  0.24947268955E+03  0.17305583061E+03 0.  0.
         24    2    3    3    0    0 -0.59646373252E+02 -0.91669563083E+02  0.13889298428E+03  0.19322433425E+03  0.77996048772E+02 0.  0.
         -6    2    1    2    0  502  0.21772457706E+02  0.12961348371E+03  0.21433245065E+03  0.30519376015E+03  0.17300617549E+03 0.  0.
        -24    2    5    5    0    0  0.69043517996E+02  0.11685837145E+03  0.19799162711E+03  0.25336366711E+03  0.81052927481E+02 0.  0.
          5    1    3    3  501    0  0.37873915546E+02 -0.37943920630E+02 -0.16358877803E+02  0.56248355305E+02  0.47000000000E+01 0. -1.
        -11    1    4    4    0    0 -0.26876473906E+02 -0.90749079054E+02  0.12691941062E+03  0.15832333053E+03  0.00000000000E+00 0.  1.
         12    1    4    4    0    0 -0.32769899346E+02 -0.92048402917E+00  0.11973573664E+02  0.34901003715E+02  0.00000000000E+00 0. -1.
         -5    1    5    5    0  502 -0.47271060290E+02  0.12755112268E+02  0.16340823537E+02  0.51830093032E+02  0.47000000000E+01 0.  1.
         13    1    6    6    0    0 -0.51911577497E+01  0.68290411086E+02  0.99728697016E+02  0.12098074795E+03  0.00000000000E+00 0. -1.
        -14    1    6    6    0    0  0.74234675746E+02  0.48567960360E+02  0.98262930095E+02  0.13238291917E+03  0.00000000000E+00 0.  1.
<mgrwt>
<rscale>  2 0.21729639E+03</rscale>
<asrwt>0</asrwt>
<pdfrwt beam="1">  1       21 0.68579461E-01 0.21730627E+03</pdfrwt>
<pdfrwt beam="2">  1       21 0.16753838E-01 0.21730627E+03</pdfrwt>
<totfact> 0.61417942E+04</totfact>
</mgrwt>
</event>
<event>
12    1  0.1013215E-001  0.1901148E+03  0.7546771E-02  0.1158996E+00
         21   -1    0    0  503  502  0.00000000000E+00  0.00000000000E+00  0.77132472307E+03  0.77132472307E+03  0.00000000000E+00 0.  1.
         21   -1    0    0  501  503 -0.00000000000E+00 -0.00000000000E+00 -0.53934234776E+02  0.53934234776E+02  0.00000000000E+00 0.  1.
          6    2    1    2  501    0  0.69625775328E+02 -0.39413573279E+01  0.51297517500E+03  0.54610086114E+03  0.17383710040E+03 0.  0.
         24    2    3    3    0    0  0.47624724434E+02  0.58007781780E+02  0.21737868474E+03  0.24324591709E+03  0.79259488251E+02 0.  0.
         -6    2    1    2    0  502 -0.69625775328E+02  0.39413573279E+01  0.20441531329E+03  0.27915809671E+03  0.17686248829E+03 0.  0.
        -24    2    5    5    0    0  0.19428533868E+02  0.42572060137E+02  0.85720008368E+02  0.12575123051E+03  0.79218709331E+02 0.  0.
          5    1    3    3  501    0  0.22001050894E+02 -0.61949139108E+02  0.29559649026E+03  0.30285494404E+03  0.47000000000E+01 0. -1.
        -11    1    4    4    0    0  0.31295507918E+02  0.11553883209E+02  0.17538803382E+03  0.17853252768E+03  0.00000000000E+00 0.  1.
         12    1    4    4    0    0  0.16329216515E+02  0.46453898571E+02  0.41990650925E+02  0.64713389415E+02  0.00000000000E+00 0. -1.
         -5    1    5    5    0  502 -0.89054309196E+02 -0.38630702809E+02  0.11869530492E+03  0.15340686620E+03  0.47000000000E+01 0.  1.
         13    1    6    6    0    0  0.27056683207E+02  0.36580937727E+02  0.65259562116E+01  0.45965391499E+02  0.00000000000E+00 0. -1.
        -14    1    6    6    0    0 -0.76281493393E+01  0.59911224101E+01  0.79194052157E+02  0.79785839013E+02  0.00000000000E+00 0.  1.
<mgrwt>
<rscale>  2 0.18940803E+03</rscale>
<asrwt>0</asrwt>
<pdfrwt beam="1">  1       21 0.11866533E+00 0.19011476E+03</pdfrwt>
<pdfrwt beam="2">  1       21 0.82975751E-02 0.19011476E+03</pdfrwt>
<totfact> 0.61213157E+04</totfact>
</mgrwt>
</event>
<event>
12    1  0.1013215E-001  0.2157879E+03  0.7546771E-02  0.1137427E+00
         21   -1    0    0  501  502  0.00000000000E+00  0.00000000000E+00  0.27345283830E+03  0.27345283830E+03  0.00000000000E+00 0.  1.
         21   -1    0    0  502  503 -0.00000000000E+00 -0.00000000000E+00 -0.18925519978E+03  0.18925519978E+03  0.00000000000E+00 0.  1.
         -6    2    1    2    0  503  0.13027797638E+03  0.90785938036E+01 -0.33813777520E+02  0.21842116812E+03  0.17178376855E+03 0.  0.
        -24    2    3    3    0    0  0.66620367467E+02 -0.54417629086E+02  0.17051588821E+02  0.11501209218E+03  0.74414198574E+02 0.  0.
          6    2    1    2  501    0 -0.13027797638E+03 -0.90785938036E+01  0.11801141603E+03  0.24428686996E+03  0.16939483028E+03 0.  0.
         24    2    5    5    0    0 -0.79840625080E+02 -0.21723461453E+02 -0.13350069067E+00  0.11511980592E+03  0.80038226510E+02 0.  0.
          5    1    5    5  501    0 -0.50437351302E+02  0.12644867650E+02  0.11814491672E+03  0.12916706404E+03  0.47000000000E+01 0. -1.
        -11    1    6    6    0    0 -0.34442778518E+02 -0.13879046732E+01  0.38836841307E+02  0.51928137981E+02  0.00000000000E+00 0.  1.
         12    1    6    6    0    0 -0.45397846562E+02 -0.20335556780E+02 -0.38970341998E+02  0.63191667943E+02  0.00000000000E+00 0. -1.
         -5    1    3    3    0  503  0.63657608915E+02  0.63496222890E+02 -0.50865366341E+02  0.10340907594E+03  0.47000000000E+01 0.  1.
         11    1    4    4    0    0  0.73751549681E+01 -0.49979754312E+02  0.22593692123E+02  0.55342964102E+02  0.00000000000E+00 0. -1.
        -12    1    4    4    0    0  0.59245212499E+02 -0.44378747747E+01 -0.55421033020E+01  0.59669128077E+02  0.00000000000E+00 0.  1.
<mgrwt>
<rscale>  2 0.21531215E+03</rscale>
<asrwt>0</asrwt>
<pdfrwt beam="1">  1       21 0.42069667E-01 0.21578794E+03</pdfrwt>
<pdfrwt beam="2">  1       21 0.29116185E-01 0.21578794E+03</pdfrwt>
<totfact> 0.60776391E+04</totfact>
</mgrwt>
</event>
<event>
12    1  0.1013215E-001  0.3085192E+03  0.7546771E-02  0.1081121E+00
         21   -1    0    0  503  502  0.00000000000E+00  0.00000000000E+00  0.51469155794E+03  0.51469155794E+03  0.00000000000E+00 0.  1.
         21   -1    0    0  501  503 -0.00000000000E+00 -0.00000000000E+00 -0.20340698819E+03  0.20340698819E+03  0.00000000000E+00 0.  1.
          6    2    1    2  501    0 -0.12579459760E+03 -0.22238610569E+03  0.26464074757E+03  0.40607332231E+03  0.17199115391E+03 0.  0.
         24    2    3    3    0    0 -0.72639824035E+02 -0.54632987670E+02  0.57981670866E+02  0.13460214051E+03  0.80588800068E+02 0.  0.
         -6    2    1    2    0  502  0.12579459760E+03  0.22238610569E+03  0.46643822173E+02  0.31202522382E+03  0.17292840530E+03 0.  0.
        -24    2    5    5    0    0  0.13706836614E+03  0.13022729403E+03  0.69028855548E+02  0.21640344730E+03  0.79489521306E+02 0.  0.
          5    1    3    3  501    0 -0.53154773563E+02 -0.16775311802E+03  0.20665907671E+03  0.27147118180E+03  0.47000000000E+01 0. -1.
        -13    1    4    4    0    0 -0.66709352174E+02 -0.48931125265E+02  0.77537485864E+02  0.11338630606E+03  0.00000000000E+00 0.  1.
         14    1    4    4    0    0 -0.59304718616E+01 -0.57018624051E+01 -0.19555814998E+02  0.21215834455E+02  0.00000000000E+00 0. -1.
         -5    1    5    5    0  502 -0.11273768545E+02  0.92158811665E+02 -0.22385033375E+02  0.95621776516E+02  0.47000000000E+01 0.  1.
         11    1    6    6    0    0  0.13180632677E+03  0.80267115400E+02  0.45231269382E+02  0.16081537651E+03  0.00000000000E+00 0. -1.
        -12    1    6    6    0    0  0.52620393729E+01  0.49960178629E+02  0.23797586166E+02  0.55588070792E+02  0.00000000000E+00 0.  1.
<mgrwt>
<rscale>  2 0.30838802E+03</rscale>
<asrwt>0</asrwt>
<pdfrwt beam="1">  1       21 0.79183316E-01 0.30851920E+03</pdfrwt>
<pdfrwt beam="2">  1       21 0.31293383E-01 0.30851920E+03</pdfrwt>
<totfact> 0.12986030E+04</totfact>
</mgrwt>
</event>
<event>
12    1  0.1013215E-001  0.1807895E+03  0.7546771E-02  0.1167415E+00
         21   -1    0    0  501  502  0.00000000000E+00  0.00000000000E+00  0.84888419390E+02  0.84888419390E+02  0.00000000000E+00 0. -1.
         21   -1    0    0  502  503 -0.00000000000E+00 -0.00000000000E+00 -0.42752656900E+03  0.42752656900E+03  0.00000000000E+00 0. -1.
         -6    2    1    2    0  503  0.48723135269E+02 -0.28525018549E+02 -0.86821422298E+02  0.19916263170E+03  0.17011811750E+03 0.  0.
        -24    2    3    3    0    0  0.43075507382E+02  0.41051822263E+02 -0.75824523467E+02  0.12833993574E+03  0.84740954089E+02 0.  0.
          6    2    1    2  501    0 -0.48723135269E+02  0.28525018549E+02 -0.25581672731E+03  0.31325235669E+03  0.17174754848E+03 0.  0.
         24    2    5    5    0    0  0.22063369953E+02  0.62760576410E+02 -0.16205992419E+03  0.19079734098E+03  0.75594471021E+02 0.  0.
          5    1    5    5  501    0 -0.70786505222E+02 -0.34235557861E+02 -0.93756803115E+02  0.12245501572E+03  0.47000000000E+01 0. -1.
        -11    1    6    6    0    0 -0.23045349846E+02  0.46368804851E+02 -0.71162617787E+02  0.88007229152E+02  0.00000000000E+00 0.  1.
         12    1    6    6    0    0  0.45108719798E+02  0.16391771559E+02 -0.90897306407E+02  0.10279011182E+03  0.00000000000E+00 0. -1.
         -5    1    3    3    0  503  0.56476278870E+01 -0.69576840813E+02 -0.10996898831E+02  0.70822695953E+02  0.47000000000E+01 0.  1.
         13    1    4    4    0    0  0.54768110020E+02  0.26765891636E+02 -0.12299865734E+02  0.62187181374E+02  0.00000000000E+00 0. -1.
        -14    1    4    4    0    0 -0.11692602638E+02  0.14285930628E+02 -0.63524657733E+02  0.66152754368E+02  0.00000000000E+00 0.  1.
<mgrwt>
<rscale>  2 0.18040144E+03</rscale>
<asrwt>0</asrwt>
<pdfrwt beam="1">  1       21 0.13059757E-01 0.18078949E+03</pdfrwt>
<pdfrwt beam="2">  1       21 0.65773317E-01 0.18078949E+03</pdfrwt>
<totfact> 0.10755784E+05</totfact>
</mgrwt>
</event>
<event>
12    1  0.1013215E-001  0.2494693E+03  0.7546771E-02  0.1114027E+00
         21   -1    0    0  503  502  0.00000000000E+00  0.00000000000E+00  0.70572765668E+03  0.70572765668E+03  0.00000000000E+00 0.  1.
         21   -1    0    0  501  503 -0.00000000000E+00 -0.00000000000E+00 -0.11292447361E+03  0.11292447361E+03  0.00000000000E+00 0.  1.
          6    2    1    2  501    0  0.87092092329E+02 -0.15787380872E+03  0.10040993503E+03  0.26666838770E+03  0.16888073282E+03 0.  0.
         24    2    3    3    0    0  0.60796012145E+02 -0.30528826281E+02  0.21235568228E+02  0.11435654067E+03  0.89433241638E+02 0.  0.
         -6    2    1    2    0  502 -0.87092092329E+02  0.15787380872E+03  0.49239324805E+03  0.55198374259E+03  0.17241162761E+03 0.  0.
        -24    2    5    5    0    0 -0.10520657899E+03  0.13844918478E+03  0.48855242877E+03  0.52473869652E+03  0.80191164997E+02 0.  0.
          5    1    3    3  501    0  0.26296080183E+02 -0.12734498244E+03  0.79174366805E+02  0.15231184703E+03  0.47000000000E+01 0. -1.
        -13    1    4    4    0    0  0.31608481945E+02 -0.61909217565E+02  0.13172133154E+02  0.70748515477E+02  0.00000000000E+00 0.  1.
         14    1    4    4    0    0  0.29187530201E+02  0.31380391284E+02  0.80634350734E+01  0.43608025196E+02  0.00000000000E+00 0. -1.
         -5    1    5    5    0  502  0.18114486664E+02  0.19424623943E+02  0.38408192755E+01  0.27245046066E+02  0.47000000000E+01 0.  1.
         11    1    6    6    0    0 -0.49329277386E+01  0.30643579224E+02  0.18242266245E+03  0.18504429335E+03  0.00000000000E+00 0. -1.
        -12    1    6    6    0    0 -0.10027365125E+03  0.10780560555E+03  0.30612976632E+03  0.33969440318E+03  0.00000000000E+00 0.  1.
<mgrwt>
<rscale>  2 0.24886033E+03</rscale>
<asrwt>0</asrwt>
<pdfrwt beam="1">  1       21 0.10857348E+00 0.24946932E+03</pdfrwt>
<pdfrwt beam="2">  1       21 0.17372996E-01 0.24946932E+03</pdfrwt>
<totfact> 0.19557002E+04</totfact>
</mgrwt>
</event>
<event>
11    1  0.1013215E-001  0.2874848E+03  0.7546771E-02  0.1091691E+00
         21   -1    0    0  503  502  0.00000000000E+00  0.00000000000E+00  0.79209489911E+03  0.79209489911E+03  0.00000000000E+00 0. -1.
         21   -1    0    0  501  503 -0.00000000000E+00 -0.00000000000E+00 -0.20058473461E+03  0.20058473461E+03  0.00000000000E+00 0.  1.
          6    2    1    2  501    0 -0.38263594978E+02 -0.22601905815E+03 -0.48204472630E+02  0.29133640329E+03  0.17321810341E+03 0.  0.
         24    2    3    3    0    0 -0.90232190213E+02 -0.15182390989E+03 -0.45224837035E+02  0.20058055970E+03  0.83635681864E+02 0.  0.
         -6    2    1    2    0  502  0.38263594978E+02  0.22601905815E+03  0.63971463713E+03  0.70134323043E+03  0.17349003593E+03 0.  0.
          5    1    3    3  501    0  0.51968595235E+02 -0.74195148266E+02 -0.29796355953E+01  0.90755843587E+02  0.47000000000E+01 0. -1.
        -11    1    4    4    0    0  0.14397827585E+02 -0.32281501618E+02  0.20841708389E+00  0.35347365157E+02  0.00000000000E+00 0.  1.
         12    1    4    4    0    0 -0.10463001780E+03 -0.11954240827E+03 -0.45433254118E+02  0.16523319454E+03  0.00000000000E+00 0. -1.
         -5    1    5    5    0  502 -0.16183736268E+02 -0.15483569532E+02  0.12373491392E+02  0.26016293631E+02  0.47000000000E+01 0.  1.
         13    1    5    5    0    0  0.48535551214E+02  0.14723428663E+03  0.36802814584E+03  0.39934740643E+03  0.00000000000E+00 0. -1.
        -14    1    5    5    0    0  0.59117800323E+01  0.94268341052E+02  0.25931299989E+03  0.27597953037E+03  0.00000000000E+00 0.  1.
<mgrwt>
<rscale>  2 0.28744378E+03</rscale>
<asrwt>0</asrwt>
<pdfrwt beam="1">  1       21 0.12186075E+00 0.28748480E+03</pdfrwt>
<pdfrwt beam="2">  1       21 0.30859190E-01 0.28748480E+03</pdfrwt>
<totfact> 0.48068122E+03</totfact>
</mgrwt>
</event>
<event>
12    1  0.1013215E-001  0.1757095E+03  0.7546771E-02  0.1172274E+00
         21   -1    0    0  503  502  0.00000000000E+00  0.00000000000E+00  0.13969146636E+02  0.13969146636E+02  0.00000000000E+00 0.  1.
         21   -1    0    0  501  503 -0.00000000000E+00 -0.00000000000E+00 -0.25265291635E+04  0.25265291635E+04  0.00000000000E+00 0.  1.
          6    2    1    2  501    0  0.10600985214E+02 -0.18628190052E+02 -0.17178390471E+04  0.17268019034E+04  0.17439733789E+03 0.  0.
         24    2    3    3    0    0 -0.18488038138E+02  0.23632355210E+02 -0.15186569369E+04  0.15210648674E+04  0.80119554418E+02 0.  0.
         -6    2    1    2    0  502 -0.10600985214E+02  0.18628190052E+02 -0.79472096975E+03  0.81369640673E+03  0.17338117606E+03 0.  0.
        -24    2    5    5    0    0  0.20531323549E+02 -0.48443580149E+02 -0.35746940400E+03  0.37021149746E+03  0.80646527173E+02 0.  0.
          5    1    3    3  501    0  0.29089023352E+02 -0.42260545262E+02 -0.19918211020E+03  0.20573703602E+03  0.47000000000E+01 0. -1.
        -11    1    4    4    0    0  0.21902895876E+02 -0.14572953997E+02 -0.71690506445E+03  0.71738760741E+03  0.00000000000E+00 0.  1.
         12    1    4    4    0    0 -0.40390934014E+02  0.38205309208E+02 -0.80175187246E+03  0.80367725998E+03  0.00000000000E+00 0. -1.
         -5    1    5    5    0  502 -0.31132308762E+02  0.67071770201E+02 -0.43725156575E+03  0.44348490928E+03  0.47000000000E+01 0.  1.
         13    1    6    6    0    0  0.42907312390E+02 -0.90100038471E+01 -0.24595818077E+03  0.24983523433E+03  0.00000000000E+00 0. -1.
        -14    1    6    6    0    0 -0.22375988841E+02 -0.39433576302E+02 -0.11151122324E+03  0.12037626313E+03  0.00000000000E+00 0.  1.
<mgrwt>
<rscale>  2 0.17545680E+03</rscale>
<asrwt>0</asrwt>
<pdfrwt beam="1">  1       21 0.21491010E-02 0.17570948E+03</pdfrwt>
<pdfrwt beam="2">  1       21 0.38869653E+00 0.17570948E+03</pdfrwt>
<totfact> 0.11454731E+04</totfact>
</mgrwt>
</event>
<event>
12    1  0.1013215E-001  0.1842212E+03  0.7546771E-02  0.1164243E+00
         21   -1    0    0  501  502  0.00000000000E+00  0.00000000000E+00  0.13494460975E+04  0.13494460975E+04  0.00000000000E+00 0.  1.
         21   -1    0    0  502  503 -0.00000000000E+00 -0.00000000000E+00 -0.34400265614E+02  0.34400265614E+02  0.00000000000E+00 0.  1.
         -6    2    1    2    0  503 -0.57568895716E+02 -0.33709012469E+01  0.10240368169E+04  0.10404752941E+04  0.17496255225E+03 0.  0.
        -24    2    3    3    0    0  0.31176934997E+02 -0.18465780130E+02  0.59539764916E+03  0.60246010727E+03  0.84538949095E+02 0.  0.
          6    2    1    2  501    0  0.57568895716E+02  0.33709012469E+01  0.29100901497E+03  0.34337106892E+03  0.17289275130E+03 0.  0.
         24    2    5    5    0    0  0.74157002356E+02 -0.53089585901E+02  0.21653847471E+03  0.24834000423E+03  0.80411948988E+02 0.  0.
          5    1    5    5  501    0 -0.16588106640E+02  0.56460487148E+02  0.74470540256E+02  0.95031064694E+02  0.47000000000E+01 0. -1.
        -11    1    6    6    0    0  0.26095775085E+02 -0.55178311986E+02  0.17301728291E+03  0.18346829638E+03  0.00000000000E+00 0.  1.
         12    1    6    6    0    0  0.48061227271E+02  0.20887260851E+01  0.43521191804E+02  0.64871707851E+02  0.00000000000E+00 0. -1.
         -5    1    3    3    0  503 -0.88745830713E+02  0.15094878883E+02  0.42863916771E+03  0.43801518688E+03  0.47000000000E+01 0.  1.
         11    1    4    4    0    0  0.37133540922E+02  0.65861344848E+01  0.54059870802E+03  0.54191257610E+03  0.00000000000E+00 0. -1.
        -12    1    4    4    0    0 -0.59566059242E+01 -0.25051914614E+02  0.54798941146E+02  0.60547531169E+02  0.00000000000E+00 0.  1.
<mgrwt>
<rscale>  2 0.18372803E+03</rscale>
<asrwt>0</asrwt>
<pdfrwt beam="1">  1       21 0.20760705E+00 0.18422116E+03</pdfrwt>
<pdfrwt beam="2">  1       21 0.52923496E-02 0.18422116E+03</pdfrwt>
<totfact> 0.29522883E+04</totfact>
</mgrwt>
</event>
<event>
12    1  0.1013215E-001  0.1965643E+03  0.7546771E-02  0.1152735E+00
         21   -1    0    0  503  502  0.00000000000E+00  0.00000000000E+00  0.42590276355E+02  0.42590276355E+02  0.00000000000E+00 0. -1.
         21   -1    0    0  501  503 -0.00000000000E+00 -0.00000000000E+00 -0.10157579171E+04  0.10157579171E+04  0.00000000000E+00 0. -1.
          6    2    1    2  501    0 -0.53286863584E+01 -0.92212853512E+02 -0.66034977516E+03  0.68889921888E+03  0.17317246597E+03 0.  0.
         24    2    3    3    0    0 -0.11586272093E+02  0.19930093144E+02 -0.27326867937E+03  0.28582470644E+03  0.80551482743E+02 0.  0.
         -6    2    1    2    0  502  0.53286863584E+01  0.92212853512E+02 -0.31281786555E+03  0.36944897454E+03  0.17351058334E+03 0.  0.
        -24    2    5    5    0    0  0.65225619009E+02  0.35183605913E+02 -0.13725720557E+03  0.17532629952E+03  0.80046882034E+02 0.  0.
          5    1    3    3  501    0  0.62575857346E+01 -0.11214294666E+03 -0.38708109579E+03  0.40307451245E+03  0.47000000000E+01 0. -1.
        -11    1    4    4    0    0  0.27966605541E+02  0.21729397384E+02 -0.66940960390E+02  0.75732357114E+02  0.00000000000E+00 0.  1.
         12    1    4    4    0    0 -0.39552877634E+02 -0.17993042401E+01 -0.20632771898E+03  0.21009234932E+03  0.00000000000E+00 0. -1.
         -5    1    5    5    0  502 -0.59896932650E+02  0.57029247599E+02 -0.17556065999E+03  0.19412267502E+03  0.47000000000E+01 0.  1.
         13    1    6    6    0    0  0.44719290737E+02  0.27970894852E+02 -0.20544007040E+02  0.56606025723E+02  0.00000000000E+00 0. -1.
        -14    1    6    6    0    0  0.20506328272E+02  0.72127110601E+01 -0.11671319853E+03  0.11872027380E+03  0.00000000000E+00 0.  1.
<mgrwt>
<rscale>  2 0.19648967E+03</rscale>
<asrwt>0</asrwt>
<pdfrwt beam="1">  1       21 0.65523501E-02 0.19656431E+03</pdfrwt>
<pdfrwt beam="2">  1       21 0.15627045E+00 0.19656431E+03</pdfrwt>
<totfact> 0.45354373E+04</totfact>
</mgrwt>
</event>
<event>
12    1  0.1013215E-001  0.1947684E+03  0.7546771E-02  0.1156033E+00
         21   -1    0    0  501  502  0.00000000000E+00  0.00000000000E+00  0.18578829317E+03  0.18578829317E+03  0.00000000000E+00 0. -1.
         21   -1    0    0  502  503 -0.00000000000E+00 -0.00000000000E+00 -0.26808701594E+03  0.26808701594E+03  0.00000000000E+00 0. -1.
         -6    2    1    2    0  503  0.81751179246E+02 -0.24323394467E+02 -0.15833090754E+03  0.24479252017E+03  0.16607172795E+03 0.  0.
        -24    2    3    3    0    0  0.20060008920E+02  0.20565934338E+02 -0.14305277428E+03  0.16684148623E+03  0.80911208646E+02 0.  0.
          6    2    1    2  501    0 -0.81751179246E+02  0.24323394467E+02  0.76032184768E+02  0.20908278894E+03  0.17509950509E+03 0.  0.
         24    2    5    5    0    0  0.15021204392E+01 -0.82824500532E+01 -0.13992867097E+02  0.82114867914E+02  0.80474815056E+02 0.  0.
          5    1    5    5  501    0 -0.83253299686E+02  0.32605844520E+02  0.90025051865E+02  0.12696792102E+03  0.47000000000E+01 0. -1.
        -13    1    6    6    0    0 -0.35533436870E+02  0.10281732895E+02 -0.16726517284E+02  0.40596989391E+02  0.00000000000E+00 0.  1.
         14    1    6    6    0    0  0.37035557310E+02 -0.18564182948E+02  0.27336501865E+01  0.41517878524E+02  0.00000000000E+00 0. -1.
         -5    1    3    3    0  503  0.61691170326E+02 -0.44889328805E+02 -0.15278133253E+02  0.77951033941E+02  0.47000000000E+01 0.  1.
         11    1    4    4    0    0  0.20646151210E+02 -0.27057764338E+02 -0.35316579082E+02  0.49047394720E+02  0.00000000000E+00 0. -1.
        -12    1    4    4    0    0 -0.58614229042E+00  0.47623698677E+02 -0.10773619520E+03  0.11779409151E+03  0.00000000000E+00 0.  1.
<mgrwt>
<rscale>  2 0.19271765E+03</rscale>
<asrwt>0</asrwt>
<pdfrwt beam="1">  1       21 0.28582815E-01 0.19476837E+03</pdfrwt>
<pdfrwt beam="2">  1       21 0.41244156E-01 0.19476837E+03</pdfrwt>
<totfact> 0.66217364E+04</totfact>
</mgrwt>
</event>
<event>
12    1  0.1013215E-001  0.1916204E+03  0.7546771E-02  0.1158323E+00
         21   -1    0    0  503  502  0.00000000000E+00  0.00000000000E+00  0.83023156173E+02  0.83023156173E+02  0.00000000000E+00 0. -1.
         21   -1    0    0  501  503 -0.00000000000E+00 -0.00000000000E+00 -0.56339991931E+03  0.56339991931E+03  0.00000000000E+00 0. -1.
          6    2    1    2  501    0 -0.50550177202E+02  0.57657055129E+02 -0.85138214398E+02  0.20968282633E+03  0.17560955466E+03 0.  0.
         24    2    3    3    0    0 -0.36266313520E+02 -0.24620175523E+02 -0.16774353809E+01  0.91524614263E+02  0.80327720542E+02 0.  0.
         -6    2    1    2    0  502  0.50550177202E+02 -0.57657055129E+02 -0.39523854874E+03  0.43674024915E+03  0.16925979557E+03 0.  0.
        -24    2    5    5    0    0  0.66372385691E+02 -0.35142278029E+02 -0.11028879310E+03  0.15042624197E+03  0.69456195562E+02 0.  0.
          5    1    3    3  501    0 -0.14283863682E+02  0.82277230651E+02 -0.83460779017E+02  0.11815821207E+03  0.47000000000E+01 0. -1.
        -11    1    4    4    0    0 -0.14077961547E+02 -0.42686034449E+02 -0.27742237887E+02  0.52819677217E+02  0.00000000000E+00 0.  1.
         12    1    4    4    0    0 -0.22188351973E+02  0.18065858927E+02  0.26064802507E+02  0.38704937046E+02  0.00000000000E+00 0. -1.
         -5    1    5    5    0  502 -0.15822208489E+02 -0.22514777099E+02 -0.28494975564E+03  0.28631400718E+03  0.47000000000E+01 0.  1.
         13    1    6    6    0    0  0.54811902331E+02 -0.54240608070E+02 -0.98763437698E+02  0.12530205436E+03  0.00000000000E+00 0. -1.
        -14    1    6    6    0    0  0.11560483361E+02  0.19098330041E+02 -0.11525355403E+02  0.25124187610E+02  0.00000000000E+00 0.  1.
<mgrwt>
<rscale>  2 0.19015316E+03</rscale>
<asrwt>0</asrwt>
<pdfrwt beam="1">  1       21 0.12772793E-01 0.19162039E+03</pdfrwt>
<pdfrwt beam="2">  1       21 0.86676911E-01 0.19162039E+03</pdfrwt>
<totfact> 0.60149167E+04</totfact>
</mgrwt>
</event>
<event>
12    1  0.1013215E-001  0.1979045E+03  0.7546771E-02  0.1151721E+00
         21   -1    0    0  503  502  0.00000000000E+00  0.00000000000E+00  0.20083571549E+04  0.20083571549E+04  0.00000000000E+00 0. -1.
         21   -1    0    0  501  503 -0.00000000000E+00 -0.00000000000E+00 -0.38403344281E+02  0.38403344281E+02  0.00000000000E+00 0. -1.
          6    2    1    2  501    0  0.81021567368E+02  0.49356689392E+02  0.26406627697E+03  0.32943162643E+03  0.17260828686E+03 0.  0.
         24    2    3    3    0    0  0.11393414694E+03  0.75201308194E+02  0.21617280528E+03  0.26565814569E+03  0.72161915409E+02 0.  0.
         -6    2    1    2    0  502 -0.81021567368E+02 -0.49356689392E+02  0.17058875336E+04  0.17173288727E+04  0.17368247625E+03 0.  0.
        -24    2    5    5    0    0 -0.74718590255E+02 -0.97738535647E+02  0.13796701954E+04  0.13874495428E+04  0.79941832639E+02 0.  0.
          5    1    3    3  501    0 -0.32912579573E+02 -0.25844618802E+02  0.47893471685E+02  0.63773480736E+02  0.47000000000E+01 0. -1.
        -13    1    4    4    0    0  0.14337729950E+02 -0.12975196454E+02  0.14950949928E+02  0.24442936135E+02  0.00000000000E+00 0.  1.
         14    1    4    4    0    0  0.99596416990E+02  0.88176504648E+02  0.20122185535E+03  0.24121520956E+03  0.00000000000E+00 0. -1.
         -5    1    5    5    0  502 -0.63029771131E+01  0.48381846254E+02  0.32621733824E+03  0.32987932996E+03  0.47000000000E+01 0.  1.
         11    1    6    6    0    0 -0.90844336438E+02 -0.90385849568E+02  0.12550286911E+04  0.12615543234E+04  0.00000000000E+00 0. -1.
        -12    1    6    6    0    0  0.16125746183E+02 -0.73526860791E+01  0.12464150424E+03  0.12589521938E+03  0.00000000000E+00 0.  1.
<mgrwt>
<rscale>  2 0.19766854E+03</rscale>
<asrwt>0</asrwt>
<pdfrwt beam="1">  1       21 0.30897794E+00 0.19790447E+03</pdfrwt>
<pdfrwt beam="2">  1       21 0.59082084E-02 0.19790447E+03</pdfrwt>
<totfact> 0.60981192E+03</totfact>
</mgrwt>
</event>
<event>
12    1  0.1013215E-001  0.1966353E+03  0.7546771E-02  0.1153459E+00
         21   -1    0    0  501  502  0.00000000000E+00  0.00000000000E+00  0.10937265041E+03  0.10937265041E+03  0.00000000000E+00 0. -1.
         21   -1    0    0  502  503 -0.00000000000E+00 -0.00000000000E+00 -0.38033381448E+03  0.38033381448E+03  0.00000000000E+00 0.  1.
         -6    2    1    2    0  503  0.17835538246E+01 -0.83554050178E+02 -0.20722405371E+03  0.28299929200E+03  0.17367305627E+03 0.  0.
        -24    2    3    3    0    0 -0.35439769943E+02 -0.65527330965E+02 -0.21431116995E+03  0.24077541659E+03  0.80583591848E+02 0.  0.
          6    2    1    2  501    0 -0.17835538246E+01  0.83554050178E+02 -0.63737110363E+02  0.20670717289E+03  0.17799150463E+03 0.  0.
         24    2    5    5    0    0 -0.54236479546E+02  0.29029395586E+02  0.91263914268E+01  0.10156238096E+03  0.80295234510E+02 0.  0.
          5    1    5    5  501    0  0.52452925721E+02  0.54524654592E+02 -0.72863501790E+02  0.10514479192E+03  0.47000000000E+01 0. -1.
        -13    1    6    6    0    0  0.12590271157E+02  0.31660842242E+02  0.62185637765E-01  0.34072389501E+02  0.00000000000E+00 0.  1.
         14    1    6    6    0    0 -0.66826750703E+02 -0.26314466561E+01  0.90642057890E+01  0.67489991462E+02  0.00000000000E+00 0. -1.
         -5    1    3    3    0  503  0.37223323767E+02 -0.18026719213E+02  0.70871162407E+01  0.42223875408E+02  0.47000000000E+01 0.  1.
         13    1    4    4    0    0  0.26016666393E+02 -0.21242445447E+02 -0.75688662223E+02  0.82806292079E+02  0.00000000000E+00 0. -1.
        -14    1    4    4    0    0 -0.61456436335E+02 -0.44284885518E+02 -0.13862250772E+03  0.15796912451E+03  0.00000000000E+00 0.  1.
<mgrwt>
<rscale>  2 0.19565288E+03</rscale>
<asrwt>0</asrwt>
<pdfrwt beam="1">  1       21 0.16826562E-01 0.19663529E+03</pdfrwt>
<pdfrwt beam="2">  1       21 0.58512894E-01 0.19663529E+03</pdfrwt>
<totfact> 0.86783347E+04</totfact>
</mgrwt>
</event>
<event>
12    1  0.1013215E-001  0.2908076E+03  0.7546771E-02  0.1089961E+00
         21   -1    0    0  501  502  0.00000000000E+00  0.00000000000E+00  0.18355148274E+04  0.18355148274E+04  0.00000000000E+00 0. -1.
         21   -1    0    0  502  503 -0.00000000000E+00 -0.00000000000E+00 -0.15548018260E+03  0.15548018260E+03  0.00000000000E+00 0. -1.
         -6    2    1    2    0  503 -0.18491703155E+03 -0.14270296750E+03  0.46817020563E+01  0.29059019431E+03  0.17280710981E+03 0.  0.
        -24    2    3    3    0    0 -0.15439313682E+03 -0.10899329912E+03  0.64009889161E+02  0.21569043678E+03  0.81904326252E+02 0.  0.
          6    2    1    2  501    0  0.18491703155E+03  0.14270296750E+03  0.16753529427E+04  0.17004048157E+04  0.17323570358E+03 0.  0.
         24    2    5    5    0    0  0.64309287030E+02  0.12924311519E+03  0.11002324862E+04  0.11126012557E+04  0.80811899966E+02 0.  0.
          5    1    5    5  501    0  0.12060774452E+03  0.13459852318E+02  0.57512045651E+03  0.58780356001E+03  0.47000000000E+01 0. -1.
        -11    1    6    6    0    0  0.78085708986E+02  0.90566366391E+02  0.68654695730E+03  0.69688332542E+03  0.00000000000E+00 0.  1.
         12    1    6    6    0    0 -0.13776421956E+02  0.38676748795E+02  0.41368552891E+03  0.41571793025E+03  0.00000000000E+00 0. -1.
         -5    1    3    3    0  503 -0.30523894726E+02 -0.33709668382E+02 -0.59328187105E+02  0.74899757521E+02  0.47000000000E+01 0.  1.
         11    1    4    4    0    0 -0.14978909773E+03 -0.81806314279E+02  0.32358783991E+02  0.17371280251E+03  0.00000000000E+00 0. -1.
        -12    1    4    4    0    0 -0.46040390928E+01 -0.27186984843E+02  0.31651105170E+02  0.41977634275E+02  0.00000000000E+00 0.  1.
<mgrwt>
<rscale>  2 0.29074379E+03</rscale>
<asrwt>0</asrwt>
<pdfrwt beam="1">  1       21 0.28238688E+00 0.29080759E+03</pdfrwt>
<pdfrwt beam="2">  1       21 0.23920029E-01 0.29080759E+03</pdfrwt>
<totfact> 0.63757270E+02</totfact>
</mgrwt>
</event>
<event>
12    1  0.1013215E-001  0.1964486E+03  0.7546771E-02  0.1153110E+00
         21   -1    0    0  503  502  0.00000000000E+00  0.00000000000E+00  0.10563114536E+03  0.10563114536E+03  0.00000000000E+00 0.  1.
         21   -1    0    0  501  503 -0.00000000000E+00 -0.00000000000E+00 -0.36634035840E+03  0.36634035840E+03  0.00000000000E+00 0.  1.
          6    2    1    2  501    0  0.85595670364E+02 -0.14454236286E+02 -0.15523180625E+03  0.25037767813E+03  0.17622861376E+03 0.  0.
         24    2    3    3    0    0  0.10480818272E+03 -0.11647773184E+02 -0.47239828206E+02  0.14055348141E+03  0.80020334795E+02 0.  0.
         -6    2    1    2    0  502 -0.85595670364E+02  0.14454236286E+02 -0.10547740679E+03  0.22159382563E+03  0.17447864191E+03 0.  0.
        -24    2    5    5    0    0 -0.40847863426E+02  0.64561356425E+02 -0.10810370871E+03  0.15419889128E+03  0.79083307620E+02 0.  0.
          5    1    3    3  501    0 -0.19212512358E+02 -0.28064631019E+01 -0.10799197804E+03  0.10982419673E+03  0.47000000000E+01 0. -1.
        -13    1    4    4    0    0  0.87607711035E+01 -0.32037118280E+02 -0.19533272366E+02  0.38531503829E+02  0.00000000000E+00 0.  1.
         14    1    4    4    0    0  0.96047411619E+02  0.20389345096E+02 -0.27706555840E+02  0.10202197758E+03  0.00000000000E+00 0. -1.
         -5    1    5    5    0  502 -0.44747806938E+02 -0.50107120139E+02  0.26263019205E+01  0.67394934351E+02  0.47000000000E+01 0.  1.
         13    1    6    6    0    0 -0.21559578944E+02 -0.15431169637E+01 -0.74507512364E+02  0.77579417714E+02  0.00000000000E+00 0. -1.
        -14    1    6    6    0    0 -0.19288284482E+02  0.66104473388E+02 -0.33596196351E+02  0.76619473566E+02  0.00000000000E+00 0.  1.
<mgrwt>
<rscale>  2 0.19605538E+03</rscale>
<asrwt>0</asrwt>
<pdfrwt beam="1">  1       21 0.16250946E-01 0.19644864E+03</pdfrwt>
<pdfrwt beam="2">  1       21 0.56360055E-01 0.19644864E+03</pdfrwt>
<totfact> 0.10021776E+05</totfact>
</mgrwt>
</event>
<event>
12    1  0.1013215E-001  0.2319976E+03  0.7546771E-02  0.1125302E+00
         21   -1    0    0  503  502  0.00000000000E+00  0.00000000000E+00  0.55049735891E+03  0.55049735891E+03  0.00000000000E+00 0.  1.
         21   -1    0    0  501  503 -0.00000000000E+00 -0.00000000000E+00 -0.98558806360E+02  0.98558806360E+02  0.00000000000E+00 0.  1.
          6    2    1    2  501    0  0.68788917787E+02  0.13769668412E+03  0.19419903275E+03  0.30228169553E+03  0.17311460684E+03 0.  0.
         24    2    3    3    0    0  0.86942052489E+01  0.14460090468E+02  0.30093477087E+02  0.88386029632E+02  0.81374378336E+02 0.  0.
         -6    2    1    2    0  502 -0.68788917787E+02 -0.13769668412E+03  0.25773951980E+03  0.34677446974E+03  0.17358162567E+03 0.  0.
        -24    2    5    5    0    0 -0.69489794977E+02 -0.28867751198E+02  0.18569148839E+03  0.21617111335E+03  0.81156901893E+02 0.  0.
          5    1    3    3  501    0  0.60094712538E+02  0.12323659365E+03  0.16410555566E+03  0.21389566589E+03  0.47000000000E+01 0. -1.
        -11    1    4    4    0    0  0.74290795199E+01 -0.33435950244E+02  0.19142995976E+02  0.39237842527E+02  0.00000000000E+00 0.  1.
         12    1    4    4    0    0  0.12651257291E+01  0.47896040713E+02  0.10950481112E+02  0.49148187104E+02  0.00000000000E+00 0. -1.
         -5    1    5    5    0  502  0.70087719012E+00 -0.10882893292E+03  0.72048031409E+02  0.13060335638E+03  0.47000000000E+01 0.  1.
         13    1    6    6    0    0  0.40771549576E+01  0.21198736660E+02  0.39976368090E+02  0.45432583398E+02  0.00000000000E+00 0. -1.
        -14    1    6    6    0    0 -0.73566949935E+02 -0.50066487857E+02  0.14571512030E+03  0.17073852996E+03  0.00000000000E+00 0.  1.
<mgrwt>
<rscale>  2 0.23191022E+03</rscale>
<asrwt>0</asrwt>
<pdfrwt beam="1">  1       21 0.84691899E-01 0.23199757E+03</pdfrwt>
<pdfrwt beam="2">  1       21 0.15162894E-01 0.23199757E+03</pdfrwt>
<totfact> 0.45593106E+04</totfact>
</mgrwt>
</event>
<event>
12    1  0.1013215E-001  0.2493231E+03  0.7546771E-02  0.1113832E+00
         21   -1    0    0  503  502  0.00000000000E+00  0.00000000000E+00  0.13839514017E+03  0.13839514017E+03  0.00000000000E+00 0.  1.
         21   -1    0    0  501  503 -0.00000000000E+00 -0.00000000000E+00 -0.54126736856E+03  0.54126736856E+03  0.00000000000E+00 0. -1.
          6    2    1    2  501    0 -0.84949806131E+02  0.15475042445E+03 -0.34268121476E+03  0.42378347546E+03  0.17606207908E+03 0.  0.
         24    2    3    3    0    0 -0.21940892462E+02  0.90180962894E+02 -0.81678887420E+02  0.14758853806E+03  0.80603517823E+02 0.  0.
         -6    2    1    2    0  502  0.84949806131E+02 -0.15475042445E+03 -0.60191013632E+02  0.25587903328E+03  0.17517693376E+03 0.  0.
        -24    2    5    5    0    0  0.68629313987E+02 -0.95532195900E+02  0.30110089801E+02  0.14656509850E+03  0.82087315694E+02 0.  0.
          5    1    3    3  501    0 -0.63008913669E+02  0.64569461555E+02 -0.26100232734E+03  0.27619493740E+03  0.47000000000E+01 0. -1.
        -13    1    4    4    0    0  0.24022297277E+02  0.60234739466E+02 -0.60796561391E+02  0.88890474641E+02  0.00000000000E+00 0.  1.
         14    1    4    4    0    0 -0.45963189738E+02  0.29946223428E+02 -0.20882326029E+02  0.58698063417E+02  0.00000000000E+00 0. -1.
         -5    1    5    5    0  502  0.16320492144E+02 -0.59218228549E+02 -0.90301103434E+02  0.10931393478E+03  0.47000000000E+01 0.  1.
         13    1    6    6    0    0 -0.12966719699E+01 -0.39100656664E+02 -0.19726056841E+02  0.43813925050E+02  0.00000000000E+00 0. -1.
        -14    1    6    6    0    0  0.69925985957E+02 -0.56431539236E+02  0.49836146643E+02  0.10275117345E+03  0.00000000000E+00 0.  1.
<mgrwt>
<rscale>  2 0.24916691E+03</rscale>
<asrwt>0</asrwt>
<pdfrwt beam="1">  1       21 0.21291560E-01 0.24932312E+03</pdfrwt>
<pdfrwt beam="2">  1       21 0.83271901E-01 0.24932312E+03</pdfrwt>
<totfact> 0.25016556E+04</totfact>
</mgrwt>
</event>
<event>
12    1  0.1013215E-001  0.1753426E+03  0.7546771E-02  0.1172729E+00
         21   -1    0    0  503  502  0.00000000000E+00  0.00000000000E+00  0.22462770316E+03  0.22462770316E+03  0.00000000000E+00 0. -1.
         21   -1    0    0  501  503 -0.00000000000E+00 -0.00000000000E+00 -0.28790846044E+03  0.28790846044E+03  0.00000000000E+00 0. -1.
          6    2    1    2  501    0 -0.11683392903E+02 -0.60824086218E+01 -0.21795967884E+03  0.27973463373E+03  0.17484720857E+03 0.  0.
         24    2    3    3    0    0 -0.35311849474E+02 -0.51574272831E+02 -0.74613006321E+02  0.12742517181E+03  0.82238928536E+02 0.  0.
         -6    2    1    2    0  502  0.11683392903E+02  0.60824086218E+01  0.15467892155E+03  0.23280152988E+03  0.17348627086E+03 0.  0.
        -24    2    5    5    0    0  0.19538477779E+02  0.47791797336E+02  0.16315080868E+03  0.18926719473E+03  0.80858373840E+02 0.  0.
          5    1    3    3  501    0  0.23628456571E+02  0.45491864209E+02 -0.14334667251E+03  0.15230946192E+03  0.47000000000E+01 0. -1.
        -13    1    4    4    0    0 -0.39285987878E+02 -0.14632705022E+02  0.23234472454E+01  0.41986942100E+02  0.00000000000E+00 0.  1.
         14    1    4    4    0    0  0.39741384044E+01 -0.36941567808E+02 -0.76936453566E+02  0.85438229707E+02  0.00000000000E+00 0. -1.
         -5    1    5    5    0  502 -0.78550848754E+01 -0.41709388714E+02 -0.84718871294E+01  0.43534335149E+02  0.47000000000E+01 0.  1.
         13    1    6    6    0    0 -0.13032553172E+02 -0.11904519243E+02  0.79629389845E+02  0.81562275272E+02  0.00000000000E+00 0. -1.
        -14    1    6    6    0    0  0.32571030951E+02  0.59696316579E+02  0.83521418838E+02  0.10770491946E+03  0.00000000000E+00 0.  1.
<mgrwt>
<rscale>  2 0.17500239E+03</rscale>
<asrwt>0</asrwt>
<pdfrwt beam="1">  1       21 0.34558108E-01 0.17534265E+03</pdfrwt>
<pdfrwt beam="2">  1       21 0.44293609E-01 0.17534265E+03</pdfrwt>
<totfact> 0.39851120E+04</totfact>
</mgrwt>
</event>
<event>
12    1  0.1013215E-001  0.2162433E+03  0.7546771E-02  0.1136744E+00
         21   -1    0    0  501  502  0.00000000000E+00  0.00000000000E+00  0.14959426247E+04  0.14959426247E+04  0.00000000000E+00 0. -1.
         21   -1    0    0  502  503 -0.00000000000E+00 -0.00000000000E+00 -0.31768006963E+02  0.31768006963E+02  0.00000000000E+00 0. -1.
         -6    2    1    2    0  503  0.94055653623E+02  0.88041885723E+02  0.83107936042E+03  0.85875145577E+03  0.17367590464E+03 0.  0.
        -24    2    3    3    0    0  0.56948526455E+02  0.77154525427E+02  0.28755812424E+03  0.31383595986E+03  0.81285788595E+02 0.  0.
          6    2    1    2  501    0 -0.94055653623E+02 -0.88041885723E+02  0.63309525736E+03  0.66895917594E+03  0.17349044515E+03 0.  0.
         24    2    5    5    0    0 -0.11895331391E+03 -0.31449117030E+02  0.36025723851E+03  0.38916405538E+03  0.80774044417E+02 0.  0.
          5    1    5    5  501    0  0.24897660284E+02 -0.56592768693E+02  0.27283801885E+03  0.27979512055E+03  0.47000000000E+01 0. -1.
        -13    1    6    6    0    0 -0.72515500181E+02  0.21393123549E+02  0.21161723593E+03  0.22471764070E+03  0.00000000000E+00 0.  1.
         14    1    6    6    0    0 -0.46437813726E+02 -0.52842240579E+02  0.14864000258E+03  0.16444641468E+03  0.00000000000E+00 0. -1.
         -5    1    3    3    0  503  0.37107127168E+02  0.10887360297E+02  0.54352123618E+03  0.54491549591E+03  0.47000000000E+01 0.  1.
         13    1    4    4    0    0  0.18735755691E+02  0.77990107311E+02  0.23862320049E+03  0.25174295858E+03  0.00000000000E+00 0. -1.
        -14    1    4    4    0    0  0.38212770764E+02 -0.83558188413E+00  0.48934923746E+02  0.62093001285E+02  0.00000000000E+00 0.  1.
<mgrwt>
<rscale>  2 0.21620605E+03</rscale>
<asrwt>0</asrwt>
<pdfrwt beam="1">  1       21 0.23014496E+00 0.21624329E+03</pdfrwt>
<pdfrwt beam="2">  1       21 0.48873869E-02 0.21624329E+03</pdfrwt>
<totfact> 0.23956328E+04</totfact>
</mgrwt>
</event>
<event>
12    1  0.1013215E-001  0.1936069E+03  0.7546771E-02  0.1155299E+00
         21   -1    0    0  503  502  0.00000000000E+00  0.00000000000E+00  0.12535330546E+03  0.12535330546E+03  0.00000000000E+00 0.  1.
         21   -1    0    0  501  503 -0.00000000000E+00 -0.00000000000E+00 -0.30340481364E+03  0.30340481364E+03  0.00000000000E+00 0.  1.
          6    2    1    2  501    0  0.92644268991E+01  0.86355308154E+02 -0.11576454626E+03  0.22537840712E+03  0.17277420923E+03 0.  0.
         24    2    3    3    0    0  0.39510667655E+02  0.11780381003E+03 -0.80494080804E+02  0.16907619506E+03  0.81661693427E+02 0.  0.
         -6    2    1    2    0  502 -0.92644268991E+01 -0.86355308154E+02 -0.62286961925E+02  0.20337971199E+03  0.17303344408E+03 0.  0.
        -24    2    5    5    0    0 -0.13321989292E+02 -0.10483144644E+03 -0.96627354214E+02  0.16389320744E+03  0.79730987094E+02 0.  0.
          5    1    3    3  501    0 -0.30246240756E+02 -0.31448501879E+02 -0.35270465452E+02  0.56302212066E+02  0.47000000000E+01 0. -1.
        -11    1    4    4    0    0 -0.11681745286E+02  0.41843374563E+02 -0.61873929667E+02  0.75602343483E+02  0.00000000000E+00 0.  1.
         12    1    4    4    0    0  0.51192412941E+02  0.75960435470E+02 -0.18620151137E+02  0.93473851573E+02  0.00000000000E+00 0. -1.
         -5    1    5    5    0  502  0.40575623932E+01  0.18476138284E+02  0.34340392289E+02  0.39486504543E+02  0.47000000000E+01 0.  1.
         13    1    6    6    0    0 -0.22450806252E+02 -0.79644730984E+01  0.37327273495E+01  0.24112336813E+02  0.00000000000E+00 0. -1.
        -14    1    6    6    0    0  0.91288169601E+01 -0.96866973339E+02 -0.10036008156E+03  0.13978087063E+03  0.00000000000E+00 0.  1.
<mgrwt>
<rscale>  2 0.19354899E+03</rscale>
<asrwt>0</asrwt>
<pdfrwt beam="1">  1       21 0.19285124E-01 0.19360693E+03</pdfrwt>
<pdfrwt beam="2">  1       21 0.46677663E-01 0.19360693E+03</pdfrwt>
<totfact> 0.10853332E+05</totfact>
</mgrwt>
</event>
<event>
12    1  0.1013215E-001  0.1896017E+03  0.7546771E-02  0.1159062E+00
         21   -1    0    0  501  502  0.00000000000E+00  0.00000000000E+00  0.53478424616E+02  0.53478424616E+02  0.00000000000E+00 0.  1.
         21   -1    0    0  502  503 -0.00000000000E+00 -0.00000000000E+00 -0.15667574108E+04  0.15667574108E+04  0.00000000000E+00 0.  1.
         -6    2    1    2    0  503 -0.22482198200E+02 -0.73112578789E+02 -0.13691535298E+04  0.13820742049E+04  0.17232765736E+03 0.  0.
        -24    2    3    3    0    0 -0.41635302044E+02 -0.98457393379E+02 -0.73659266950E+03  0.74869869788E+03  0.80954448639E+02 0.  0.
          6    2    1    2  501    0  0.22482198200E+02  0.73112578789E+02 -0.14412545638E+03  0.23816163044E+03  0.17348751143E+03 0.  0.
         24    2    5    5    0    0  0.11063730920E+01  0.68951427378E+02 -0.15397241374E+02  0.10751981317E+03  0.81042654094E+02 0.  0.
          5    1    5    5  501    0  0.21375825108E+02  0.41611514115E+01 -0.12872821501E+03  0.13064181727E+03  0.47000000000E+01 0. -1.
        -13    1    6    6    0    0  0.35654313555E+01  0.19802358025E+02  0.32902198762E+02  0.38566829886E+02  0.00000000000E+00 0.  1.
         14    1    6    6    0    0 -0.24590582635E+01  0.49149069353E+02 -0.48299440136E+02  0.68952983280E+02  0.00000000000E+00 0. -1.
         -5    1    3    3    0  503  0.19153103844E+02  0.25344814590E+02 -0.63256086025E+03  0.63337550705E+03  0.47000000000E+01 0.  1.
         11    1    4    4    0    0  0.86443770412E+01 -0.19893471528E+02 -0.36797371569E+02  0.42714424007E+02  0.00000000000E+00 0. -1.
        -12    1    4    4    0    0 -0.50279679086E+02 -0.78563921851E+02 -0.69979529794E+03  0.70598427387E+03  0.00000000000E+00 0.  1.
<mgrwt>
<rscale>  2 0.18933599E+03</rscale>
<asrwt>0</asrwt>
<pdfrwt beam="1">  1       21 0.82274507E-02 0.18960173E+03</pdfrwt>
<pdfrwt beam="2">  1       21 0.24103958E+00 0.18960173E+03</pdfrwt>
<totfact> 0.86090625E+03</totfact>
</mgrwt>
</event>
<event>
12    1  0.1013215E-001  0.2204017E+03  0.7546771E-02  0.1134082E+00
         21   -1    0    0  501  502  0.00000000000E+00  0.00000000000E+00  0.43705426621E+03  0.43705426621E+03  0.00000000000E+00 0.  1.
         21   -1    0    0  502  503 -0.00000000000E+00 -0.00000000000E+00 -0.12048603034E+03  0.12048603034E+03  0.00000000000E+00 0.  1.
         -6    2    1    2    0  503  0.39794604015E+02 -0.12607999307E+03  0.76171553989E+02  0.23319307841E+03  0.17634378645E+03 0.  0.
        -24    2    3    3    0    0  0.76049416238E+02 -0.13815873797E+03  0.80777638657E+02  0.19441662288E+03  0.80009035458E+02 0.  0.
          6    2    1    2  501    0 -0.39794604015E+02  0.12607999307E+03  0.24039668188E+03  0.32434721814E+03  0.17300513892E+03 0.  0.
         24    2    5    5    0    0  0.40677246051E+01  0.41199519415E+02  0.20233832258E+03  0.22139515457E+03  0.79756322014E+02 0.  0.
          5    1    5    5  501    0 -0.43862328620E+02  0.84880473658E+02  0.38058359307E+02  0.10295206357E+03  0.47000000000E+01 0. -1.
        -11    1    6    6    0    0 -0.35886835020E+02  0.89046480149E+01  0.65272976115E+02  0.75018125109E+02  0.00000000000E+00 0.  1.
         12    1    6    6    0    0  0.39954559625E+02  0.32294871400E+02  0.13706534646E+03  0.14637702946E+03  0.00000000000E+00 0. -1.
         -5    1    3    3    0  503 -0.36254812223E+02  0.12078744901E+02 -0.46060846681E+01  0.38776455532E+02  0.47000000000E+01 0.  1.
         13    1    4    4    0    0  0.87229703312E+01  0.90799588685E+01  0.15201621052E+02  0.19738924669E+02  0.00000000000E+00 0. -1.
        -14    1    4    4    0    0  0.67326445907E+02 -0.14723869684E+03  0.65576017605E+02  0.17467769821E+03  0.00000000000E+00 0.  1.
<mgrwt>
<rscale>  2 0.21973315E+03</rscale>
<asrwt>0</asrwt>
<pdfrwt beam="1">  1       21 0.67239117E-01 0.22040169E+03</pdfrwt>
<pdfrwt beam="2">  1       21 0.18536313E-01 0.22040169E+03</pdfrwt>
<totfact> 0.53123222E+04</totfact>
</mgrwt>
</event>
<event>
12    1  0.1013215E-001  0.1866806E+03  0.7546771E-02  0.1161662E+00
         21   -1    0    0  503  502  0.00000000000E+00  0.00000000000E+00  0.13926588565E+03  0.13926588565E+03  0.00000000000E+00 0.  1.
         21   -1    0    0  501  503 -0.00000000000E+00 -0.00000000000E+00 -0.41251191357E+03  0.41251191357E+03  0.00000000000E+00 0.  1.
          6    2    1    2  501    0  0.70930955498E+02  0.83837264046E+01 -0.31002577871E+03  0.36150853178E+03  0.17167104524E+03 0.  0.
         24    2    3    3    0    0  0.35928436951E+02 -0.59265313085E+02 -0.14148435625E+03  0.17649537027E+03  0.79558549179E+02 0.  0.
         -6    2    1    2    0  502 -0.70930955498E+02 -0.83837264046E+01  0.36779750788E+02  0.19026926744E+03  0.17247653970E+03 0.  0.
        -24    2    5    5    0    0 -0.43645753816E+02  0.45757110721E+02 -0.22615758991E+02  0.10526556718E+03  0.81059867211E+02 0.  0.
          5    1    3    3  501    0  0.35002518546E+02  0.67649039490E+02 -0.16854142246E+03  0.18501316152E+03  0.47000000000E+01 0. -1.
        -13    1    4    4    0    0  0.46366555973E+02 -0.30861539620E+02 -0.34970919244E+02  0.65766688630E+02  0.00000000000E+00 0.  1.
         14    1    4    4    0    0 -0.10438119022E+02 -0.28403773465E+02 -0.10651343700E+03  0.11072868164E+03  0.00000000000E+00 0. -1.
         -5    1    5    5    0  502 -0.27285201681E+02 -0.54140837125E+02  0.59395509779E+02  0.85003700257E+02  0.47000000000E+01 0.  1.
         11    1    6    6    0    0  0.32896847518E+01  0.49014158670E+02 -0.30119154589E+02  0.57622679988E+02  0.00000000000E+00 0. -1.
        -12    1    6    6    0    0 -0.46935438568E+02 -0.32570479492E+01  0.75033955979E+01  0.47642887196E+02  0.00000000000E+00 0.  1.
<mgrwt>
<rscale>  2 0.18649433E+03</rscale>
<asrwt>0</asrwt>
<pdfrwt beam="1">  1       21 0.21425522E-01 0.18668059E+03</pdfrwt>
<pdfrwt beam="2">  1       21 0.63463369E-01 0.18668059E+03</pdfrwt>
<totfact> 0.46712409E+04</totfact>
</mgrwt>
</event>
<event>
12    1  0.1013215E-001  0.1984873E+03  0.7546771E-02  0.1151373E+00
         21   -1    0    0  503  502  0.00000000000E+00  0.00000000000E+00  0.14088557638E+03  0.14088557638E+03  0.00000000000E+00 0. -1.
         21   -1    0    0  501  503 -0.00000000000E+00 -0.00000000000E+00 -0.36396879760E+03  0.36396879760E+03  0.00000000000E+00 0. -1.
          6    2    1    2  501    0  0.58489010401E+02  0.78795772023E+02 -0.23505346860E+03  0.30764809534E+03  0.17253254603E+03 0.  0.
         24    2    3    3    0    0 -0.14161878646E+02  0.92385098264E+02 -0.11846661866E+03  0.16952711560E+03  0.77262785329E+02 0.  0.
         -6    2    1    2    0  502 -0.58489010401E+02 -0.78795772023E+02  0.11970247381E+02  0.19720627864E+03  0.17063789581E+03 0.  0.
        -24    2    5    5    0    0 -0.16263695811E+01 -0.78506340406E+01  0.53662548629E+02  0.97071816501E+02  0.80492179127E+02 0.  0.
          5    1    3    3  501    0  0.72650889047E+02 -0.13589326241E+02 -0.11658684994E+03  0.13812097974E+03  0.47000000000E+01 0. -1.
        -11    1    4    4    0    0  0.70287597455E+01  0.79461304191E+02 -0.44147794086E+02  0.91173077441E+02  0.00000000000E+00 0.  1.
         12    1    4    4    0    0 -0.21190638392E+02  0.12923794072E+02 -0.74318824578E+02  0.78354038156E+02  0.00000000000E+00 0. -1.
         -5    1    5    5    0  502 -0.56862640820E+02 -0.70945137982E+02 -0.41692301248E+02  0.10013446214E+03  0.47000000000E+01 0.  1.
         11    1    6    6    0    0 -0.30311199711E+02  0.86159612722E+01  0.55633263903E+02  0.63937967351E+02  0.00000000000E+00 0. -1.
        -12    1    6    6    0    0  0.28684830130E+02 -0.16466595313E+02 -0.19707152739E+01  0.33133849149E+02  0.00000000000E+00 0.  1.
<mgrwt>
<rscale>  2 0.19807487E+03</rscale>
<asrwt>0</asrwt>
<pdfrwt beam="1">  1       21 0.21674704E-01 0.19848732E+03</pdfrwt>
<pdfrwt beam="2">  1       21 0.55995200E-01 0.19848732E+03</pdfrwt>
<totfact> 0.59452152E+04</totfact>
</mgrwt>
</event>
<event>
12    1  0.1013215E-001  0.1834578E+03  0.7546771E-02  0.1164958E+00
         21   -1    0    0  501  502  0.00000000000E+00  0.00000000000E+00  0.24985328313E+03  0.24985328313E+03  0.00000000000E+00 0. -1.
         21   -1    0    0  502  503 -0.00000000000E+00 -0.00000000000E+00 -0.14538405647E+03  0.14538405647E+03  0.00000000000E+00 0.  1.
         -6    2    1    2    0  503  0.53972121538E+01 -0.56338890713E+02 -0.50205701906E+01  0.18159095967E+03  0.17247280946E+03 0.  0.
        -24    2    3    3    0    0 -0.45907441904E+02 -0.78912644642E+02 -0.15970786975E+02  0.12428704059E+03  0.82810045974E+02 0.  0.
          6    2    1    2  501    0 -0.53972121538E+01  0.56338890713E+02  0.10948979685E+03  0.21364637994E+03  0.17450948267E+03 0.  0.
         24    2    5    5    0    0  0.24377719333E+02  0.45871394510E+02 -0.29879890334E+01  0.96729925413E+02  0.81543193203E+02 0.  0.
          5    1    5    5  501    0 -0.29774931487E+02  0.10467496203E+02  0.11247778588E+03  0.11691645452E+03  0.47000000000E+01 0. -1.
        -11    1    6    6    0    0 -0.26872432345E+02  0.64440283129E+01  0.12359255468E+02  0.30272170665E+02  0.00000000000E+00 0.  1.
         12    1    6    6    0    0  0.51250151679E+02  0.39427366197E+02 -0.15347244502E+02  0.66457754748E+02  0.00000000000E+00 0. -1.
         -5    1    3    3    0  503  0.51304654058E+02  0.22573753929E+02  0.10950216784E+02  0.57303919081E+02  0.47000000000E+01 0.  1.
         11    1    4    4    0    0 -0.11526074874E+02 -0.76832882257E+02  0.13620208526E+02  0.78877451012E+02  0.00000000000E+00 0. -1.
        -12    1    4    4    0    0 -0.34381367030E+02 -0.20797623858E+01 -0.29590995501E+02  0.45409589573E+02  0.00000000000E+00 0.  1.
<mgrwt>
<rscale>  2 0.18297180E+03</rscale>
<asrwt>0</asrwt>
<pdfrwt beam="1">  1       21 0.38438967E-01 0.18345779E+03</pdfrwt>
<pdfrwt beam="2">  1       21 0.22366778E-01 0.18345779E+03</pdfrwt>
<totfact> 0.12250208E+05</totfact>
</mgrwt>
</event>
<event>
12    1  0.1013215E-001  0.2440032E+03  0.7546771E-02  0.1118309E+00
         21   -1    0    0  501  502  0.00000000000E+00  0.00000000000E+00  0.24350460840E+03  0.24350460840E+03  0.00000000000E+00 0.  1.
         21   -1    0    0  502  503 -0.00000000000E+00 -0.00000000000E+00 -0.23804974363E+03  0.23804974363E+03  0.00000000000E+00 0. -1.
         -6    2    1    2    0  503 -0.17274073631E+03  0.10978033725E+02  0.13629394233E+02  0.24438353857E+03  0.17198161044E+03 0.  0.
        -24    2    3    3    0    0 -0.11651225000E+03 -0.38670566180E+02 -0.38771099415E+02  0.15276188239E+03  0.82234284051E+02 0.  0.
          6    2    1    2  501    0  0.17274073631E+03 -0.10978033725E+02 -0.81745294641E+01  0.23717081347E+03  0.16193607573E+03 0.  0.
         24    2    5    5    0    0  0.92744696682E+02 -0.68703030259E+02 -0.78078387166E+01  0.13840965692E+03  0.75990694514E+02 0.  0.
          5    1    5    5  501    0  0.79996039632E+02  0.57724996534E+02 -0.36669074753E+00  0.98761156554E+02  0.47000000000E+01 0. -1.
        -13    1    6    6    0    0  0.15828493228E+02 -0.49440334265E+02  0.18124313653E+02  0.54985257984E+02  0.00000000000E+00 0.  1.
         14    1    6    6    0    0  0.76916203453E+02 -0.19262695994E+02 -0.25932152370E+02  0.83424398932E+02  0.00000000000E+00 0. -1.
         -5    1    3    3    0  503 -0.56228486315E+02  0.49648599905E+02  0.52400493648E+02  0.91621656176E+02  0.47000000000E+01 0.  1.
         11    1    4    4    0    0 -0.12353773366E+03 -0.16679652669E+02 -0.31909734639E+02  0.12867794533E+03  0.00000000000E+00 0. -1.
        -12    1    4    4    0    0  0.70254836579E+01 -0.21990913511E+02 -0.68613647764E+01  0.24083937059E+02  0.00000000000E+00 0.  1.
<mgrwt>
<rscale>  2 0.24224086E+03</rscale>
<asrwt>0</asrwt>
<pdfrwt beam="1">  1       21 0.37462248E-01 0.24400318E+03</pdfrwt>
<pdfrwt beam="2">  1       21 0.36623037E-01 0.24400318E+03</pdfrwt>
<totfact> 0.48276863E+04</totfact>
</mgrwt>
</event>
<event>
12    1  0.1013215E-001  0.1904885E+03  0.7546771E-02  0.1158512E+00
         21   -1    0    0  501  502  0.00000000000E+00  0.00000000000E+00  0.14920161379E+03  0.14920161379E+03  0.00000000000E+00 0.  1.
         21   -1    0    0  502  503 -0.00000000000E+00 -0.00000000000E+00 -0.40331793669E+03  0.40331793669E+03  0.00000000000E+00 0.  1.
         -6    2    1    2    0  503 -0.72865028073E+02 -0.14879556451E+02 -0.30305118074E+03  0.35794676000E+03  0.17537146670E+03 0.  0.
        -24    2    3    3    0    0 -0.85061634465E+02 -0.63434284322E+02 -0.25882803334E+03  0.29098337021E+03  0.80124782766E+02 0.  0.
          6    2    1    2  501    0  0.72865028073E+02  0.14879556451E+02  0.48934857836E+02  0.19457279047E+03  0.17301224513E+03 0.  0.
         24    2    5    5    0    0  0.39537563412E+02 -0.86525065763E+01  0.96263782531E+02  0.13191024182E+03  0.80594734806E+02 0.  0.
          5    1    5    5  501    0  0.33327464661E+02  0.23532063028E+02 -0.47328924695E+02  0.62662548655E+02  0.47000000000E+01 0. -1.
        -13    1    6    6    0    0  0.24788651796E+02  0.35480180811E+02  0.52389813435E+02  0.67955963977E+02  0.00000000000E+00 0.  1.
         14    1    6    6    0    0  0.14748911616E+02 -0.44132687387E+02  0.43873969096E+02  0.63954277840E+02  0.00000000000E+00 0. -1.
         -5    1    3    3    0  503  0.12196606392E+02  0.48554727870E+02 -0.44223147401E+02  0.66963389790E+02  0.47000000000E+01 0.  1.
         11    1    4    4    0    0 -0.32048964308E+02  0.15740773102E+02 -0.94616667447E+02  0.10112972763E+03  0.00000000000E+00 0. -1.
        -12    1    4    4    0    0 -0.53012670157E+02 -0.79175057424E+02 -0.16421136589E+03  0.18985364258E+03  0.00000000000E+00 0.  1.
<mgrwt>
<rscale>  2 0.18994372E+03</rscale>
<asrwt>0</asrwt>
<pdfrwt beam="1">  1       21 0.22954095E-01 0.19048849E+03</pdfrwt>
<pdfrwt beam="2">  1       21 0.62048912E-01 0.19048849E+03</pdfrwt>
<totfact> 0.42991166E+04</totfact>
</mgrwt>
</event>
<event>
12    1  0.1013215E-001  0.2435192E+03  0.7546771E-02  0.1117591E+00
         21   -1    0    0  503  502  0.00000000000E+00  0.00000000000E+00  0.54512250178E+02  0.54512250178E+02  0.00000000000E+00 0. -1.
         21   -1    0    0  501  503 -0.00000000000E+00 -0.00000000000E+00 -0.11115939689E+04  0.11115939689E+04  0.00000000000E+00 0. -1.
          6    2    1    2  501    0  0.72173688163E+02 -0.15493679023E+03 -0.62024932141E+03  0.66634138474E+03  0.17345653654E+03 0.  0.
         24    2    3    3    0    0  0.88777667282E+02 -0.12426949147E+03 -0.60289326066E+03  0.62710494529E+03  0.80348913748E+02 0.  0.
         -6    2    1    2    0  502 -0.72173688163E+02  0.15493679023E+03 -0.43683239734E+03  0.49976483437E+03  0.17241779514E+03 0.  0.
        -24    2    5    5    0    0 -0.23072136947E+02  0.18065811188E+01 -0.18334583659E+03  0.19953600538E+03  0.75255128810E+02 0.  0.
          5    1    3    3  501    0 -0.16603979119E+02 -0.30667298758E+02 -0.17356060758E+02  0.39236439450E+02  0.47000000000E+01 0. -1.
        -13    1    4    4    0    0  0.38795184108E+02 -0.57584443616E+02 -0.42529655042E+03  0.43092712870E+03  0.00000000000E+00 0.  1.
         14    1    4    4    0    0  0.49982483175E+02 -0.66685047852E+02 -0.17759671024E+03  0.19617781658E+03  0.00000000000E+00 0. -1.
         -5    1    5    5    0  502 -0.49101551216E+02  0.15313020911E+03 -0.25348656075E+03  0.30022882899E+03  0.47000000000E+01 0.  1.
         11    1    6    6    0    0 -0.12191836525E+02  0.32981826778E+02 -0.14370561176E+03  0.14794507301E+03  0.00000000000E+00 0. -1.
        -12    1    6    6    0    0 -0.10880300422E+02 -0.31175245660E+02 -0.39640224823E+02  0.51590932374E+02  0.00000000000E+00 0.  1.
<mgrwt>
<rscale>  2 0.24333433E+03</rscale>
<asrwt>0</asrwt>
<pdfrwt beam="1">  1       21 0.83865006E-02 0.24351924E+03</pdfrwt>
<pdfrwt beam="2">  1       21 0.17101445E+00 0.24351924E+03</pdfrwt>
<totfact> 0.22460949E+04</totfact>
</mgrwt>
</event>
<event>
12    1  0.1013215E-001  0.2944689E+03  0.7546771E-02  0.1088072E+00
         21   -1    0    0  501  502  0.00000000000E+00  0.00000000000E+00  0.96242102566E+02  0.96242102566E+02  0.00000000000E+00 0.  1.
         21   -1    0    0  502  503 -0.00000000000E+00 -0.00000000000E+00 -0.91198195014E+03  0.91198195014E+03  0.00000000000E+00 0. -1.
         -6    2    1    2    0  503 -0.21735457072E+03  0.98440398325E+02 -0.35031652060E+03  0.45746926700E+03  0.17211317268E+03 0.  0.
        -24    2    3    3    0    0 -0.27313136800E+02  0.17846062631E+02 -0.94197148390E+02  0.12848535193E+03  0.81061048003E+02 0.  0.
          6    2    1    2  501    0  0.21735457072E+03 -0.98440398325E+02 -0.46542332697E+03  0.55075478570E+03  0.17256430467E+03 0.  0.
         24    2    5    5    0    0  0.84500646867E+02 -0.20416535501E+02 -0.31039801336E+03  0.33213908152E+03  0.80076516746E+02 0.  0.
          5    1    5    5  501    0  0.13285392385E+03 -0.78023862823E+02 -0.15502531361E+03  0.21861570418E+03  0.47000000000E+01 0. -1.
        -13    1    6    6    0    0 -0.10408799751E+02 -0.15969860270E+02 -0.92228974916E+02  0.94178359315E+02  0.00000000000E+00 0.  1.
         14    1    6    6    0    0  0.94909446618E+02 -0.44466752318E+01 -0.21816903844E+03  0.23796072220E+03  0.00000000000E+00 0. -1.
         -5    1    3    3    0  503 -0.19004143392E+03  0.80594335694E+02 -0.25611937221E+03  0.32898391507E+03  0.47000000000E+01 0.  1.
         11    1    4    4    0    0  0.33223528996E+01  0.45760122454E+02 -0.51755898299E+02  0.69164296024E+02  0.00000000000E+00 0. -1.
        -12    1    4    4    0    0 -0.30635489699E+02 -0.27914059823E+02 -0.42441250091E+02  0.59321055909E+02  0.00000000000E+00 0.  1.
<mgrwt>
<rscale>  2 0.29440289E+03</rscale>
<asrwt>0</asrwt>
<pdfrwt beam="1">  1       21 0.14806477E-01 0.29446895E+03</pdfrwt>
<pdfrwt beam="2">  1       21 0.14030492E+00 0.29446895E+03</pdfrwt>
<totfact> 0.13465121E+04</totfact>
</mgrwt>
</event>
<event>
12    1  0.1013215E-001  0.2009955E+03  0.7546771E-02  0.1149717E+00
         21   -1    0    0  501  502  0.00000000000E+00  0.00000000000E+00  0.80566182253E+03  0.80566182253E+03  0.00000000000E+00 0. -1.
         21   -1    0    0  502  503 -0.00000000000E+00 -0.00000000000E+00 -0.55588935652E+02  0.55588935652E+02  0.00000000000E+00 0. -1.
         -6    2    1    2    0  503  0.60468249152E+02 -0.71374337912E+02  0.23212836657E+03  0.30705501411E+03  0.17790024692E+03 0.  0.
        -24    2    3    3    0    0  0.78188476754E+02 -0.67927196279E+02  0.81105125257E+02  0.15488406199E+03  0.81752611118E+02 0.  0.
          6    2    1    2  501    0 -0.60468249152E+02  0.71374337912E+02  0.51794452031E+03  0.55419574408E+03  0.17353873159E+03 0.  0.
         24    2    5    5    0    0 -0.52033047147E+02  0.19327908456E+02  0.48145437256E+03  0.48990263142E+03  0.71590986679E+02 0.  0.
          5    1    5    5  501    0 -0.84352020046E+01  0.52046429455E+02  0.36490147747E+02  0.64293112652E+02  0.47000000000E+01 0. -1.
        -13    1    6    6    0    0  0.58926599910E+01  0.30870787049E+02  0.15664190869E+03  0.15976362694E+03  0.00000000000E+00 0.  1.
         14    1    6    6    0    0 -0.57925707138E+02 -0.11542878593E+02  0.32481246388E+03  0.33013900449E+03  0.00000000000E+00 0. -1.
         -5    1    3    3    0  503 -0.17720227603E+02 -0.34471416331E+01  0.15102324131E+03  0.15217095211E+03  0.47000000000E+01 0.  1.
         11    1    4    4    0    0  0.69639914994E+02 -0.68436570949E+01  0.48276488775E+02  0.85012780047E+02  0.00000000000E+00 0. -1.
        -12    1    4    4    0    0  0.85485617598E+01 -0.61083539184E+02  0.32828636483E+02  0.69871281945E+02  0.00000000000E+00 0.  1.
<mgrwt>
<rscale>  2 0.20002606E+03</rscale>
<asrwt>0</asrwt>
<pdfrwt beam="1">  1       21 0.12394796E+00 0.20099553E+03</pdfrwt>
<pdfrwt beam="2">  1       21 0.85521445E-02 0.20099553E+03</pdfrwt>
<totfact> 0.51810788E+04</totfact>
</mgrwt>
</event>
<event>
12    1  0.1013215E-001  0.1748953E+03  0.7546771E-02  0.1173204E+00
         21   -1    0    0  503  502  0.00000000000E+00  0.00000000000E+00  0.37940138285E+02  0.37940138285E+02  0.00000000000E+00 0. -1.
         21   -1    0    0  501  503 -0.00000000000E+00 -0.00000000000E+00 -0.99397588002E+03  0.99397588002E+03  0.00000000000E+00 0. -1.
          6    2    1    2  501    0  0.10526301620E+02 -0.26082022001E+02 -0.70782304356E+03  0.72911029463E+03  0.17261890352E+03 0.  0.
         24    2    3    3    0    0 -0.25522704693E+02 -0.23905196042E+02 -0.17187782720E+03  0.19192910140E+03  0.77922561744E+02 0.  0.
         -6    2    1    2    0  502 -0.10526301620E+02  0.26082022001E+02 -0.24821269818E+03  0.30280572368E+03  0.17114522446E+03 0.  0.
        -24    2    5    5    0    0 -0.30855622459E+01 -0.35697591046E+02 -0.68141498338E+02  0.11222814839E+03  0.81658158155E+02 0.  0.
          5    1    3    3  501    0  0.36049006312E+02 -0.21768259588E+01 -0.53594521636E+03  0.53718119323E+03  0.47000000000E+01 0. -1.
        -11    1    4    4    0    0 -0.28308964795E+02  0.14382343199E+02 -0.13504576419E+03  0.13872853964E+03  0.00000000000E+00 0.  1.
         12    1    4    4    0    0  0.27862601021E+01 -0.38287539242E+02 -0.36832063008E+02  0.53200561764E+02  0.00000000000E+00 0. -1.
         -5    1    5    5    0  502 -0.74407393737E+01  0.61779613047E+02 -0.18007119984E+03  0.19057757529E+03  0.47000000000E+01 0.  1.
         13    1    6    6    0    0  0.12335813947E+00 -0.45722964122E+02 -0.82560236182E+02  0.94375829870E+02  0.00000000000E+00 0. -1.
        -14    1    6    6    0    0 -0.32089203853E+01  0.10025373076E+02  0.14418737843E+02  0.17852318515E+02  0.00000000000E+00 0.  1.
<mgrwt>
<rscale>  2 0.17453056E+03</rscale>
<asrwt>0</asrwt>
<pdfrwt beam="1">  1       21 0.58369441E-02 0.17489529E+03</pdfrwt>
<pdfrwt beam="2">  1       21 0.15291937E+00 0.17489529E+03</pdfrwt>
<totfact> 0.59294238E+04</totfact>
</mgrwt>
</event>
<event>
12    1  0.1013215E-001  0.1736480E+03  0.7546771E-02  0.1174656E+00
         21   -1    0    0  503  502  0.00000000000E+00  0.00000000000E+00  0.34885647449E+03  0.34885647449E+03  0.00000000000E+00 0. -1.
         21   -1    0    0  501  503 -0.00000000000E+00 -0.00000000000E+00 -0.61184323319E+03  0.61184323319E+03  0.00000000000E+00 0. -1.
          6    2    1    2  501    0  0.37263623129E+01 -0.22573498300E+01 -0.57696517560E+03  0.60190159775E+03  0.17139935270E+03 0.  0.
         24    2    3    3    0    0  0.52666393661E+02  0.33909873839E+02 -0.28988220506E+03  0.30840216553E+03  0.84596538509E+02 0.  0.
         -6    2    1    2    0  502 -0.37263623129E+01  0.22573498300E+01  0.31397841691E+03  0.35879810993E+03  0.17359336394E+03 0.  0.
        -24    2    5    5    0    0 -0.48060653410E+02  0.42046408357E+02  0.13106565187E+03  0.16637184312E+03  0.80147727484E+02 0.  0.
          5    1    3    3  501    0 -0.48940031348E+02 -0.36167223669E+02 -0.28708297054E+03  0.29349943221E+03  0.47000000000E+01 0. -1.
        -13    1    4    4    0    0  0.25450910763E+02  0.48743522361E+02 -0.85316893077E+02  0.10150198065E+03  0.00000000000E+00 0.  1.
         14    1    4    4    0    0  0.27215482898E+02 -0.14833648522E+02 -0.20456531199E+03  0.20690018489E+03  0.00000000000E+00 0. -1.
         -5    1    5    5    0  502  0.44334291097E+02 -0.39789058527E+02  0.18291276504E+03  0.19242626681E+03  0.47000000000E+01 0.  1.
         11    1    6    6    0    0  0.18890256903E+02  0.27472452177E+02  0.34610120815E+02  0.48056611379E+02  0.00000000000E+00 0. -1.
        -12    1    6    6    0    0 -0.66950910313E+02  0.14573956180E+02  0.96455531052E+02  0.11831523174E+03  0.00000000000E+00 0.  1.
<mgrwt>
<rscale>  2 0.17309708E+03</rscale>
<asrwt>0</asrwt>
<pdfrwt beam="1">  1       21 0.53670228E-01 0.17364803E+03</pdfrwt>
<pdfrwt beam="2">  1       21 0.94129727E-01 0.17364803E+03</pdfrwt>
<totfact> 0.31613122E+03</totfact>
</mgrwt>
</event>
<event>
12    1  0.1013215E-001  0.1873272E+03  0.7546771E-02  0.1161410E+00
         21   -1    0    0  503  502  0.00000000000E+00  0.00000000000E+00  0.24759154265E+02  0.24759154265E+02  0.00000000000E+00 0. -1.
         21   -1    0    0  501  503 -0.00000000000E+00 -0.00000000000E+00 -0.14196478734E+04  0.14196478734E+04  0.00000000000E+00 0. -1.
          6    2    1    2  501    0  0.25589467613E+02 -0.64976573926E+02 -0.61766563723E+03  0.64544738149E+03  0.17382378099E+03 0.  0.
         24    2    3    3    0    0  0.78353716263E+02 -0.51976631830E+02 -0.32069602574E+03  0.34351012877E+03  0.79450566592E+02 0.  0.
         -6    2    1    2    0  502 -0.25589467613E+02  0.64976573926E+02 -0.77722308188E+03  0.79895964615E+03  0.17141768043E+03 0.  0.
        -24    2    5    5    0    0 -0.68482948719E+02  0.56990893606E+02 -0.69878647305E+03  0.70908187684E+03  0.80973433498E+02 0.  0.
          5    1    3    3  501    0 -0.52764248649E+02 -0.12999942096E+02 -0.29696961149E+03  0.30193725272E+03  0.47000000000E+01 0. -1.
        -11    1    4    4    0    0  0.21751247622E+02  0.17154888932E+02 -0.37964937065E+02  0.46997270492E+02  0.00000000000E+00 0.  1.
         12    1    4    4    0    0  0.56602468641E+02 -0.69131520762E+02 -0.28273108868E+03  0.29651285828E+03  0.00000000000E+00 0. -1.
         -5    1    5    5    0  502  0.42893481106E+02  0.79856803198E+01 -0.78436608831E+02  0.89877769311E+02  0.47000000000E+01 0.  1.
         11    1    6    6    0    0 -0.57395784184E+01  0.29635121759E+02 -0.65661162614E+02  0.72267361083E+02  0.00000000000E+00 0. -1.
        -12    1    6    6    0    0 -0.62743370300E+02  0.27355771847E+02 -0.63312531043E+03  0.63681451576E+03  0.00000000000E+00 0.  1.
<mgrwt>
<rscale>  2 0.18676708E+03</rscale>
<asrwt>0</asrwt>
<pdfrwt beam="1">  1       21 0.38091004E-02 0.18732721E+03</pdfrwt>
<pdfrwt beam="2">  1       21 0.21840738E+00 0.18732721E+03</pdfrwt>
<totfact> 0.43924377E+04</totfact>
</mgrwt>
</event>
<event>
12    1  0.1013215E-001  0.1767057E+03  0.7546771E-02  0.1171421E+00
         21   -1    0    0  503  502  0.00000000000E+00  0.00000000000E+00  0.38371581960E+03  0.38371581960E+03  0.00000000000E+00 0.  1.
         21   -1    0    0  501  503 -0.00000000000E+00 -0.00000000000E+00 -0.25986386041E+03  0.25986386041E+03  0.00000000000E+00 0.  1.
          6    2    1    2  501    0 -0.18389973922E+02  0.31835643791E+02 -0.20538703051E+03  0.26991776316E+03  0.17123103460E+03 0.  0.
         24    2    3    3    0    0 -0.29264859424E+02  0.63630474211E+02 -0.63591476336E+02  0.12411912270E+03  0.80351798436E+02 0.  0.
         -6    2    1    2    0  502  0.18389973922E+02 -0.31835643791E+02  0.32923898970E+03  0.37366191685E+03  0.17283870055E+03 0.  0.
        -24    2    5    5    0    0  0.46243381712E+02  0.36901512021E+02  0.16631217929E+03  0.19458694801E+03  0.81878980293E+02 0.  0.
          5    1    3    3  501    0  0.10874885502E+02 -0.31794830421E+02 -0.14179555417E+03  0.14579864046E+03  0.47000000000E+01 0. -1.
        -11    1    4    4    0    0 -0.19958155461E+02 -0.15769443170E+01 -0.53955162709E+02  0.57549755045E+02  0.00000000000E+00 0.  1.
         12    1    4    4    0    0 -0.93067039630E+01  0.65207418528E+02 -0.96363136270E+01  0.66569367656E+02  0.00000000000E+00 0. -1.
         -5    1    5    5    0  502 -0.27853407790E+02 -0.68737155812E+02  0.16292681041E+03  0.17907496884E+03  0.47000000000E+01 0.  1.
         13    1    6    6    0    0  0.35089679653E+02 -0.19471209473E+02  0.44635598674E+02  0.60022914670E+02  0.00000000000E+00 0. -1.
        -14    1    6    6    0    0  0.11153702060E+02  0.56372721494E+02  0.12167658062E+03  0.13456403334E+03  0.00000000000E+00 0.  1.
<mgrwt>
<rscale>  2 0.17631137E+03</rscale>
<asrwt>0</asrwt>
<pdfrwt beam="1">  1       21 0.59033203E-01 0.17670573E+03</pdfrwt>
<pdfrwt beam="2">  1       21 0.39979055E-01 0.17670573E+03</pdfrwt>
<totfact> 0.16341847E+04</totfact>
</mgrwt>
</event>
<event>
12    1  0.1013215E-001  0.2963294E+03  0.7546771E-02  0.1087175E+00
         21   -1    0    0  501  502  0.00000000000E+00  0.00000000000E+00  0.52342032896E+03  0.52342032896E+03  0.00000000000E+00 0.  1.
         21   -1    0    0  502  503 -0.00000000000E+00 -0.00000000000E+00 -0.16892151029E+03  0.16892151029E+03  0.00000000000E+00 0. -1.
         -6    2    1    2    0  503 -0.23924988912E+03 -0.18015592832E+02  0.14445133739E+03  0.32966239259E+03  0.17391386713E+03 0.  0.
        -24    2    3    3    0    0 -0.18034744825E+03 -0.77562669114E+02  0.10360044121E+03  0.23635517126E+03  0.81176017565E+02 0.  0.
          6    2    1    2  501    0  0.23924988912E+03  0.18015592832E+02  0.21004748128E+03  0.36267944666E+03  0.17277547743E+03 0.  0.
         24    2    5    5    0    0  0.23840229682E+03  0.32125399724E+02  0.22695874644E+03  0.34014312148E+03  0.79494490782E+02 0.  0.
          5    1    5    5  501    0  0.84759229972E+00 -0.14109806892E+02 -0.16911265158E+02  0.22536325177E+02  0.47000000000E+01 0. -1.
        -13    1    6    6    0    0  0.17380687420E+03 -0.58753107706E+01  0.18639941379E+03  0.25492761768E+03  0.00000000000E+00 0.  1.
         14    1    6    6    0    0  0.64595422627E+02  0.38000710495E+02  0.40559332649E+02  0.85215503797E+02  0.00000000000E+00 0. -1.
         -5    1    3    3    0  503 -0.58902440870E+02  0.59547076282E+02  0.40850896176E+02  0.93307221331E+02  0.47000000000E+01 0.  1.
         11    1    4    4    0    0 -0.11397110190E+03 -0.71067401233E+02  0.10365869400E+03  0.16966175888E+03  0.00000000000E+00 0. -1.
        -12    1    4    4    0    0 -0.66376346358E+02 -0.64952678815E+01 -0.58252784526E-01  0.66693412374E+02  0.00000000000E+00 0.  1.
<mgrwt>
<rscale>  2 0.29616257E+03</rscale>
<asrwt>0</asrwt>
<pdfrwt beam="1">  1       21 0.80526204E-01 0.29632938E+03</pdfrwt>
<pdfrwt beam="2">  1       21 0.25987925E-01 0.29632938E+03</pdfrwt>
<totfact> 0.18071273E+04</totfact>
</mgrwt>
</event>
<event>
12    1  0.1013215E-001  0.2205170E+03  0.7546771E-02  0.1133839E+00
         21   -1    0    0  503  502  0.00000000000E+00  0.00000000000E+00  0.76725628217E+03  0.76725628217E+03  0.00000000000E+00 0.  1.
         21   -1    0    0  501  503 -0.00000000000E+00 -0.00000000000E+00 -0.63504405329E+02  0.63504405329E+02  0.00000000000E+00 0.  1.
          6    2    1    2  501    0 -0.59487758048E+02  0.12220986015E+03  0.39533917686E+03  0.45268181068E+03  0.17364824700E+03 0.  0.
         24    2    3    3    0    0  0.60544725308E+01  0.30774405197E+02  0.26796740420E+03  0.28267626700E+03  0.84354143690E+02 0.  0.
         -6    2    1    2    0  502  0.59487758048E+02 -0.12220986015E+03  0.30841269998E+03  0.37807887682E+03  0.17132192011E+03 0.  0.
        -24    2    5    5    0    0  0.87177282951E+02 -0.30734355614E+02  0.17708033939E+03  0.21558347178E+03  0.81082103010E+02 0.  0.
          5    1    3    3  501    0 -0.65542230579E+02  0.91435454955E+02  0.12737177266E+03  0.17000554368E+03  0.47000000000E+01 0. -1.
        -11    1    4    4    0    0 -0.21163355377E+02 -0.21938134145E+02  0.99814597102E+02  0.10436533493E+03  0.00000000000E+00 0.  1.
         12    1    4    4    0    0  0.27217827908E+02  0.52712539342E+02  0.16815280710E+03  0.17831093207E+03  0.00000000000E+00 0. -1.
         -5    1    5    5    0  502 -0.27689524902E+02 -0.91475504538E+02  0.13133236059E+03  0.16249540504E+03  0.47000000000E+01 0.  1.
         13    1    6    6    0    0  0.27055944542E+01  0.19271656930E+02  0.58455209876E+02  0.61609484366E+02  0.00000000000E+00 0. -1.
        -14    1    6    6    0    0  0.84471688496E+02 -0.50006012544E+02  0.11862512952E+03  0.15397398742E+03  0.00000000000E+00 0.  1.
<mgrwt>
<rscale>  2 0.22005880E+03</rscale>
<asrwt>0</asrwt>
<pdfrwt beam="1">  1       21 0.11803942E+00 0.22051702E+03</pdfrwt>
<pdfrwt beam="2">  1       21 0.97699091E-02 0.22051702E+03</pdfrwt>
<totfact> 0.45832974E+04</totfact>
</mgrwt>
</event>
<event>
12    1  0.1013215E-001  0.1720615E+03  0.7546771E-02  0.1178327E+00
         21   -1    0    0  503  502  0.00000000000E+00  0.00000000000E+00  0.55276909432E+02  0.55276909432E+02  0.00000000000E+00 0.  1.
         21   -1    0    0  501  503 -0.00000000000E+00 -0.00000000000E+00 -0.51159222969E+03  0.51159222969E+03  0.00000000000E+00 0.  1.
          6    2    1    2  501    0 -0.11106784709E+02 -0.77128751259E+01 -0.25287117736E+03  0.30042090232E+03  0.16163550694E+03 0.  0.
         24    2    3    3    0    0  0.41955388776E+02  0.33102593011E+02 -0.14463643182E+03  0.17306962893E+03  0.78596200507E+02 0.  0.
         -6    2    1    2    0  502  0.11106784709E+02  0.77128751259E+01 -0.20344414290E+03  0.26644823680E+03  0.17152928177E+03 0.  0.
        -24    2    5    5    0    0  0.17766392694E+02  0.58446956399E+02 -0.84025228761E+02  0.13644337368E+03  0.88458259828E+02 0.  0.
          5    1    3    3  501    0 -0.53062173486E+02 -0.40815468137E+02 -0.10823474554E+03  0.12735127340E+03  0.47000000000E+01 0. -1.
        -11    1    4    4    0    0 -0.73331820050E+00  0.39038315635E+02 -0.11314073606E+03  0.11968857088E+03  0.00000000000E+00 0.  1.
         12    1    4    4    0    0  0.42688706977E+02 -0.59357226241E+01 -0.31495695767E+02  0.53381058047E+02  0.00000000000E+00 0. -1.
         -5    1    5    5    0  502 -0.66596079843E+01 -0.50734081273E+02 -0.11941891414E+03  0.13000486312E+03  0.47000000000E+01 0.  1.
         11    1    6    6    0    0  0.24693898614E+02 -0.16127190312E+01  0.82853331633E+01  0.26096670996E+02  0.00000000000E+00 0. -1.
        -12    1    6    6    0    0 -0.69275059203E+01  0.60059675430E+02 -0.92310561924E+02  0.11034670269E+03  0.00000000000E+00 0.  1.
<mgrwt>
<rscale>  2 0.16954130E+03</rscale>
<asrwt>0</asrwt>
<pdfrwt beam="1">  1       21 0.85041397E-02 0.17206145E+03</pdfrwt>
<pdfrwt beam="2">  1       21 0.78706499E-01 0.17206145E+03</pdfrwt>
<totfact> 0.15500897E+05</totfact>
</mgrwt>
</event>
<event>
12    1  0.1013215E-001  0.1812869E+03  0.7546771E-02  0.1167362E+00
         21   -1    0    0  503  502  0.00000000000E+00  0.00000000000E+00  0.59014022419E+02  0.59014022419E+02  0.00000000000E+00 0.  1.
         21   -1    0    0  501  503 -0.00000000000E+00 -0.00000000000E+00 -0.61689662667E+03  0.61689662667E+03  0.00000000000E+00 0.  1.
          6    2    1    2  501    0  0.13828579220E+02  0.52702773712E+02 -0.39511977152E+03  0.43472357441E+03  0.17290500381E+03 0.  0.
         24    2    3    3    0    0  0.71841847468E+02  0.52271719051E+02 -0.22355404883E+03  0.25355345463E+03  0.80120895802E+02 0.  0.
         -6    2    1    2    0  502 -0.13828579220E+02 -0.52702773712E+02 -0.16276283273E+03  0.24118707468E+03  0.16944218281E+03 0.  0.
        -24    2    5    5    0    0 -0.23452667150E+02  0.81735891859E+01 -0.15817981144E+03  0.17920603958E+03  0.80480536270E+02 0.  0.
          5    1    3    3  501    0 -0.58013268248E+02  0.43105466099E+00 -0.17156572269E+03  0.18117011978E+03  0.47000000000E+01 0. -1.
        -13    1    4    4    0    0  0.34704125335E+02  0.11212974285E+02 -0.17846326437E+03  0.18215170556E+03  0.00000000000E+00 0.  1.
         14    1    4    4    0    0  0.37137722133E+02  0.41058744766E+02 -0.45090784463E+02  0.71401749072E+02  0.00000000000E+00 0. -1.
         -5    1    5    5    0  502  0.96240879304E+01 -0.60876362898E+02 -0.45830212956E+01  0.61981035102E+02  0.47000000000E+01 0.  1.
         13    1    6    6    0    0 -0.21137039448E+02 -0.34689478927E+02 -0.88287657565E+02  0.97184591697E+02  0.00000000000E+00 0. -1.
        -14    1    6    6    0    0 -0.23156277020E+01  0.42863068113E+02 -0.69892153873E+02  0.82021447883E+02  0.00000000000E+00 0.  1.
<mgrwt>
<rscale>  2 0.18045632E+03</rscale>
<asrwt>0</asrwt>
<pdfrwt beam="1">  1       21 0.90790800E-02 0.18128693E+03</pdfrwt>
<pdfrwt beam="2">  1       21 0.94907177E-01 0.18128693E+03</pdfrwt>
<totfact> 0.89740099E+04</totfact>
</mgrwt>
</event>
<event>
12    1  0.1013215E-001  0.2170935E+03  0.7546771E-02  0.1136217E+00
         21   -1    0    0  503  502  0.00000000000E+00  0.00000000000E+00  0.89742059830E+02  0.89742059830E+02  0.00000000000E+00 0. -1.
         21   -1    0    0  501  503 -0.00000000000E+00 -0.00000000000E+00 -0.70545408356E+03  0.70545408356E+03  0.00000000000E+00 0. -1.
          6    2    1    2  501    0 -0.12885861613E+03  0.17465129370E+02 -0.51031487495E+03  0.55457267755E+03  0.17383903299E+03 0.  0.
         24    2    3    3    0    0 -0.15874358442E+03 -0.65498340046E+01 -0.43486894499E+03  0.46981414911E+03  0.79824241108E+02 0.  0.
         -6    2    1    2    0  502  0.12885861613E+03 -0.17465129370E+02 -0.10539714878E+03  0.24062346585E+03  0.17286271909E+03 0.  0.
        -24    2    5    5    0    0  0.11944765426E+03 -0.30969237918E+02 -0.13943365125E+03  0.20252490090E+03  0.79672809540E+02 0.  0.
          5    1    3    3  501    0  0.29884968287E+02  0.24014963374E+02 -0.75445929963E+02  0.84758528441E+02  0.47000000000E+01 0. -1.
        -13    1    4    4    0    0  0.90668272192E+01  0.26251836538E+01 -0.17586507632E+02  0.19959564017E+02  0.00000000000E+00 0.  1.
         14    1    4    4    0    0 -0.16781041163E+03 -0.91750176584E+01 -0.41728243735E+03  0.44985458509E+03  0.00000000000E+00 0. -1.
         -5    1    5    5    0  502  0.94109618671E+01  0.13504108549E+02  0.34036502462E+02  0.38098564944E+02  0.47000000000E+01 0.  1.
         11    1    6    6    0    0  0.29194631930E+02 -0.36622968365E+02 -0.15964278113E+02  0.49481577593E+02  0.00000000000E+00 0. -1.
        -12    1    6    6    0    0  0.90253022331E+02  0.56537304470E+01 -0.12346937313E+03  0.15304332331E+03  0.00000000000E+00 0.  1.
<mgrwt>
<rscale>  2 0.21689798E+03</rscale>
<asrwt>0</asrwt>
<pdfrwt beam="1">  1       21 0.13806471E-01 0.21709349E+03</pdfrwt>
<pdfrwt beam="2">  1       21 0.10853140E+00 0.21709349E+03</pdfrwt>
<totfact> 0.30342339E+04</totfact>
</mgrwt>
</event>
<event>
12    1  0.1013215E-001  0.1830159E+03  0.7546771E-02  0.1165564E+00
         21   -1    0    0  503  502  0.00000000000E+00  0.00000000000E+00  0.43065649500E+02  0.43065649500E+02  0.00000000000E+00 0.  1.
         21   -1    0    0  501  503 -0.00000000000E+00 -0.00000000000E+00 -0.11130342116E+04  0.11130342116E+04  0.00000000000E+00 0.  1.
          6    2    1    2  501    0 -0.61920503841E+02 -0.21445976278E+02 -0.86038561434E+03  0.87963527143E+03  0.17088220122E+03 0.  0.
         24    2    3    3    0    0 -0.13957838721E+02 -0.65864101022E+02 -0.36665923698E+03  0.38157783222E+03  0.81423245554E+02 0.  0.
         -6    2    1    2    0  502  0.61920503841E+02  0.21445976278E+02 -0.20958294781E+03  0.27646458971E+03  0.16796898124E+03 0.  0.
        -24    2    5    5    0    0 -0.23206909078E+02  0.25140472252E+02 -0.14449588428E+03  0.16913918932E+03  0.80983954064E+02 0.  0.
          5    1    3    3  501    0 -0.47962665120E+02  0.44418124745E+02 -0.49372637736E+03  0.49805743920E+03  0.47000000000E+01 0. -1.
        -11    1    4    4    0    0 -0.47512598224E+02 -0.31156910255E+02 -0.21764014520E+03  0.22493428562E+03  0.00000000000E+00 0.  1.
         12    1    4    4    0    0  0.33554759503E+02 -0.34707190768E+02 -0.14901909178E+03  0.15664354660E+03  0.00000000000E+00 0. -1.
         -5    1    5    5    0  502  0.85127412919E+02 -0.36944959743E+01 -0.65087063521E+02  0.10732540039E+03  0.47000000000E+01 0.  1.
         13    1    6    6    0    0 -0.10419080314E+02 -0.44983337325E+01 -0.13502161772E+03  0.13549771029E+03  0.00000000000E+00 0. -1.
        -14    1    6    6    0    0 -0.12787828765E+02  0.29638805985E+02 -0.94742665602E+01  0.33641479034E+02  0.00000000000E+00 0.  1.
<mgrwt>
<rscale>  2 0.18233278E+03</rscale>
<asrwt>0</asrwt>
<pdfrwt beam="1">  1       21 0.66254839E-02 0.18301586E+03</pdfrwt>
<pdfrwt beam="2">  1       21 0.17123605E+00 0.18301586E+03</pdfrwt>
<totfact> 0.35001684E+04</totfact>
</mgrwt>
</event>
<event>
12    1  0.1013215E-001  0.1828971E+03  0.7546771E-02  0.1165774E+00
         21   -1    0    0  501  502  0.00000000000E+00  0.00000000000E+00  0.28391862338E+03  0.28391862338E+03  0.00000000000E+00 0. -1.
         21   -1    0    0  502  503 -0.00000000000E+00 -0.00000000000E+00 -0.14458575813E+03  0.14458575813E+03  0.00000000000E+00 0. -1.
         -6    2    1    2    0  503 -0.22386958059E+02  0.52065040369E+02 -0.25415885590E+02  0.18465454656E+03  0.17389476704E+03 0.  0.
        -24    2    3    3    0    0  0.33341242914E+02 -0.18236661977E+02 -0.30978638850E+02  0.94649013614E+02  0.80960146949E+02 0.  0.
          6    2    1    2  501    0  0.22386958059E+02 -0.52065040369E+02  0.16474875084E+03  0.24384983495E+03  0.17061256338E+03 0.  0.
         24    2    5    5    0    0  0.54575523324E+02 -0.83592652766E+02  0.88528842152E+02  0.15518384058E+03  0.79236665391E+02 0.  0.
          5    1    5    5  501    0 -0.32188565266E+02  0.31527612397E+02  0.76219908686E+02  0.88665994369E+02  0.47000000000E+01 0. -1.
        -11    1    6    6    0    0  0.12909265494E+02  0.14835207604E+02  0.20921024557E+02  0.28712746103E+02  0.00000000000E+00 0.  1.
         12    1    6    6    0    0  0.41666257830E+02 -0.98427860371E+02  0.67607817595E+02  0.12647109448E+03  0.00000000000E+00 0. -1.
         -5    1    3    3    0  503 -0.55728200973E+02  0.70301702346E+02  0.55627532594E+01  0.90005532943E+02  0.47000000000E+01 0.  1.
         13    1    4    4    0    0  0.39395046948E+02  0.23398888714E+02 -0.24870357403E+02  0.52134560461E+02  0.00000000000E+00 0. -1.
        -14    1    4    4    0    0 -0.60538040337E+01 -0.41635550691E+02 -0.61082814465E+01  0.42514453153E+02  0.00000000000E+00 0.  1.
<mgrwt>
<rscale>  2 0.18211258E+03</rscale>
<asrwt>0</asrwt>
<pdfrwt beam="1">  1       21 0.43679788E-01 0.18289706E+03</pdfrwt>
<pdfrwt beam="2">  1       21 0.22243963E-01 0.18289706E+03</pdfrwt>
<totfact> 0.95580361E+04</totfact>
</mgrwt>
</event>
<event>
12    1  0.1013215E-001  0.2165152E+03  0.7546771E-02  0.1137282E+00
         21   -1    0    0  503  502  0.00000000000E+00  0.00000000000E+00  0.68840053834E+02  0.68840053834E+02  0.00000000000E+00 0.  1.
         21   -1    0    0  501  503 -0.00000000000E+00 -0.00000000000E+00 -0.11217584881E+04  0.11217584881E+04  0.00000000000E+00 0.  1.
          6    2    1    2  501    0  0.36492029364E+02 -0.11792521854E+03 -0.90785612900E+03  0.93331750675E+03  0.17787858804E+03 0.  0.
         24    2    3    3    0    0  0.42364353126E+02 -0.24173579644E+02 -0.68148255507E+03  0.68818297440E+03  0.82451397918E+02 0.  0.
         -6    2    1    2    0  502 -0.36492029364E+02  0.11792521854E+03 -0.14506230532E+03  0.25728103523E+03  0.17295211271E+03 0.  0.
        -24    2    5    5    0    0  0.25313714216E+02  0.10446118944E+03 -0.13918353838E+03  0.19357954451E+03  0.80920074582E+02 0.  0.
          5    1    3    3  501    0 -0.58723237624E+01 -0.93751638892E+02 -0.22637357393E+03  0.24513453236E+03  0.47000000000E+01 0. -1.
        -13    1    4    4    0    0 -0.20243097000E+02 -0.26061432746E+02 -0.25457545393E+03  0.25670536223E+03  0.00000000000E+00 0.  1.
         14    1    4    4    0    0  0.62607450126E+02  0.18878531025E+01 -0.42690710114E+03  0.43147761217E+03  0.00000000000E+00 0. -1.
         -5    1    5    5    0  502 -0.61805743580E+02  0.13464029095E+02 -0.58787669382E+01  0.63701490718E+02  0.47000000000E+01 0.  1.
         13    1    6    6    0    0  0.11958479676E+02  0.27610702620E+02 -0.10353243309E+03  0.10781614368E+03  0.00000000000E+00 0. -1.
        -14    1    6    6    0    0  0.13355234540E+02  0.76850486821E+02 -0.35651105285E+02  0.85763400832E+02  0.00000000000E+00 0.  1.
<mgrwt>
<rscale>  2 0.21550086E+03</rscale>
<asrwt>0</asrwt>
<pdfrwt beam="1">  1       21 0.10590777E-01 0.21651517E+03</pdfrwt>
<pdfrwt beam="2">  1       21 0.17257824E+00 0.21651517E+03</pdfrwt>
<totfact> 0.14748527E+04</totfact>
</mgrwt>
</event>
<event>
12    1  0.1013215E-001  0.1818109E+03  0.7546771E-02  0.1166362E+00
         21   -1    0    0  501  502  0.00000000000E+00  0.00000000000E+00  0.54437080150E+03  0.54437080150E+03  0.00000000000E+00 0.  1.
         21   -1    0    0  502  503 -0.00000000000E+00 -0.00000000000E+00 -0.64888885105E+02  0.64888885105E+02  0.00000000000E+00 0.  1.
         -6    2    1    2    0  503  0.39357990090E+02  0.27211317460E+02  0.15954309118E+03  0.24188677537E+03  0.17540155920E+03 0.  0.
        -24    2    3    3    0    0  0.36298726087E+02  0.38350606748E+02  0.22768019676E+02  0.10454430907E+03  0.87308437657E+02 0.  0.
          6    2    1    2  501    0 -0.39357990090E+02 -0.27211317460E+02  0.31993882521E+03  0.36737291124E+03  0.17410484442E+03 0.  0.
         24    2    5    5    0    0 -0.54002155282E+02 -0.29714992050E+02  0.33225834409E+03  0.34750886065E+03  0.81040653281E+02 0.  0.
          5    1    5    5  501    0  0.14644165193E+02  0.25036745903E+01 -0.12319518874E+02  0.19864050592E+02  0.47000000000E+01 0. -1.
        -13    1    6    6    0    0 -0.74665647353E+02 -0.26387722489E+02  0.28551106569E+03  0.29629012711E+03  0.00000000000E+00 0.  1.
         14    1    6    6    0    0  0.20663492070E+02 -0.33272695612E+01  0.46747278402E+02  0.51218733539E+02  0.00000000000E+00 0. -1.
         -5    1    3    3    0  503  0.30592640027E+01 -0.11139289288E+02  0.13677507151E+03  0.13734246629E+03  0.47000000000E+01 0.  1.
         11    1    4    4    0    0  0.91896696531E+01 -0.24943920162E+02  0.23800833711E+02  0.35680931416E+02  0.00000000000E+00 0. -1.
        -12    1    4    4    0    0  0.27109056434E+02  0.63294526910E+02 -0.10328140347E+01  0.68863377657E+02  0.00000000000E+00 0.  1.
<mgrwt>
<rscale>  2 0.18149745E+03</rscale>
<asrwt>0</asrwt>
<pdfrwt beam="1">  1       21 0.83749351E-01 0.18181093E+03</pdfrwt>
<pdfrwt beam="2">  1       21 0.99829058E-02 0.18181093E+03</pdfrwt>
<totfact> 0.10131757E+05</totfact>
</mgrwt>
</event>
<event>
12    1  0.1013215E-001  0.2124475E+03  0.7546771E-02  0.1139738E+00
         21   -1    0    0  503  502  0.00000000000E+00  0.00000000000E+00  0.65690178062E+03  0.65690178062E+03  0.00000000000E+00 0.  1.
         21   -1    0    0  501  503 -0.00000000000E+00 -0.00000000000E+00 -0.74931827455E+02  0.74931827455E+02  0.00000000000E+00 0. -1.
          6    2    1    2  501    0  0.32651462162E+02  0.11809777250E+03  0.18449757075E+03  0.28137752038E+03  0.17355331604E+03 0.  0.
         24    2    3    3    0    0  0.61655359124E+02  0.91312869786E+02  0.54273502433E+02  0.14521932187E+03  0.77482997358E+02 0.  0.
         -6    2    1    2    0  502 -0.32651462162E+02 -0.11809777250E+03  0.39747238241E+03  0.45045608770E+03  0.17295430122E+03 0.  0.
        -24    2    5    5    0    0 -0.12462508249E+02 -0.97051325701E+01  0.82563014696E+02  0.11676977074E+03  0.81049517284E+02 0.  0.
          5    1    3    3  501    0 -0.29003896962E+02  0.26784902715E+02  0.13022406832E+03  0.13615819851E+03  0.47000000000E+01 0. -1.
        -11    1    4    4    0    0 -0.14573081298E+02  0.10309056222E+02  0.24057747131E+02  0.29957078224E+02  0.00000000000E+00 0.  1.
         12    1    4    4    0    0  0.76228440421E+02  0.81003813564E+02  0.30215755302E+02  0.11526224364E+03  0.00000000000E+00 0. -1.
         -5    1    5    5    0  502 -0.20188953913E+02 -0.10839263993E+03  0.31490936772E+03  0.33368631696E+03  0.47000000000E+01 0.  1.
         13    1    6    6    0    0 -0.64539363098E+00 -0.23112094911E+02 -0.79955873031E+01  0.24464563769E+02  0.00000000000E+00 0. -1.
        -14    1    6    6    0    0 -0.11817114618E+02  0.13406962341E+02  0.90558601999E+02  0.92305206967E+02  0.00000000000E+00 0.  1.
<mgrwt>
<rscale>  2 0.21232516E+03</rscale>
<asrwt>0</asrwt>
<pdfrwt beam="1">  1       21 0.10106181E+00 0.21244754E+03</pdfrwt>
<pdfrwt beam="2">  1       21 0.11527974E-01 0.21244754E+03</pdfrwt>
<totfact> 0.49967736E+04</totfact>
</mgrwt>
</event>
<event>
12    1  0.1013215E-001  0.2383034E+03  0.7546771E-02  0.1122164E+00
         21   -1    0    0  501  502  0.00000000000E+00  0.00000000000E+00  0.70122063479E+03  0.70122063479E+03  0.00000000000E+00 0.  1.
         21   -1    0    0  502  503 -0.00000000000E+00 -0.00000000000E+00 -0.30492126623E+03  0.30492126623E+03  0.00000000000E+00 0. -1.
         -6    2    1    2    0  503  0.11333715052E+02 -0.15257796799E+03 -0.23608443194E+03  0.33034769890E+03  0.17316250678E+03 0.  0.
        -24    2    3    3    0    0  0.14289657987E+02 -0.20603399507E+02 -0.17313491316E+03  0.18402355107E+03  0.57098816078E+02 0.  0.
          6    2    1    2  501    0 -0.11333715052E+02  0.15257796799E+03  0.63238380050E+03  0.67579420212E+03  0.18270206096E+03 0.  0.
         24    2    5    5    0    0  0.36717011931E+02  0.11662077531E+03  0.57267737289E+03  0.59100776709E+03  0.79889067676E+02 0.  0.
          5    1    5    5  501    0 -0.48050726982E+02  0.35957192678E+02  0.59706427604E+02  0.84786435036E+02  0.47000000000E+01 0. -1.
        -13    1    6    6    0    0  0.16012371492E+02  0.11513715328E+03  0.53942523734E+03  0.55180843305E+03  0.00000000000E+00 0.  1.
         14    1    6    6    0    0  0.20704640439E+02  0.14836220277E+01  0.33252135553E+02  0.39199334036E+02  0.00000000000E+00 0. -1.
         -5    1    3    3    0  503 -0.29559429349E+01 -0.13197456848E+03 -0.62949518778E+02  0.14632414783E+03  0.47000000000E+01 0.  1.
         11    1    4    4    0    0  0.20618762592E+02 -0.38010705876E+02 -0.13221124748E+03  0.13910341870E+03  0.00000000000E+00 0. -1.
        -12    1    4    4    0    0 -0.63291046059E+01  0.17407306369E+02 -0.40923665674E+02  0.44920132372E+02  0.00000000000E+00 0.  1.
<mgrwt>
<rscale>  2 0.23647435E+03</rscale>
<asrwt>0</asrwt>
<pdfrwt beam="1">  1       21 0.10788010E+00 0.23830345E+03</pdfrwt>
<pdfrwt beam="2">  1       21 0.46910964E-01 0.23830345E+03</pdfrwt>
<totfact> 0.28705084E+03</totfact>
</mgrwt>
</event>
<event>
12    1  0.1013215E-001  0.1818213E+03  0.7546771E-02  0.1166568E+00
         21   -1    0    0  501  502  0.00000000000E+00  0.00000000000E+00  0.28321293681E+03  0.28321293681E+03  0.00000000000E+00 0. -1.
         21   -1    0    0  502  503 -0.00000000000E+00 -0.00000000000E+00 -0.49584574068E+03  0.49584574068E+03  0.00000000000E+00 0. -1.
         -6    2    1    2    0  503 -0.52021499731E+02  0.42313648250E+01 -0.44739205675E+03  0.48212284183E+03  0.17192626701E+03 0.  0.
        -24    2    3    3    0    0  0.74107820901E+01  0.52938624197E+02 -0.20270620463E+03  0.22561192692E+03  0.83387760201E+02 0.  0.
          6    2    1    2  501    0  0.52021499731E+02 -0.42313648250E+01  0.23475925288E+03  0.29693583566E+03  0.17416900644E+03 0.  0.
         24    2    5    5    0    0  0.24086596998E+01  0.36787393877E+02  0.46914737302E+02  0.98311505597E+02  0.78134791014E+02 0.  0.
          5    1    5    5  501    0  0.49612840031E+02 -0.41018758702E+02  0.18784451557E+03  0.19862433006E+03  0.47000000000E+01 0. -1.
        -13    1    6    6    0    0  0.25229709996E+02  0.34400858746E+02 -0.36171711058E+01  0.42814031295E+02  0.00000000000E+00 0.  1.
         14    1    6    6    0    0 -0.22821050296E+02  0.23865351314E+01  0.50531908407E+02  0.55497474302E+02  0.00000000000E+00 0. -1.
         -5    1    3    3    0  503 -0.59432281821E+02 -0.48707259372E+02 -0.24468585212E+03  0.25651091491E+03  0.47000000000E+01 0.  1.
         13    1    4    4    0    0 -0.93122218754E+00  0.19081576097E+02 -0.18594367491E+03  0.18692250790E+03  0.00000000000E+00 0. -1.
        -14    1    4    4    0    0  0.83420042776E+01  0.33857048100E+02 -0.16762529715E+02  0.38689419017E+02  0.00000000000E+00 0.  1.
<mgrwt>
<rscale>  2 0.18128210E+03</rscale>
<asrwt>0</asrwt>
<pdfrwt beam="1">  1       21 0.43571222E-01 0.18182130E+03</pdfrwt>
<pdfrwt beam="2">  1       21 0.76283959E-01 0.18182130E+03</pdfrwt>
<totfact> 0.78106591E+03</totfact>
</mgrwt>
</event>
<event>
12    1  0.1013215E-001  0.1953730E+03  0.7546771E-02  0.1154156E+00
         21   -1    0    0  501  502  0.00000000000E+00  0.00000000000E+00  0.16301876030E+03  0.16301876030E+03  0.00000000000E+00 0. -1.
         21   -1    0    0  502  503 -0.00000000000E+00 -0.00000000000E+00 -0.47013121487E+03  0.47013121487E+03  0.00000000000E+00 0.  1.
         -6    2    1    2    0  503  0.85925971323E+02 -0.25999399402E+02 -0.37861489853E+03  0.42510377922E+03  0.17118627399E+03 0.  0.
        -24    2    3    3    0    0  0.37701104862E+01  0.16039789856E+02 -0.11462155125E+03  0.14540491202E+03  0.87937476871E+02 0.  0.
          6    2    1    2  501    0 -0.85925971323E+02  0.25999399402E+02  0.71502443963E+02  0.20804619594E+03  0.17352630589E+03 0.  0.
         24    2    5    5    0    0 -0.75379754026E+02 -0.15874418643E+02 -0.14469711819E+02  0.11172412730E+03  0.79616603653E+02 0.  0.
          5    1    5    5  501    0 -0.10546217296E+02  0.41873818045E+02  0.85972155782E+02  0.96322068638E+02  0.47000000000E+01 0. -1.
        -11    1    6    6    0    0 -0.28516871959E+02  0.19820663885E+01 -0.44780152580E+02  0.53126289524E+02  0.00000000000E+00 0.  1.
         12    1    6    6    0    0 -0.46862882067E+02 -0.17856485032E+02  0.30310440761E+02  0.58597837780E+02  0.00000000000E+00 0. -1.
         -5    1    3    3    0  503  0.82155860836E+02 -0.42039189258E+02 -0.26399334728E+03  0.27969886720E+03  0.47000000000E+01 0.  1.
         13    1    4    4    0    0 -0.16467997502E+02  0.46038374956E+02 -0.87307830727E+02  0.10006689871E+03  0.00000000000E+00 0. -1.
        -14    1    4    4    0    0  0.20238107988E+02 -0.29998585100E+02 -0.27313720520E+02  0.45338013317E+02  0.00000000000E+00 0.  1.
<mgrwt>
<rscale>  2 0.19485210E+03</rscale>
<asrwt>0</asrwt>
<pdfrwt beam="1">  1       21 0.25079810E-01 0.19537303E+03</pdfrwt>
<pdfrwt beam="2">  1       21 0.72327878E-01 0.19537303E+03</pdfrwt>
<totfact> 0.25908854E+04</totfact>
</mgrwt>
</event>
<event>
12    1  0.1013215E-001  0.3374255E+03  0.7546771E-02  0.1067950E+00
         21   -1    0    0  501  502  0.00000000000E+00  0.00000000000E+00  0.24898014022E+03  0.24898014022E+03  0.00000000000E+00 0. -1.
         21   -1    0    0  502  503 -0.00000000000E+00 -0.00000000000E+00 -0.58527601471E+03  0.58527601471E+03  0.00000000000E+00 0.  1.
         -6    2    1    2    0  503 -0.16946446978E+03  0.23409445045E+03 -0.36361736788E+03  0.49572632348E+03  0.17322984537E+03 0.  0.
        -24    2    3    3    0    0 -0.94156225773E+02  0.15579992232E+03 -0.32404700413E+03  0.38001431703E+03  0.79154340480E+02 0.  0.
          6    2    1    2  501    0  0.16946446978E+03 -0.23409445045E+03  0.27321493387E+02  0.33852983144E+03  0.17417681972E+03 0.  0.
         24    2    5    5    0    0  0.37688202342E+02 -0.97984169057E+02  0.61476493671E+02  0.14596906856E+03  0.80661711606E+02 0.  0.
          5    1    5    5  501    0  0.13177626744E+03 -0.13611028139E+03 -0.34155000283E+02  0.19256076289E+03  0.47000000000E+01 0. -1.
        -11    1    6    6    0    0  0.17532708274E+02 -0.10124263924E+02 -0.17012331348E+02  0.26444583516E+02  0.00000000000E+00 0.  1.
         12    1    6    6    0    0  0.20155494068E+02 -0.87859905133E+02  0.78488825019E+02  0.11952448504E+03  0.00000000000E+00 0. -1.
         -5    1    3    3    0  503 -0.75308244010E+02  0.78294528123E+02 -0.39570363745E+02  0.11571200645E+03  0.47000000000E+01 0.  1.
         11    1    4    4    0    0 -0.46476483086E+01  0.22583781011E+02 -0.60908138765E+01  0.23847972938E+02  0.00000000000E+00 0. -1.
        -12    1    4    4    0    0 -0.89508577465E+02  0.13321614131E+03 -0.31795619026E+03  0.35616634410E+03  0.00000000000E+00 0.  1.
<mgrwt>
<rscale>  2 0.33730349E+03</rscale>
<asrwt>0</asrwt>
<pdfrwt beam="1">  1       21 0.38304637E-01 0.33742552E+03</pdfrwt>
<pdfrwt beam="2">  1       21 0.90042464E-01 0.33742552E+03</pdfrwt>
<totfact> 0.63467010E+03</totfact>
</mgrwt>
</event>
<event>
12    1  0.1013215E-001  0.1738671E+03  0.7546771E-02  0.1174043E+00
         21   -1    0    0  501  502  0.00000000000E+00  0.00000000000E+00  0.15719821662E+04  0.15719821662E+04  0.00000000000E+00 0.  1.
         21   -1    0    0  502  503 -0.00000000000E+00 -0.00000000000E+00 -0.29800105915E+02  0.29800105915E+02  0.00000000000E+00 0.  1.
         -6    2    1    2    0  503  0.16110482675E+02  0.28098953960E+00  0.29340816157E+03  0.34105441326E+03  0.17311885200E+03 0.  0.
        -24    2    3    3    0    0 -0.51048672833E+02  0.31032472860E+02  0.16916244681E+03  0.19643389766E+03  0.80008508110E+02 0.  0.
          6    2    1    2  501    0 -0.16110482675E+02 -0.28098953960E+00  0.12487738987E+04  0.12607278588E+04  0.17244957924E+03 0.  0.
         24    2    5    5    0    0  0.51831708636E+02  0.21315374436E+02  0.43347820170E+03  0.44230760748E+03  0.67762800089E+02 0.  0.
          5    1    5    5  501    0 -0.67942191311E+02 -0.21596363976E+02  0.81529569697E+03  0.81842025134E+03  0.47000000000E+01 0. -1.
        -11    1    6    6    0    0  0.30424648320E+02  0.15718262239E+02  0.40400124165E+03  0.40545002929E+03  0.00000000000E+00 0.  1.
         12    1    6    6    0    0  0.21407060316E+02  0.55971121975E+01  0.29476960048E+02  0.36857578189E+02  0.00000000000E+00 0. -1.
         -5    1    3    3    0  503  0.67159155509E+02 -0.30751483320E+02  0.12424571477E+03  0.14462051560E+03  0.47000000000E+01 0.  1.
         13    1    4    4    0    0  0.13643414861E+02  0.32330441347E+02  0.62628155333E+02  0.71789177786E+02  0.00000000000E+00 0. -1.
        -14    1    4    4    0    0 -0.64692087694E+02 -0.12979684872E+01  0.10653429147E+03  0.12464471987E+03  0.00000000000E+00 0.  1.
<mgrwt>
<rscale>  2 0.17370025E+03</rscale>
<asrwt>0</asrwt>
<pdfrwt beam="1">  1       21 0.24184334E+00 0.17386709E+03</pdfrwt>
<pdfrwt beam="2">  1       21 0.45846329E-02 0.17386709E+03</pdfrwt>
<totfact> 0.23520831E+04</totfact>
</mgrwt>
</event>
<event>
12    1  0.1013215E-001  0.3166429E+03  0.7546771E-02  0.1077628E+00
         21   -1    0    0  503  502  0.00000000000E+00  0.00000000000E+00  0.39227796747E+03  0.39227796747E+03  0.00000000000E+00 0.  1.
         21   -1    0    0  501  503 -0.00000000000E+00 -0.00000000000E+00 -0.26987023159E+03  0.26987023159E+03  0.00000000000E+00 0.  1.
          6    2    1    2  501    0 -0.24702974960E+03  0.93724798860E+02  0.14506188096E+03  0.34828967160E+03  0.17451278156E+03 0.  0.
         24    2    3    3    0    0 -0.91005424478E+02  0.66365506632E+02  0.13793840728E+03  0.18965501341E+03  0.65235359700E+02 0.  0.
         -6    2    1    2    0  502  0.24702974960E+03 -0.93724798860E+02 -0.22654145069E+02  0.31385852746E+03  0.16788665779E+03 0.  0.
        -24    2    5    5    0    0  0.15567478876E+03 -0.10601800116E+03 -0.61231119230E+02  0.21382291067E+03  0.80601059163E+02 0.  0.
          5    1    3    3  501    0 -0.15602432512E+03  0.27359292228E+02  0.71234736796E+01  0.15863465818E+03  0.47000000000E+01 0. -1.
        -11    1    4    4    0    0 -0.60894515150E+02  0.22960709810E+02  0.11484207507E+03  0.13200014537E+03  0.00000000000E+00 0.  1.
         12    1    4    4    0    0 -0.30110909329E+02  0.43404796823E+02  0.23096332204E+02  0.57654868043E+02  0.00000000000E+00 0. -1.
         -5    1    5    5    0  502  0.91354960834E+02  0.12293202304E+02  0.38576974161E+02  0.10003561679E+03  0.47000000000E+01 0.  1.
         13    1    6    6    0    0  0.38392457676E+02 -0.73852452252E+02 -0.23434691538E+02  0.86471673267E+02  0.00000000000E+00 0. -1.
        -14    1    6    6    0    0  0.11728233109E+03 -0.32165548912E+02 -0.37796427691E+02  0.12735123740E+03  0.00000000000E+00 0.  1.
<mgrwt>
<rscale>  2 0.31573830E+03</rscale>
<asrwt>0</asrwt>
<pdfrwt beam="1">  1       21 0.60350456E-01 0.31664293E+03</pdfrwt>
<pdfrwt beam="2">  1       21 0.41518497E-01 0.31664293E+03</pdfrwt>
<totfact> 0.13406273E+04</totfact>
</mgrwt>
</event>
<event>
12    1  0.1013215E-001  0.2313191E+03  0.7546771E-02  0.1125773E+00
         21   -1    0    0  501  502  0.00000000000E+00  0.00000000000E+00  0.30106013595E+03  0.30106013595E+03  0.00000000000E+00 0. -1.
         21   -1    0    0  502  503 -0.00000000000E+00 -0.00000000000E+00 -0.29563812661E+03  0.29563812661E+03  0.00000000000E+00 0. -1.
         -6    2    1    2    0  503 -0.68540317055E+02 -0.13693046226E+03 -0.18590450186E+03  0.29676421464E+03  0.17338047388E+03 0.  0.
        -24    2    3    3    0    0 -0.88528046206E+02 -0.14661437414E+03 -0.11198890756E+03  0.21944091577E+03  0.79245254926E+02 0.  0.
          6    2    1    2  501    0  0.68540317055E+02  0.13693046226E+03  0.19132651120E+03  0.29993404792E+03  0.17293603631E+03 0.  0.
         24    2    5    5    0    0  0.49188132441E+02  0.50351544545E+02  0.18185108174E+03  0.21059038667E+03  0.79521975696E+02 0.  0.
          5    1    5    5  501    0  0.19352184614E+02  0.86578917710E+02  0.94754294647E+01  0.89343661245E+02  0.47000000000E+01 0. -1.
        -13    1    6    6    0    0 -0.87343378128E+01  0.28141388394E+02  0.16026583473E+02  0.33542179052E+02  0.00000000000E+00 0.  1.
         14    1    6    6    0    0  0.57922470254E+02  0.22210156151E+02  0.16582449827E+03  0.17704820762E+03  0.00000000000E+00 0. -1.
         -5    1    3    3    0  503  0.19987729151E+02  0.96839118893E+01 -0.73915594303E+02  0.77323298864E+02  0.47000000000E+01 0.  1.
         13    1    4    4    0    0 -0.58966639446E+02 -0.12313787095E+03 -0.11892299035E+03  0.18105987259E+03  0.00000000000E+00 0. -1.
        -14    1    4    4    0    0 -0.29561406760E+02 -0.23476503199E+02  0.69340827843E+01  0.38381043187E+02  0.00000000000E+00 0.  1.
<mgrwt>
<rscale>  2 0.23123580E+03</rscale>
<asrwt>0</asrwt>
<pdfrwt beam="1">  1       21 0.46316944E-01 0.23131908E+03</pdfrwt>
<pdfrwt beam="2">  1       21 0.45482789E-01 0.23131908E+03</pdfrwt>
<totfact> 0.20252775E+04</totfact>
</mgrwt>
</event>
<event>
12    1  0.1013215E-001  0.3515894E+03  0.7546771E-02  0.1062043E+00
         21   -1    0    0  501  502  0.00000000000E+00  0.00000000000E+00  0.16729895300E+03  0.16729895300E+03  0.00000000000E+00 0.  1.
         21   -1    0    0  502  503 -0.00000000000E+00 -0.00000000000E+00 -0.74430584666E+03  0.74430584666E+03  0.00000000000E+00 0.  1.
         -6    2    1    2    0  503 -0.22979555772E+03 -0.20163370257E+03 -0.33313858316E+03  0.48435153734E+03  0.17364604163E+03 0.  0.
        -24    2    3    3    0    0 -0.10505640209E+03 -0.12253733996E+03 -0.26813039519E+03  0.32290728681E+03  0.79517040626E+02 0.  0.
          6    2    1    2  501    0  0.22979555772E+03  0.20163370257E+03 -0.24386831050E+03  0.42725326231E+03  0.17207977492E+03 0.  0.
         24    2    5    5    0    0  0.32009097370E+02  0.83603340569E+02 -0.76666990874E+02  0.14259729183E+03  0.80262440021E+02 0.  0.
          5    1    5    5  501    0  0.19778646035E+03  0.11803036200E+03 -0.16720131962E+03  0.28465597049E+03  0.47000000000E+01 0. -1.
        -11    1    6    6    0    0  0.29423805788E+02  0.69819458506E+02 -0.93721852521E+02  0.12051681531E+03  0.00000000000E+00 0.  1.
         12    1    6    6    0    0  0.25852915823E+01  0.13783882063E+02  0.17054861648E+02  0.22080476515E+02  0.00000000000E+00 0. -1.
         -5    1    3    3    0  503 -0.12473915563E+03 -0.79096362607E+02 -0.65008187977E+02  0.16144425053E+03  0.47000000000E+01 0.  1.
         11    1    4    4    0    0  0.14326750970E+01 -0.28265954850E+02 -0.13742532856E+02  0.31462262646E+02  0.00000000000E+00 0. -1.
        -12    1    4    4    0    0 -0.10648907719E+03 -0.94271385109E+02 -0.25438786233E+03  0.29144502417E+03  0.00000000000E+00 0.  1.
<mgrwt>
<rscale>  2 0.35139650E+03</rscale>
<asrwt>0</asrwt>
<pdfrwt beam="1">  1       21 0.25738301E-01 0.35158939E+03</pdfrwt>
<pdfrwt beam="2">  1       21 0.11450859E+00 0.35158939E+03</pdfrwt>
<totfact> 0.77698338E+03</totfact>
</mgrwt>
</event>
<event>
12    1  0.1013215E-001  0.2190515E+03  0.7546771E-02  0.1134801E+00
         21   -1    0    0  501  502  0.00000000000E+00  0.00000000000E+00  0.45650329876E+03  0.45650329876E+03  0.00000000000E+00 0. -1.
         21   -1    0    0  502  503 -0.00000000000E+00 -0.00000000000E+00 -0.11452289086E+03  0.11452289086E+03  0.00000000000E+00 0.  1.
         -6    2    1    2    0  503 -0.85827629031E+02  0.10315132106E+03  0.25551489621E+03  0.33655816844E+03  0.17313856188E+03 0.  0.
        -24    2    3    3    0    0 -0.11436090685E+03  0.94747921063E+02  0.25556928183E+03  0.30644408481E+03  0.80850069526E+02 0.  0.
          6    2    1    2  501    0  0.85827629031E+02 -0.10315132106E+03  0.86465511687E+02  0.23446802119E+03  0.17173348918E+03 0.  0.
         24    2    5    5    0    0  0.27099926155E+02 -0.47898635814E+02 -0.21903055712E+02  0.99310192291E+02  0.79712515534E+02 0.  0.
          5    1    5    5  501    0  0.58727702876E+02 -0.55252685248E+02  0.10836856740E+03  0.13515782890E+03  0.47000000000E+01 0. -1.
        -11    1    6    6    0    0  0.55248636003E+02 -0.25632540735E+02 -0.11967001200E+02  0.62069703096E+02  0.00000000000E+00 0.  1.
         12    1    6    6    0    0 -0.28148709848E+02 -0.22266095078E+02 -0.99360545122E+01  0.37240489194E+02  0.00000000000E+00 0. -1.
         -5    1    3    3    0  503  0.28533277817E+02  0.84033999999E+01 -0.54385613964E-01  0.30114083621E+02  0.47000000000E+01 0.  1.
         11    1    4    4    0    0 -0.39315852584E+02  0.82595406313E+02  0.16025762518E+03  0.18452708158E+03  0.00000000000E+00 0. -1.
        -12    1    4    4    0    0 -0.75045054265E+02  0.12152514750E+02  0.95311656648E+02  0.12191700323E+03  0.00000000000E+00 0.  1.
<mgrwt>
<rscale>  2 0.21877371E+03</rscale>
<asrwt>0</asrwt>
<pdfrwt beam="1">  1       21 0.70231276E-01 0.21905145E+03</pdfrwt>
<pdfrwt beam="2">  1       21 0.17618907E-01 0.21905145E+03</pdfrwt>
<totfact> 0.53057656E+04</totfact>
</mgrwt>
</event>
<event>
12    1  0.1013215E-001  0.1778942E+03  0.7546771E-02  0.1169997E+00
         21   -1    0    0  501  502  0.00000000000E+00  0.00000000000E+00  0.28167574525E+02  0.28167574525E+02  0.00000000000E+00 0. -1.
         21   -1    0    0  502  503 -0.00000000000E+00 -0.00000000000E+00 -0.11248104853E+04  0.11248104853E+04  0.00000000000E+00 0. -1.
         -6    2    1    2    0  503 -0.37982929772E+02 -0.19612659121E+02 -0.58725464366E+03  0.61360765446E+03  0.17268172387E+03 0.  0.
        -24    2    3    3    0    0  0.39959365206E+02 -0.37054939282E+02 -0.30269152232E+03  0.31801080991E+03  0.80863453669E+02 0.  0.
          6    2    1    2  501    0  0.37982929772E+02  0.19612659121E+02 -0.50938826715E+03  0.53937040540E+03  0.17209493938E+03 0.  0.
         24    2    5    5    0    0  0.77361847432E+02 -0.23289127456E+02 -0.30153290330E+03  0.32346022795E+03  0.84718288431E+02 0.  0.
          5    1    5    5  501    0 -0.39378917660E+02  0.42901786576E+02 -0.20785536385E+03  0.21591017746E+03  0.47000000000E+01 0. -1.
        -13    1    6    6    0    0 -0.21160321418E+00 -0.37452265990E+02 -0.11496834440E+03  0.12091499997E+03  0.00000000000E+00 0.  1.
         14    1    6    6    0    0  0.77573450646E+02  0.14163138534E+02 -0.18656455890E+03  0.20254522797E+03  0.00000000000E+00 0. -1.
         -5    1    3    3    0  503 -0.77942294977E+02  0.17442280161E+02 -0.28456312134E+03  0.29559684456E+03  0.47000000000E+01 0.  1.
         11    1    4    4    0    0  0.30492048680E+02 -0.62278096975E+02 -0.19366152886E+03  0.20570151714E+03  0.00000000000E+00 0. -1.
        -12    1    4    4    0    0  0.94673165259E+01  0.25223157694E+02 -0.10902999346E+03  0.11230929276E+03  0.00000000000E+00 0.  1.
<mgrwt>
<rscale>  2 0.17775162E+03</rscale>
<asrwt>0</asrwt>
<pdfrwt beam="1">  1       21 0.43334727E-02 0.17789417E+03</pdfrwt>
<pdfrwt beam="2">  1       21 0.17304778E+00 0.17789417E+03</pdfrwt>
<totfact> 0.70173885E+04</totfact>
</mgrwt>
</event>
<event>
12    1  0.1013215E-001  0.2061855E+03  0.7546771E-02  0.1145824E+00
         21   -1    0    0  501  502  0.00000000000E+00  0.00000000000E+00  0.46876620664E+03  0.46876620664E+03  0.00000000000E+00 0. -1.
         21   -1    0    0  502  503 -0.00000000000E+00 -0.00000000000E+00 -0.12454942176E+03  0.12454942176E+03  0.00000000000E+00 0. -1.
         -6    2    1    2    0  503  0.85389905400E+02  0.78177507883E+02  0.99812490084E+01  0.20059961303E+03  0.16351581187E+03 0.  0.
        -24    2    3    3    0    0  0.13573565203E+02  0.94809900743E+02  0.16553601352E+02  0.12644093837E+03  0.80871071633E+02 0.  0.
          6    2    1    2  501    0 -0.85389905400E+02 -0.78177507883E+02  0.33423553587E+03  0.39271601537E+03  0.17061452635E+03 0.  0.
         24    2    5    5    0    0 -0.70242477073E+01 -0.92060234994E+02  0.15903058129E+03  0.20022504797E+03  0.79214374496E+02 0.  0.
          5    1    5    5  501    0 -0.78365657693E+02  0.13882727111E+02  0.17520495458E+03  0.19249096739E+03  0.47000000000E+01 0. -1.
        -11    1    6    6    0    0  0.35955627145E+02 -0.39226648698E+02  0.62462791788E+02  0.82055697239E+02  0.00000000000E+00 0.  1.
         12    1    6    6    0    0 -0.42979874852E+02 -0.52833586297E+02  0.96567789502E+02  0.11816935073E+03  0.00000000000E+00 0. -1.
         -5    1    3    3    0  503  0.71816340197E+02 -0.16632392860E+02 -0.65723523440E+01  0.74158674657E+02  0.47000000000E+01 0.  1.
         11    1    4    4    0    0  0.17250559079E+01  0.84892397223E+02  0.43480919300E+02  0.95395415337E+02  0.00000000000E+00 0. -1.
        -12    1    4    4    0    0  0.11848509295E+02  0.99175035199E+01 -0.26927317947E+02  0.31045523034E+02  0.00000000000E+00 0.  1.
<mgrwt>
<rscale>  2 0.20471120E+03</rscale>
<asrwt>0</asrwt>
<pdfrwt beam="1">  1       21 0.72117877E-01 0.20618554E+03</pdfrwt>
<pdfrwt beam="2">  1       21 0.19161450E-01 0.20618554E+03</pdfrwt>
<totfact> 0.43072445E+04</totfact>
</mgrwt>
</event>
<event>
12    1  0.1013215E-001  0.2182665E+03  0.7546771E-02  0.1135672E+00
         21   -1    0    0  503  502  0.00000000000E+00  0.00000000000E+00  0.32133767742E+02  0.32133767742E+02  0.00000000000E+00 0. -1.
         21   -1    0    0  501  503 -0.00000000000E+00 -0.00000000000E+00 -0.18840730883E+04  0.18840730883E+04  0.00000000000E+00 0. -1.
          6    2    1    2  501    0  0.34275088929E+02 -0.12294978615E+03 -0.13820925530E+04  0.13992212417E+04  0.17705599795E+03 0.  0.
         24    2    3    3    0    0 -0.39802207125E+02 -0.29145118153E+02 -0.46758882650E+03  0.47692740707E+03  0.79917378245E+02 0.  0.
         -6    2    1    2    0  502 -0.34275088929E+02  0.12294978615E+03 -0.46984676756E+03  0.51698561439E+03  0.17385830110E+03 0.  0.
        -24    2    5    5    0    0 -0.76690962602E+00  0.15078698961E+03 -0.36217455564E+03  0.40073974050E+03  0.81759565039E+02 0.  0.
          5    1    3    3  501    0  0.74077296053E+02 -0.93804667995E+02 -0.91450372653E+03  0.92229383462E+03  0.47000000000E+01 0. -1.
        -11    1    4    4    0    0 -0.56875370574E+02 -0.29809090365E+02 -0.43861755953E+03  0.44329307820E+03  0.00000000000E+00 0.  1.
         12    1    4    4    0    0  0.17073163449E+02  0.66397221201E+00 -0.28971266962E+02  0.33634328872E+02  0.00000000000E+00 0. -1.
         -5    1    5    5    0  502 -0.33508179303E+02 -0.27837203461E+02 -0.10767221192E+03  0.11624587389E+03  0.47000000000E+01 0.  1.
         13    1    6    6    0    0 -0.73465701087E+00  0.10613663425E+03 -0.14899583416E+03  0.18293518920E+03  0.00000000000E+00 0. -1.
        -14    1    6    6    0    0 -0.32252615151E-01  0.44650355361E+02 -0.21317872148E+03  0.21780455130E+03  0.00000000000E+00 0.  1.
<mgrwt>
<rscale>  2 0.21761713E+03</rscale>
<asrwt>0</asrwt>
<pdfrwt beam="1">  1       21 0.49436572E-02 0.21826648E+03</pdfrwt>
<pdfrwt beam="2">  1       21 0.28985736E+00 0.21826648E+03</pdfrwt>
<totfact> 0.10436681E+04</totfact>
</mgrwt>
</event>
<event>
12    1  0.1013215E-001  0.2094489E+03  0.7546771E-02  0.1142315E+00
         21   -1    0    0  501  502  0.00000000000E+00  0.00000000000E+00  0.65967355801E+03  0.65967355801E+03  0.00000000000E+00 0. -1.
         21   -1    0    0  502  503 -0.00000000000E+00 -0.00000000000E+00 -0.97160096836E+02  0.97160096836E+02  0.00000000000E+00 0. -1.
         -6    2    1    2    0  503 -0.53729845887E+01 -0.11669253146E+03  0.67688545554E+02  0.22011492428E+03  0.17384713064E+03 0.  0.
        -24    2    3    3    0    0  0.33065394481E+02 -0.13558310911E+03  0.33910722360E+02  0.16536646085E+03  0.81975786027E+02 0.  0.
          6    2    1    2  501    0  0.53729845887E+01  0.11669253146E+03  0.49482491562E+03  0.53671873056E+03  0.17195721199E+03 0.  0.
         24    2    5    5    0    0  0.48476394009E+02  0.37299727898E+02  0.36163028165E+03  0.37570934673E+03  0.81485103795E+02 0.  0.
          5    1    5    5  501    0 -0.43103409421E+02  0.79392803565E+02  0.13319463397E+03  0.16100938383E+03  0.47000000000E+01 0.  1.
        -11    1    6    6    0    0  0.61407891549E+02  0.10428160868E+02  0.15678066799E+03  0.16870048470E+03  0.00000000000E+00 0.  1.
         12    1    6    6    0    0 -0.12931497539E+02  0.26871567030E+02  0.20484961366E+03  0.20700886203E+03  0.00000000000E+00 0. -1.
         -5    1    3    3    0  503 -0.38438379069E+02  0.18890577643E+02  0.33777823194E+02  0.54748463438E+02  0.47000000000E+01 0.  1.
         13    1    4    4    0    0  0.16344534921E+02 -0.14897845582E+02 -0.22104918097E+02  0.31268467005E+02  0.00000000000E+00 0. -1.
        -14    1    4    4    0    0  0.16720859560E+02 -0.12068526352E+03  0.56015640457E+02  0.13409799384E+03  0.00000000000E+00 0.  1.
<mgrwt>
<rscale>  2 0.20905629E+03</rscale>
<asrwt>0</asrwt>
<pdfrwt beam="1">  1       21 0.10148824E+00 0.20944890E+03</pdfrwt>
<pdfrwt beam="2">  1       21 0.14947708E-01 0.20944890E+03</pdfrwt>
<totfact> 0.30994547E+04</totfact>
</mgrwt>
</event>
<event>
12    1  0.1013215E-001  0.2232702E+03  0.7546771E-02  0.1131504E+00
         21   -1    0    0  501  502  0.00000000000E+00  0.00000000000E+00  0.20723450122E+03  0.20723450122E+03  0.00000000000E+00 0. -1.
         21   -1    0    0  502  503 -0.00000000000E+00 -0.00000000000E+00 -0.24051486946E+03  0.24051486946E+03  0.00000000000E+00 0. -1.
         -6    2    1    2    0  503  0.12987048546E+03 -0.55349768291E+02 -0.10579539810E+02  0.22352069017E+03  0.17297292397E+03 0.  0.
        -24    2    3    3    0    0  0.14484120080E+03 -0.78482656805E+02 -0.34729326270E+02  0.18658080611E+03  0.80422448575E+02 0.  0.
          6    2    1    2  501    0 -0.12987048546E+03  0.55349768291E+02 -0.22700828438E+02  0.22422868051E+03  0.17272299704E+03 0.  0.
         24    2    5    5    0    0 -0.86080677042E+02  0.10350108505E+03 -0.40765336120E+01  0.15636815454E+03  0.79448247699E+02 0.  0.
          5    1    5    5  501    0 -0.43789808420E+02 -0.48151316757E+02 -0.18624294826E+02  0.67860525968E+02  0.47000000000E+01 0. -1.
        -11    1    6    6    0    0  0.13679964004E+02  0.22029992965E+02 -0.90645720066E+01  0.27470501831E+02  0.00000000000E+00 0.  1.
         12    1    6    6    0    0 -0.99760641047E+02  0.81471092083E+02  0.49880383946E+01  0.12889765271E+03  0.00000000000E+00 0. -1.
         -5    1    3    3    0  503 -0.14970715339E+02  0.23132888514E+02  0.24149786460E+02  0.36939884066E+02  0.47000000000E+01 0.  1.
         13    1    4    4    0    0  0.27491251508E+02 -0.16484514425E+02 -0.42964783049E+02  0.53604857129E+02  0.00000000000E+00 0. -1.
        -14    1    4    4    0    0  0.11734994929E+03 -0.61998142380E+02  0.82354567797E+01  0.13297594898E+03  0.00000000000E+00 0.  1.
<mgrwt>
<rscale>  2 0.22322177E+03</rscale>
<asrwt>0</asrwt>
<pdfrwt beam="1">  1       21 0.31882231E-01 0.22327018E+03</pdfrwt>
<pdfrwt beam="2">  1       21 0.37002288E-01 0.22327018E+03</pdfrwt>
<totfact> 0.65752662E+04</totfact>
</mgrwt>
</event>
<event>
12    1  0.1013215E-001  0.3342573E+03  0.7546771E-02  0.1069391E+00
         21   -1    0    0  501  502  0.00000000000E+00  0.00000000000E+00  0.12718665570E+03  0.12718665570E+03  0.00000000000E+00 0. -1.
         21   -1    0    0  502  503 -0.00000000000E+00 -0.00000000000E+00 -0.15996881372E+04  0.15996881372E+04  0.00000000000E+00 0.  1.
         -6    2    1    2    0  503  0.98620550560E+02 -0.26784468249E+03 -0.13165178199E+04  0.13580132502E+04  0.17179648031E+03 0.  0.
        -24    2    3    3    0    0  0.81653964734E+02 -0.11645342569E+03 -0.46075716917E+03  0.48878626084E+03  0.79912887170E+02 0.  0.
          6    2    1    2  501    0 -0.98620550560E+02  0.26784468249E+03 -0.15598366161E+03  0.36886154272E+03  0.17395731681E+03 0.  0.
         24    2    5    5    0    0 -0.13154664233E+03  0.19072008681E+03 -0.14562884942E+03  0.28423505210E+03  0.76831845211E+02 0.  0.
          5    1    5    5  501    0  0.32926091769E+02  0.77124595682E+02 -0.10354812195E+02  0.84626490616E+02  0.47000000000E+01 0. -1.
        -11    1    6    6    0    0 -0.79212226994E+02  0.16378498354E+03 -0.88917924093E+02  0.20250060485E+03  0.00000000000E+00 0.  1.
         12    1    6    6    0    0 -0.52334415335E+02  0.26935103272E+02 -0.56710925324E+02  0.81734447254E+02  0.00000000000E+00 0. -1.
         -5    1    3    3    0  503  0.16966585826E+02 -0.15139125681E+03 -0.85576065075E+03  0.86922698937E+03  0.47000000000E+01 0.  1.
         11    1    4    4    0    0  0.42396188643E+02 -0.98074693624E+02 -0.22503978397E+03  0.24911641197E+03  0.00000000000E+00 0. -1.
        -12    1    4    4    0    0  0.39257776090E+02 -0.18378732063E+02 -0.23571738519E+03  0.23966984887E+03  0.00000000000E+00 0.  1.
<mgrwt>
<rscale>  2 0.33397707E+03</rscale>
<asrwt>0</asrwt>
<pdfrwt beam="1">  1       21 0.19567178E-01 0.33425729E+03</pdfrwt>
<pdfrwt beam="2">  1       21 0.24610586E+00 0.33425729E+03</pdfrwt>
<totfact> 0.14884144E+03</totfact>
</mgrwt>
</event>
<event>
12    1  0.1013215E-001  0.1842563E+03  0.7546771E-02  0.1164036E+00
         21   -1    0    0  501  502  0.00000000000E+00  0.00000000000E+00  0.85178611178E+03  0.85178611178E+03  0.00000000000E+00 0.  1.
         21   -1    0    0  502  503 -0.00000000000E+00 -0.00000000000E+00 -0.14023848955E+03  0.14023848955E+03  0.00000000000E+00 0. -1.
         -6    2    1    2    0  503 -0.29429221853E+02  0.58296618801E+02 -0.64764312852E+02  0.19414578240E+03  0.17097834291E+03 0.  0.
        -24    2    3    3    0    0 -0.43996204632E+02  0.97571931410E+02 -0.70939800270E+02  0.15154327294E+03  0.80479565666E+02 0.  0.
          6    2    1    2  501    0  0.29429221853E+02 -0.58296618801E+02  0.77631193509E+03  0.79787881892E+03  0.17229571748E+03 0.  0.
         24    2    5    5    0    0  0.39457235048E+02  0.15930067219E+02  0.30856952311E+03  0.32415398747E+03  0.89721884537E+02 0.  0.
          5    1    5    5  501    0 -0.10028013196E+02 -0.74226686020E+02  0.46774241198E+03  0.47372483145E+03  0.47000000000E+01 0. -1.
        -11    1    6    6    0    0  0.37347224244E+02  0.44901150908E+02  0.26780167441E+03  0.27409608777E+03  0.00000000000E+00 0.  1.
         12    1    6    6    0    0  0.21100108044E+01 -0.28971083689E+02  0.40767848694E+02  0.50057899704E+02  0.00000000000E+00 0. -1.
         -5    1    3    3    0  503  0.14566982779E+02 -0.39275312610E+02  0.61754874183E+01  0.42602509465E+02  0.47000000000E+01 0.  1.
         13    1    4    4    0    0 -0.46684931207E+02  0.84929442476E+02 -0.87476168031E+02  0.13055486576E+03  0.00000000000E+00 0. -1.
        -14    1    4    4    0    0  0.26887265747E+01  0.12642488935E+02  0.16536367761E+02  0.20988407176E+02  0.00000000000E+00 0.  1.
<mgrwt>
<rscale>  2 0.18394772E+03</rscale>
<asrwt>0</asrwt>
<pdfrwt beam="1">  1       21 0.13104401E+00 0.18425631E+03</pdfrwt>
<pdfrwt beam="2">  1       21 0.21575153E-01 0.18425631E+03</pdfrwt>
<totfact> 0.85369242E+03</totfact>
</mgrwt>
</event>
<event>
12    1  0.1013215E-001  0.2601251E+03  0.7546771E-02  0.1107220E+00
         21   -1    0    0  501  502  0.00000000000E+00  0.00000000000E+00  0.93959641019E+03  0.93959641019E+03  0.00000000000E+00 0.  1.
         21   -1    0    0  502  503 -0.00000000000E+00 -0.00000000000E+00 -0.81129860870E+02  0.81129860870E+02  0.00000000000E+00 0. -1.
         -6    2    1    2    0  503 -0.18976891323E+03 -0.46325062058E+02  0.25482037020E+03  0.36341830742E+03  0.17023863634E+03 0.  0.
        -24    2    3    3    0    0 -0.14164447024E+03 -0.18146112007E+02  0.81894068531E+02  0.18166129643E+03  0.76822853556E+02 0.  0.
          6    2    1    2  501    0  0.18976891323E+03  0.46325062058E+02  0.60364617912E+03  0.65730796363E+03  0.17177542806E+03 0.  0.
         24    2    5    5    0    0  0.14164058996E+03  0.91658959094E+02  0.50379881930E+03  0.53746188324E+03  0.81170216872E+02 0.  0.
          5    1    5    5  501    0  0.48128323271E+02 -0.45333897036E+02  0.99847359826E+02  0.11984608039E+03  0.47000000000E+01 0. -1.
        -13    1    6    6    0    0  0.88986956700E+02  0.12217192511E+02  0.20454606856E+03  0.22339881920E+03  0.00000000000E+00 0.  1.
         14    1    6    6    0    0  0.52653633256E+02  0.79441766582E+02  0.29925275074E+03  0.31406306404E+03  0.00000000000E+00 0. -1.
         -5    1    3    3    0  503 -0.48124442986E+02 -0.28178950051E+02  0.17292630166E+03  0.18175701100E+03  0.47000000000E+01 0.  1.
         11    1    4    4    0    0 -0.51817556307E+02 -0.43676500062E+02  0.24569053095E+02  0.72085603065E+02  0.00000000000E+00 0. -1.
        -12    1    4    4    0    0 -0.89826913935E+02  0.25530388055E+02  0.57325015437E+02  0.10957569336E+03  0.00000000000E+00 0.  1.
<mgrwt>
<rscale>  2 0.25987163E+03</rscale>
<asrwt>0</asrwt>
<pdfrwt beam="1">  1       21 0.14455329E+00 0.26012507E+03</pdfrwt>
<pdfrwt beam="2">  1       21 0.12481518E-01 0.26012507E+03</pdfrwt>
<totfact> 0.17287106E+04</totfact>
</mgrwt>
</event>
<event>
12    1  0.1013215E-001  0.3325861E+03  0.7546771E-02  0.1070008E+00
         21   -1    0    0  501  502  0.00000000000E+00  0.00000000000E+00  0.46643854956E+03  0.46643854956E+03  0.00000000000E+00 0. -1.
         21   -1    0    0  502  503 -0.00000000000E+00 -0.00000000000E+00 -0.43298098946E+03  0.43298098946E+03  0.00000000000E+00 0.  1.
         -6    2    1    2    0  503  0.23692035196E+03  0.15312331688E+03 -0.28576344187E+03  0.43849090419E+03  0.17616902396E+03 0.  0.
        -24    2    3    3    0    0  0.21370215142E+03  0.17713523481E+03 -0.21653524810E+03  0.36148252898E+03  0.82076818646E+02 0.  0.
          6    2    1    2  501    0 -0.23692035196E+03 -0.15312331688E+03  0.31922100198E+03  0.46092863483E+03  0.17599759930E+03 0.  0.
         24    2    5    5    0    0 -0.23628633184E+03 -0.10405136389E+03  0.30936894562E+03  0.41065327739E+03  0.79177350140E+02 0.  0.
          5    1    5    5  501    0 -0.63402012464E+00 -0.49071952988E+02  0.98520563553E+01  0.50275357443E+02  0.47000000000E+01 0. -1.
        -13    1    6    6    0    0 -0.60773959251E+02 -0.53102548109E+02  0.55924363092E+02  0.98188029443E+02  0.00000000000E+00 0.  1.
         14    1    6    6    0    0 -0.17551237259E+03 -0.50948815782E+02  0.25344458253E+03  0.31246524795E+03  0.00000000000E+00 0. -1.
         -5    1    3    3    0  503  0.23218200541E+02 -0.24011917929E+02 -0.69228193772E+02  0.77008375206E+02  0.47000000000E+01 0.  1.
         13    1    4    4    0    0  0.18589899057E+02  0.54916866911E+02 -0.30668275425E+02  0.65589555081E+02  0.00000000000E+00 0. -1.
        -14    1    4    4    0    0  0.19511225236E+03  0.12221836790E+03 -0.18586697267E+03  0.29589297390E+03  0.00000000000E+00 0.  1.
<mgrwt>
<rscale>  2 0.33256343E+03</rscale>
<asrwt>0</asrwt>
<pdfrwt beam="1">  1       21 0.71759777E-01 0.33258612E+03</pdfrwt>
<pdfrwt beam="2">  1       21 0.66612460E-01 0.33258612E+03</pdfrwt>
<totfact> 0.33151948E+03</totfact>
</mgrwt>
</event>
<event>
12    1  0.1013215E-001  0.1969656E+03  0.7546771E-02  0.1152433E+00
         21   -1    0    0  503  502  0.00000000000E+00  0.00000000000E+00  0.57056208140E+03  0.57056208140E+03  0.00000000000E+00 0.  1.
         21   -1    0    0  501  503 -0.00000000000E+00 -0.00000000000E+00 -0.13819250542E+03  0.13819250542E+03  0.00000000000E+00 0.  1.
          6    2    1    2  501    0 -0.37972126925E+02  0.86670192039E+02 -0.36834171613E+02  0.19988565000E+03  0.17217407547E+03 0.  0.
         24    2    3    3    0    0 -0.76932098268E+02  0.38674969850E+02  0.14701871230E+02  0.11926633202E+03  0.81203521463E+02 0.  0.
         -6    2    1    2    0  502  0.37972126925E+02 -0.86670192039E+02  0.46920374759E+03  0.50886893683E+03  0.17274789000E+03 0.  0.
        -24    2    5    5    0    0  0.46715010526E+02 -0.11339748343E+03  0.28918934471E+03  0.32661070968E+03  0.89458354128E+02 0.  0.
          5    1    3    3  501    0  0.38959971343E+02  0.47995222189E+02 -0.51536042843E+02  0.80619317982E+02  0.47000000000E+01 0. -1.
        -11    1    4    4    0    0 -0.34666633896E+02 -0.18706938761E+02 -0.14872662793E+02  0.42106070371E+02  0.00000000000E+00 0.  1.
         12    1    4    4    0    0 -0.42265464372E+02  0.57381908611E+02  0.29574534023E+02  0.77160261645E+02  0.00000000000E+00 0. -1.
         -5    1    5    5    0  502 -0.87428836007E+01  0.26727291395E+02  0.18001440288E+03  0.18225822715E+03  0.47000000000E+01 0.  1.
         11    1    6    6    0    0  0.10335651271E+02 -0.46064183310E+00 -0.33906483378E+01  0.10887349275E+02  0.00000000000E+00 0. -1.
        -12    1    6    6    0    0  0.36379359255E+02 -0.11293684160E+03  0.29257999305E+03  0.31572336040E+03  0.00000000000E+00 0.  1.
<mgrwt>
<rscale>  2 0.19683969E+03</rscale>
<asrwt>0</asrwt>
<pdfrwt beam="1">  1       21 0.87778780E-01 0.19696558E+03</pdfrwt>
<pdfrwt beam="2">  1       21 0.21260386E-01 0.19696558E+03</pdfrwt>
<totfact> 0.22853108E+04</totfact>
</mgrwt>
</event>
<event>
12    1  0.1013215E-001  0.1897336E+03  0.7546771E-02  0.1158708E+00
         21   -1    0    0  501  502  0.00000000000E+00  0.00000000000E+00  0.57117877660E+02  0.57117877660E+02  0.00000000000E+00 0.  1.
         21   -1    0    0  502  503 -0.00000000000E+00 -0.00000000000E+00 -0.70299054112E+03  0.70299054112E+03  0.00000000000E+00 0.  1.
         -6    2    1    2    0  503  0.25793278513E+02 -0.73980421564E+02 -0.44524156018E+03  0.48397132837E+03  0.17277095758E+03 0.  0.
        -24    2    3    3    0    0  0.52041360097E+02 -0.39541385928E+01 -0.13663438484E+03  0.16639752472E+03  0.79342565749E+02 0.  0.
          6    2    1    2  501    0 -0.25793278513E+02  0.73980421564E+02 -0.20063110328E+03  0.27613709041E+03  0.17280178560E+03 0.  0.
         24    2    5    5    0    0 -0.51164236763E+02  0.53025334713E+02 -0.21396823441E+03  0.24032130821E+03  0.80885478284E+02 0.  0.
          5    1    5    5  501    0  0.25370958250E+02  0.20955086850E+02  0.13337131136E+02  0.35815782197E+02  0.47000000000E+01 0. -1.
        -11    1    6    6    0    0 -0.17641565519E+02  0.46012299608E+02 -0.19508399422E+03  0.20121163324E+03  0.00000000000E+00 0.  1.
         12    1    6    6    0    0 -0.33522671245E+02  0.70130351056E+01 -0.18884240191E+02  0.39109674971E+02  0.00000000000E+00 0. -1.
         -5    1    3    3    0  503 -0.26248081584E+02 -0.70026282971E+02 -0.30860717534E+03  0.31757380365E+03  0.47000000000E+01 0.  1.
         13    1    4    4    0    0  0.28736561201E+02 -0.11635961570E+02 -0.37065091615E+01  0.31223769175E+02  0.00000000000E+00 0. -1.
        -14    1    4    4    0    0  0.23304798896E+02  0.76818229774E+01 -0.13292787568E+03  0.13517375555E+03  0.00000000000E+00 0.  1.
<mgrwt>
<rscale>  2 0.18972662E+03</rscale>
<asrwt>0</asrwt>
<pdfrwt beam="1">  1       21 0.87873657E-02 0.18973364E+03</pdfrwt>
<pdfrwt beam="2">  1       21 0.10815239E+00 0.18973364E+03</pdfrwt>
<totfact> 0.69401963E+04</totfact>
</mgrwt>
</event>
<event>
12    1  0.1013215E-001  0.2957604E+03  0.7546771E-02  0.1087436E+00
         21   -1    0    0  503  502  0.00000000000E+00  0.00000000000E+00  0.85464343475E+03  0.85464343475E+03  0.00000000000E+00 0.  1.
         21   -1    0    0  501  503 -0.00000000000E+00 -0.00000000000E+00 -0.18376934682E+03  0.18376934682E+03  0.00000000000E+00 0. -1.
          6    2    1    2  501    0  0.73674903585E+01  0.23783770890E+03 -0.10341800601E+02  0.29594115303E+03  0.17565066902E+03 0.  0.
         24    2    3    3    0    0 -0.42120921180E+02  0.20284694070E+03  0.27183407679E+02  0.22450105230E+03  0.82101957827E+02 0.  0.
         -6    2    1    2    0  502 -0.73674903585E+01 -0.23783770890E+03  0.68121588853E+03  0.74247162853E+03  0.17489418717E+03 0.  0.
        -24    2    5    5    0    0  0.25559541910E+02 -0.87354964832E+02  0.17433451200E+03  0.21267915446E+03  0.80967404575E+02 0.  0.
          5    1    3    3  501    0  0.49488411539E+02  0.34990768202E+02 -0.37525208280E+02  0.71440100731E+02  0.47000000000E+01 0. -1.
        -11    1    4    4    0    0  0.13124425514E+01 -0.62574873084E+01  0.77561185640E+01  0.10051667923E+02  0.00000000000E+00 0.  1.
         12    1    4    4    0    0 -0.43433363732E+02  0.20910442801E+03  0.19427289115E+02  0.21444938438E+03  0.00000000000E+00 0. -1.
         -5    1    5    5    0  502 -0.32927032268E+02 -0.15048274407E+03  0.50688137653E+03  0.52979247408E+03  0.47000000000E+01 0.  1.
         13    1    6    6    0    0  0.37492135268E+01  0.15048519922E+02  0.35927741589E+02  0.39132047858E+02  0.00000000000E+00 0. -1.
        -14    1    6    6    0    0  0.21810328383E+02 -0.10240348475E+03  0.13840677041E+03  0.17354710660E+03  0.00000000000E+00 0.  1.
<mgrwt>
<rscale>  2 0.29564817E+03</rscale>
<asrwt>0</asrwt>
<pdfrwt beam="1">  1       21 0.13148360E+00 0.29576040E+03</pdfrwt>
<pdfrwt beam="2">  1       21 0.28272208E-01 0.29576040E+03</pdfrwt>
<totfact> 0.46840855E+03</totfact>
</mgrwt>
</event>
<event>
12    1  0.1013215E-001  0.2201022E+03  0.7546771E-02  0.1134040E+00
         21   -1    0    0  501  502  0.00000000000E+00  0.00000000000E+00  0.45592634670E+03  0.45592634670E+03  0.00000000000E+00 0. -1.
         21   -1    0    0  502  503 -0.00000000000E+00 -0.00000000000E+00 -0.11374134206E+03  0.11374134206E+03  0.00000000000E+00 0. -1.
         -6    2    1    2    0  503  0.38612451253E+02 -0.12843523175E+03  0.24658917539E+03  0.32970200828E+03  0.17294699391E+03 0.  0.
        -24    2    3    3    0    0  0.42769983864E+02 -0.14946045516E+03  0.14491017334E+03  0.22568251706E+03  0.75933793486E+02 0.  0.
          6    2    1    2  501    0 -0.38612451253E+02  0.12843523175E+03  0.95595829252E+02  0.23996568047E+03  0.17452345140E+03 0.  0.
         24    2    5    5    0    0 -0.27627150343E+02 -0.10520540438E+02  0.29902871411E+02  0.85800061182E+02  0.74789889510E+02 0.  0.
          5    1    5    5  501    0 -0.10985300910E+02  0.13895577219E+03  0.65692957841E+02  0.15416561929E+03  0.47000000000E+01 0. -1.
        -11    1    6    6    0    0 -0.10450159188E+02  0.21248358997E+02  0.41575091525E+02  0.47845447249E+02  0.00000000000E+00 0.  1.
         12    1    6    6    0    0 -0.17176991154E+02 -0.31768899435E+02 -0.11672220113E+02  0.37954613933E+02  0.00000000000E+00 0. -1.
         -5    1    3    3    0  503 -0.41575326107E+01  0.21025223407E+02  0.10167900205E+03  0.10401949122E+03  0.47000000000E+01 0.  1.
         11    1    4    4    0    0  0.12277474417E+02 -0.65400814269E+01  0.48871449020E+02  0.50812671377E+02  0.00000000000E+00 0. -1.
        -12    1    4    4    0    0  0.30492509447E+02 -0.14292037374E+03  0.96038724319E+02  0.17486984568E+03  0.00000000000E+00 0.  1.
<mgrwt>
<rscale>  2 0.21978953E+03</rscale>
<asrwt>0</asrwt>
<pdfrwt beam="1">  1       21 0.70142514E-01 0.22010217E+03</pdfrwt>
<pdfrwt beam="2">  1       21 0.17498668E-01 0.22010217E+03</pdfrwt>
<totfact> 0.53859512E+04</totfact>
</mgrwt>
</event>
<event>
12    1  0.1013215E-001  0.1874686E+03  0.7546771E-02  0.1161240E+00
         21   -1    0    0  501  502  0.00000000000E+00  0.00000000000E+00  0.69819091667E+02  0.69819091667E+02  0.00000000000E+00 0. -1.
         21   -1    0    0  502  503 -0.00000000000E+00 -0.00000000000E+00 -0.58893053050E+03  0.58893053050E+03  0.00000000000E+00 0. -1.
         -6    2    1    2    0  503 -0.13794141415E+02  0.68903817550E+02 -0.39029903381E+03  0.43298706847E+03  0.17380003240E+03 0.  0.
        -24    2    3    3    0    0  0.16842392747E+02  0.55411534330E+02 -0.38664998477E+03  0.39898641420E+03  0.79610575090E+02 0.  0.
          6    2    1    2  501    0  0.13794141415E+02 -0.68903817550E+02 -0.12881240502E+03  0.22576255369E+03  0.17157529120E+03 0.  0.
         24    2    5    5    0    0  0.73716862317E+02 -0.58351410710E+02 -0.60804405585E+02  0.13438824791E+03  0.74323364529E+02 0.  0.
          5    1    5    5  501    0 -0.59922720903E+02 -0.10552406840E+02 -0.68007999438E+02  0.91374305787E+02  0.47000000000E+01 0. -1.
        -13    1    6    6    0    0  0.85868953509E+02 -0.45512456897E+02 -0.64080142168E+02  0.11640930173E+03  0.00000000000E+00 0.  1.
         14    1    6    6    0    0 -0.12152091192E+02 -0.12838953813E+02  0.32757365827E+01  0.17978946173E+02  0.00000000000E+00 0. -1.
         -5    1    3    3    0  503 -0.30636534162E+02  0.13492283220E+02 -0.36490490393E+01  0.34000654271E+02  0.47000000000E+01 0.  1.
         13    1    4    4    0    0  0.21752504289E+02  0.24851156054E+02 -0.44382941736E+02  0.55322661877E+02  0.00000000000E+00 0. -1.
        -14    1    4    4    0    0 -0.49101115420E+01  0.30560378277E+02 -0.34226704303E+03  0.34366375232E+03  0.00000000000E+00 0.  1.
<mgrwt>
<rscale>  2 0.18695127E+03</rscale>
<asrwt>0</asrwt>
<pdfrwt beam="1">  1       21 0.10741398E-01 0.18746857E+03</pdfrwt>
<pdfrwt beam="2">  1       21 0.90604700E-01 0.18746857E+03</pdfrwt>
<totfact> 0.74120978E+04</totfact>
</mgrwt>
</event>
<event>
12    1  0.1013215E-001  0.2067443E+03  0.7546771E-02  0.1144761E+00
         21   -1    0    0  503  502  0.00000000000E+00  0.00000000000E+00  0.24677582047E+03  0.24677582047E+03  0.00000000000E+00 0.  1.
         21   -1    0    0  501  503 -0.00000000000E+00 -0.00000000000E+00 -0.22830998826E+03  0.22830998826E+03  0.00000000000E+00 0.  1.
          6    2    1    2  501    0  0.99630622702E+02 -0.54164761628E+02 -0.11005237670E+03  0.23165176166E+03  0.16938397410E+03 0.  0.
         24    2    3    3    0    0  0.11909484840E+01 -0.67376163001E+01 -0.69749055270E+02  0.11509211473E+03  0.91293210760E+02 0.  0.
         -6    2    1    2    0  502 -0.99630622702E+02  0.54164761628E+02  0.12851820891E+03  0.24343404707E+03  0.17286735628E+03 0.  0.
        -24    2    5    5    0    0 -0.32534987145E+02  0.55085658629E+02  0.30875820149E+01  0.10110483529E+03  0.78228507470E+02 0.  0.
          5    1    3    3  501    0  0.98439674218E+02 -0.47427145328E+02 -0.40303321431E+02  0.11655964693E+03  0.47000000000E+01 0. -1.
        -11    1    4    4    0    0 -0.17854311241E+02 -0.45196006948E+02 -0.35369463839E+02  0.60103697442E+02  0.00000000000E+00 0.  1.
         12    1    4    4    0    0  0.19045259725E+02  0.38458390648E+02 -0.34379591431E+02  0.54988417291E+02  0.00000000000E+00 0. -1.
         -5    1    5    5    0  502 -0.67095635557E+02 -0.92089700173E+00  0.12543062690E+03  0.14232921178E+03  0.47000000000E+01 0.  1.
         13    1    6    6    0    0 -0.30954945638E+02  0.52510598209E+02 -0.29959373924E+02  0.67920068239E+02  0.00000000000E+00 0. -1.
        -14    1    6    6    0    0 -0.15800415077E+01  0.25750604205E+01  0.33046955939E+02  0.33184767050E+02  0.00000000000E+00 0.  1.
<mgrwt>
<rscale>  2 0.20601453E+03</rscale>
<asrwt>0</asrwt>
<pdfrwt beam="1">  1       21 0.37965511E-01 0.20674430E+03</pdfrwt>
<pdfrwt beam="2">  1       21 0.35124614E-01 0.20674430E+03</pdfrwt>
<totfact> 0.51929258E+04</totfact>
</mgrwt>
</event>
<event>
12    1  0.1013215E-001  0.2030665E+03  0.7546771E-02  0.1147330E+00
         21   -1    0    0  503  502  0.00000000000E+00  0.00000000000E+00  0.81122717703E+02  0.81122717703E+02  0.00000000000E+00 0.  1.
         21   -1    0    0  501  503 -0.00000000000E+00 -0.00000000000E+00 -0.55481872834E+03  0.55481872834E+03  0.00000000000E+00 0. -1.
          6    2    1    2  501    0 -0.11399192057E+02  0.10391519907E+03 -0.14337671919E+03  0.24858178494E+03  0.17409109690E+03 0.  0.
         24    2    3    3    0    0  0.43651956739E+02  0.59181918708E+02 -0.26922584810E+02  0.11214370092E+03  0.80270737228E+02 0.  0.
         -6    2    1    2    0  502  0.11399192057E+02 -0.10391519907E+03 -0.33031929145E+03  0.38735966111E+03  0.17322921974E+03 0.  0.
        -24    2    5    5    0    0 -0.39808093640E+02 -0.10434516714E+03 -0.25833914989E+03  0.29889722976E+03  0.10063716693E+03 0.  0.
          5    1    3    3  501    0 -0.55051148795E+02  0.44733280358E+02 -0.11645413438E+03  0.13643808401E+03  0.47000000000E+01 0. -1.
        -13    1    4    4    0    0  0.37606349645E+02  0.57044778809E+02  0.14817848675E+02  0.69913610709E+02  0.00000000000E+00 0.  1.
         14    1    4    4    0    0  0.60456070937E+01  0.21371398987E+01 -0.41740433485E+02  0.42230090216E+02  0.00000000000E+00 0. -1.
         -5    1    5    5    0  502  0.51207285697E+02  0.42996807588E+00 -0.71980141567E+02  0.88462431353E+02  0.47000000000E+01 0.  1.
         13    1    6    6    0    0  0.29537180898E+02 -0.43054328850E+02 -0.13463268710E+03  0.14440249556E+03  0.00000000000E+00 0. -1.
        -14    1    6    6    0    0 -0.69345274538E+02 -0.61290838292E+02 -0.12370646278E+03  0.15449473419E+03  0.00000000000E+00 0.  1.
<mgrwt>
<rscale>  2 0.20288169E+03</rscale>
<asrwt>0</asrwt>
<pdfrwt beam="1">  1       21 0.12480418E-01 0.20306654E+03</pdfrwt>
<pdfrwt beam="2">  1       21 0.85356731E-01 0.20306654E+03</pdfrwt>
<totfact> 0.64596613E+04</totfact>
</mgrwt>
</event>
<event>
12    1  0.1013215E-001  0.1817885E+03  0.7546771E-02  0.1167022E+00
         21   -1    0    0  503  502  0.00000000000E+00  0.00000000000E+00  0.48128161658E+02  0.48128161658E+02  0.00000000000E+00 0.  1.
         21   -1    0    0  501  503 -0.00000000000E+00 -0.00000000000E+00 -0.67317549008E+03  0.67317549008E+03  0.00000000000E+00 0.  1.
          6    2    1    2  501    0  0.44830598611E+02 -0.87098116427E+01 -0.30114166967E+03  0.35175752060E+03  0.17595853119E+03 0.  0.
         24    2    3    3    0    0  0.76197891252E+02  0.28312140032E+02 -0.26531442838E+03  0.29125782497E+03  0.88496772787E+02 0.  0.
         -6    2    1    2    0  502 -0.44830598611E+02  0.87098116427E+01 -0.32390565875E+03  0.36954613113E+03  0.17194133847E+03 0.  0.
        -24    2    5    5    0    0  0.40117793800E+02 -0.15399472465E+01 -0.11525671200E+03  0.14398514179E+03  0.76392424888E+02 0.  0.
          5    1    3    3  501    0 -0.31367292641E+02 -0.37021951674E+02 -0.35827241287E+02  0.60499695633E+02  0.47000000000E+01 0. -1.
        -11    1    4    4    0    0  0.54341458472E+02 -0.15053327517E+02 -0.21097693088E+03  0.21838237598E+03  0.00000000000E+00 0.  1.
         12    1    4    4    0    0  0.21856432781E+02  0.43365467549E+02 -0.54337497503E+02  0.72875448983E+02  0.00000000000E+00 0. -1.
         -5    1    5    5    0  502 -0.84948392412E+02  0.10249758889E+02 -0.20864894675E+03  0.22556098934E+03  0.47000000000E+01 0.  1.
         11    1    6    6    0    0  0.21844553124E+02  0.37376549730E+02 -0.56506600165E+02  0.71184175440E+02  0.00000000000E+00 0. -1.
        -12    1    6    6    0    0  0.18273240677E+02 -0.38916496977E+02 -0.58750111833E+02  0.72800966355E+02  0.00000000000E+00 0.  1.
<mgrwt>
<rscale>  2 0.18080921E+03</rscale>
<asrwt>0</asrwt>
<pdfrwt beam="1">  1       21 0.74043324E-02 0.18178847E+03</pdfrwt>
<pdfrwt beam="2">  1       21 0.10356546E+00 0.18178847E+03</pdfrwt>
<totfact> 0.10411031E+05</totfact>
</mgrwt>
</event>
<event>
12    1  0.1013215E-001  0.2828080E+03  0.7546771E-02  0.1094652E+00
         21   -1    0    0  503  502  0.00000000000E+00  0.00000000000E+00  0.13715518783E+03  0.13715518783E+03  0.00000000000E+00 0.  1.
         21   -1    0    0  501  503 -0.00000000000E+00 -0.00000000000E+00 -0.79844189620E+03  0.79844189620E+03  0.00000000000E+00 0.  1.
          6    2    1    2  501    0  0.47510603393E+02 -0.21879235005E+03 -0.57920604879E+03  0.64456188623E+03  0.17278028925E+03 0.  0.
         24    2    3    3    0    0  0.63975970588E+02 -0.22228757417E+03 -0.43403940884E+03  0.49834708444E+03  0.80342502468E+02 0.  0.
         -6    2    1    2    0  502 -0.47510603393E+02  0.21879235005E+03 -0.82080659586E+02  0.29103519780E+03  0.16684394446E+03 0.  0.
        -24    2    5    5    0    0 -0.90972337004E+02  0.14598451058E+03 -0.24681598557E+02  0.18853326619E+03  0.73131167933E+02 0.  0.
          5    1    3    3  501    0 -0.16465367195E+02  0.34952241169E+01 -0.14516663995E+03  0.14621480179E+03  0.47000000000E+01 0. -1.
        -11    1    4    4    0    0  0.50666891425E+02 -0.50899680377E+02 -0.15068766442E+03  0.16692718041E+03  0.00000000000E+00 0.  1.
         12    1    4    4    0    0  0.13309079163E+02 -0.17138789379E+03 -0.28335174442E+03  0.33141990404E+03  0.00000000000E+00 0. -1.
         -5    1    5    5    0  502  0.43461733611E+02  0.72807839473E+02 -0.57399061029E+02  0.10250193161E+03  0.47000000000E+01 0.  1.
         11    1    6    6    0    0 -0.32646246052E+02  0.69873184419E+01 -0.17329690925E+02  0.37615398281E+02  0.00000000000E+00 0. -1.
        -12    1    6    6    0    0 -0.58326090952E+02  0.13899719214E+03 -0.73519076322E+01  0.15091786791E+03  0.00000000000E+00 0.  1.
<mgrwt>
<rscale>  2 0.28190692E+03</rscale>
<asrwt>0</asrwt>
<pdfrwt beam="1">  1       21 0.21100798E-01 0.28280802E+03</pdfrwt>
<pdfrwt beam="2">  1       21 0.12283722E+00 0.28280802E+03</pdfrwt>
<totfact> 0.98437260E+03</totfact>
</mgrwt>
</event>
<event>
12    1  0.1013215E-001  0.1798202E+03  0.7546771E-02  0.1168273E+00
         21   -1    0    0  503  502  0.00000000000E+00  0.00000000000E+00  0.32283590210E+02  0.32283590210E+02  0.00000000000E+00 0. -1.
         21   -1    0    0  501  503 -0.00000000000E+00 -0.00000000000E+00 -0.21508487238E+04  0.21508487238E+04  0.00000000000E+00 0. -1.
          6    2    1    2  501    0  0.50105826118E+02 -0.85736007737E+00 -0.18578691430E+04  0.18664341898E+04  0.17142783710E+03 0.  0.
         24    2    3    3    0    0  0.33719237726E+02  0.52842780056E+02 -0.72962433115E+03  0.73678350447E+03  0.81048883089E+02 0.  0.
         -6    2    1    2    0  502 -0.50105826118E+02  0.85736007737E+00 -0.26069599057E+03  0.31669812423E+03  0.17269618847E+03 0.  0.
        -24    2    5    5    0    0  0.28982436256E+02  0.11144482773E+02 -0.60229006903E+02  0.10089756890E+03  0.74756973118E+02 0.  0.
          5    1    3    3  501    0  0.16386588392E+02 -0.53700140134E+02 -0.11282448118E+04  0.11296506853E+04  0.47000000000E+01 0. -1.
        -13    1    4    4    0    0 -0.13405436827E+02  0.36347044970E+02 -0.51383654710E+03  0.51529487728E+03  0.00000000000E+00 0.  1.
         14    1    4    4    0    0  0.47124674553E+02  0.16495735086E+02 -0.21578778405E+03  0.22148862719E+03  0.00000000000E+00 0. -1.
         -5    1    5    5    0  502 -0.79088262374E+02 -0.10287122696E+02 -0.20046698367E+03  0.21580055533E+03  0.47000000000E+01 0.  1.
         11    1    6    6    0    0  0.16607599092E+02 -0.15181121507E+02  0.10194820904E+02  0.24702493216E+02  0.00000000000E+00 0. -1.
        -12    1    6    6    0    0  0.12374837164E+02  0.26325604280E+02 -0.70423827807E+02  0.76195075684E+02  0.00000000000E+00 0.  1.
<mgrwt>
<rscale>  2 0.17951498E+03</rscale>
<asrwt>0</asrwt>
<pdfrwt beam="1">  1       21 0.49667063E-02 0.17982019E+03</pdfrwt>
<pdfrwt beam="2">  1       21 0.33089980E+00 0.17982019E+03</pdfrwt>
<totfact> 0.62549686E+03</totfact>
</mgrwt>
</event>
<event>
12    1  0.1013215E-001  0.1919182E+03  0.7546771E-02  0.1157333E+00
         21   -1    0    0  501  502  0.00000000000E+00  0.00000000000E+00  0.27112973524E+03  0.27112973524E+03  0.00000000000E+00 0.  1.
         21   -1    0    0  502  503 -0.00000000000E+00 -0.00000000000E+00 -0.22839175613E+03  0.22839175613E+03  0.00000000000E+00 0.  1.
         -6    2    1    2    0  503 -0.77401673220E+02  0.20933941965E+01 -0.13911468378E+03  0.23703480014E+03  0.17560523886E+03 0.  0.
        -24    2    3    3    0    0 -0.11318171718E+03  0.17622780793E+02 -0.13067209103E+03  0.19685096301E+03  0.92490230604E+02 0.  0.
          6    2    1    2  501    0  0.77401673220E+02 -0.20933941965E+01  0.18185266289E+03  0.26248669123E+03  0.17272368325E+03 0.  0.
         24    2    5    5    0    0  0.11360260531E+03 -0.29587013544E+02  0.13233795088E+03  0.19510566056E+03  0.82291811473E+02 0.  0.
          5    1    5    5  501    0 -0.36200932087E+02  0.27493619348E+02  0.49514712005E+02  0.67381030667E+02  0.47000000000E+01 0. -1.
        -13    1    6    6    0    0 -0.11593641645E+02  0.45215811567E+01  0.19576154424E+02  0.23196617098E+02  0.00000000000E+00 0.  1.
         14    1    6    6    0    0  0.12519624695E+03 -0.34108594701E+02  0.11276179646E+03  0.17190904346E+03  0.00000000000E+00 0. -1.
         -5    1    3    3    0  503  0.35780043960E+02 -0.15529386597E+02 -0.84425927487E+01  0.40183837126E+02  0.47000000000E+01 0.  1.
         11    1    4    4    0    0 -0.43369933513E+02  0.15046801971E+02  0.30219161841E+01  0.46005318821E+02  0.00000000000E+00 0. -1.
        -12    1    4    4    0    0 -0.69811783667E+02  0.25759788227E+01 -0.13369400721E+03  0.15084564419E+03  0.00000000000E+00 0.  1.
<mgrwt>
<rscale>  2 0.19125654E+03</rscale>
<asrwt>0</asrwt>
<pdfrwt beam="1">  1       21 0.41712267E-01 0.19191821E+03</pdfrwt>
<pdfrwt beam="2">  1       21 0.35137193E-01 0.19191821E+03</pdfrwt>
<totfact> 0.43222386E+04</totfact>
</mgrwt>
</event>
<event>
12    1  0.1013215E-001  0.1898997E+03  0.7546771E-02  0.1158725E+00
         21   -1    0    0  501  502  0.00000000000E+00  0.00000000000E+00  0.53630935498E+03  0.53630935498E+03  0.00000000000E+00 0.  1.
         21   -1    0    0  502  503 -0.00000000000E+00 -0.00000000000E+00 -0.27956919910E+03  0.27956919910E+03  0.00000000000E+00 0.  1.
         -6    2    1    2    0  503 -0.56122426753E+02  0.54813585828E+02 -0.22730713538E+03  0.29619325583E+03  0.17293829833E+03 0.  0.
        -24    2    3    3    0    0 -0.15416238601E+02  0.90906928334E+02 -0.10672620325E+03  0.16382417213E+03  0.83343547329E+02 0.  0.
          6    2    1    2  501    0  0.56122426753E+02 -0.54813585828E+02  0.48404729126E+03  0.51968529825E+03  0.17209524416E+03 0.  0.
         24    2    5    5    0    0  0.32476674269E+02  0.35182444421E+02  0.26047320972E+03  0.27747492067E+03  0.82785867454E+02 0.  0.
          5    1    5    5  501    0  0.23645752483E+02 -0.89996030249E+02  0.22357408154E+03  0.24221037758E+03  0.47000000000E+01 0. -1.
        -13    1    6    6    0    0 -0.23115609692E+02  0.66660480047E+00  0.12384155425E+03  0.12598216672E+03  0.00000000000E+00 0.  1.
         14    1    6    6    0    0  0.55592283961E+02  0.34515839620E+02  0.13663165547E+03  0.15149275395E+03  0.00000000000E+00 0. -1.
         -5    1    3    3    0  503 -0.40706188151E+02 -0.36093342506E+02 -0.12058093213E+03  0.13236908370E+03  0.47000000000E+01 0.  1.
         13    1    4    4    0    0 -0.23281940745E+02  0.20358543891E+01  0.16731456070E+01  0.23430597179E+02  0.00000000000E+00 0. -1.
        -14    1    4    4    0    0  0.78657021436E+01  0.88871073945E+02 -0.10839934885E+03  0.14039357495E+03  0.00000000000E+00 0.  1.
<mgrwt>
<rscale>  2 0.18970759E+03</rscale>
<asrwt>0</asrwt>
<pdfrwt beam="1">  1       21 0.82509131E-01 0.18989974E+03</pdfrwt>
<pdfrwt beam="2">  1       21 0.43010646E-01 0.18989974E+03</pdfrwt>
<totfact> 0.66798435E+03</totfact>
</mgrwt>
</event>
<event>
12    1  0.1013215E-001  0.2071749E+03  0.7546771E-02  0.1144163E+00
         21   -1    0    0  503  502  0.00000000000E+00  0.00000000000E+00  0.54968371274E+03  0.54968371274E+03  0.00000000000E+00 0.  1.
         21   -1    0    0  501  503 -0.00000000000E+00 -0.00000000000E+00 -0.38758907995E+03  0.38758907995E+03  0.00000000000E+00 0.  1.
          6    2    1    2  501    0 -0.62720565103E+02  0.92553063399E+02 -0.33822395209E+03  0.39575627213E+03  0.17241707089E+03 0.  0.
         24    2    3    3    0    0 -0.10041497967E+03  0.10035610052E+03 -0.24665912408E+03  0.29631802996E+03  0.82517491083E+02 0.  0.
         -6    2    1    2    0  502  0.62720565103E+02 -0.92553063399E+02  0.50031858489E+03  0.54151652055E+03  0.17441765054E+03 0.  0.
        -24    2    5    5    0    0  0.16084764325E+02 -0.55922749996E+02  0.10787650776E+03  0.14459139956E+03  0.76702400813E+02 0.  0.
          5    1    3    3  501    0  0.37694414568E+02 -0.78030371190E+01 -0.91564828014E+02  0.99438242176E+02  0.47000000000E+01 0. -1.
        -13    1    4    4    0    0 -0.35209404899E+02  0.46932536868E+02 -0.17855731562E+03  0.18794967457E+03  0.00000000000E+00 0.  1.
         14    1    4    4    0    0 -0.65205574772E+02  0.53423563650E+02 -0.68101808460E+02  0.10836835539E+03  0.00000000000E+00 0. -1.
         -5    1    5    5    0  502  0.46635800778E+02 -0.36630313403E+02  0.39244207713E+03  0.39692512099E+03  0.47000000000E+01 0.  1.
         11    1    6    6    0    0  0.37223185365E+02 -0.32357711063E+01  0.58171155324E+02  0.69136958677E+02  0.00000000000E+00 0. -1.
        -12    1    6    6    0    0 -0.21138421040E+02 -0.52686978889E+02  0.49705352435E+02  0.75454440885E+02  0.00000000000E+00 0.  1.
<mgrwt>
<rscale>  2 0.20675330E+03</rscale>
<asrwt>0</asrwt>
<pdfrwt beam="1">  1       21 0.84566725E-01 0.20717494E+03</pdfrwt>
<pdfrwt beam="2">  1       21 0.59629089E-01 0.20717494E+03</pdfrwt>
<totfact> 0.31451571E+03</totfact>
</mgrwt>
</event>
<event>
12    1  0.1013215E-001  0.2467878E+03  0.7546771E-02  0.1115613E+00
         21   -1    0    0  501  502  0.00000000000E+00  0.00000000000E+00  0.19918076454E+03  0.19918076454E+03  0.00000000000E+00 0. -1.
         21   -1    0    0  502  503 -0.00000000000E+00 -0.00000000000E+00 -0.52716231558E+03  0.52716231558E+03  0.00000000000E+00 0.  1.
         -6    2    1    2    0  503 -0.12313957940E+02 -0.17352028260E+03 -0.40071430391E+03  0.47061253422E+03  0.17505222642E+03 0.  0.
        -24    2    3    3    0    0  0.90456652557E+01 -0.94927561056E+02 -0.10361426456E+03  0.16251584037E+03  0.81132093781E+02 0.  0.
          6    2    1    2  501    0  0.12313957940E+02  0.17352028260E+03  0.72732752870E+02  0.25573054589E+03  0.17276323895E+03 0.  0.
         24    2    5    5    0    0 -0.50331477689E+02  0.93656668084E+02  0.12949088442E+01  0.13152063048E+03  0.77402650665E+02 0.  0.
          5    1    5    5  501    0  0.62645435629E+02  0.79863614511E+02  0.71437844026E+02  0.12420991541E+03  0.47000000000E+01 0. -1.
        -11    1    6    6    0    0 -0.19222070714E+02  0.25693992615E+02 -0.35801212533E+02  0.48076980748E+02  0.00000000000E+00 0.  1.
         12    1    6    6    0    0 -0.31109406975E+02  0.67962675470E+02  0.37096121378E+02  0.83443649732E+02  0.00000000000E+00 0. -1.
         -5    1    3    3    0  503 -0.21359623195E+02 -0.78592721539E+02 -0.29710003935E+03  0.30809669385E+03  0.47000000000E+01 0.  1.
         13    1    4    4    0    0 -0.22606522229E+02 -0.12286198670E+02  0.67677715854E+00  0.25738367321E+02  0.00000000000E+00 0. -1.
        -14    1    4    4    0    0  0.31652187484E+02 -0.82641362386E+02 -0.10429104172E+03  0.13677747305E+03  0.00000000000E+00 0.  1.
<mgrwt>
<rscale>  2 0.24638219E+03</rscale>
<asrwt>0</asrwt>
<pdfrwt beam="1">  1       21 0.30643194E-01 0.24678777E+03</pdfrwt>
<pdfrwt beam="2">  1       21 0.81101895E-01 0.24678777E+03</pdfrwt>
<totfact> 0.13195817E+04</totfact>
</mgrwt>
</event>
<event>
12    1  0.1013215E-001  0.1902304E+03  0.7546771E-02  0.1158571E+00
         21   -1    0    0  503  502  0.00000000000E+00  0.00000000000E+00  0.46301145767E+03  0.46301145767E+03  0.00000000000E+00 0.  1.
         21   -1    0    0  501  503 -0.00000000000E+00 -0.00000000000E+00 -0.16647621152E+03  0.16647621152E+03  0.00000000000E+00 0. -1.
          6    2    1    2  501    0  0.43953092639E+02 -0.62649922901E+02 -0.81983593897E+02  0.20585562486E+03  0.17262196102E+03 0.  0.
         24    2    3    3    0    0  0.12439078598E+01 -0.57381848783E+02  0.15965750280E+02  0.98766918200E+02  0.78776741949E+02 0.  0.
         -6    2    1    2    0  502 -0.43953092639E+02  0.62649922901E+02  0.37851884005E+03  0.42363204433E+03  0.17415714030E+03 0.  0.
        -24    2    5    5    0    0  0.16746293029E+02  0.90377222955E+02  0.22815250226E+03  0.25905578806E+03  0.81288721720E+02 0.  0.
          5    1    3    3  501    0  0.42709184780E+02 -0.52680741182E+01 -0.97949344178E+02  0.10708870666E+03  0.47000000000E+01 0. -1.
        -11    1    4    4    0    0 -0.21492305178E+02 -0.68761115877E+02  0.12029992667E+02  0.73039242617E+02  0.00000000000E+00 0.  1.
         12    1    4    4    0    0  0.22736213038E+02  0.11379267094E+02  0.39357576133E+01  0.25727675582E+02  0.00000000000E+00 0. -1.
         -5    1    5    5    0  502 -0.60699385669E+02 -0.27727300054E+02  0.15036633779E+03  0.16457625627E+03  0.47000000000E+01 0.  1.
         13    1    6    6    0    0 -0.31520669032E+02  0.49478081237E+02  0.95311898937E+02  0.11191957460E+03  0.00000000000E+00 0. -1.
        -14    1    6    6    0    0  0.48266962061E+02  0.40899141718E+02  0.13284060333E+03  0.14713621346E+03  0.00000000000E+00 0.  1.
<mgrwt>
<rscale>  2 0.18987829E+03</rscale>
<asrwt>0</asrwt>
<pdfrwt beam="1">  1       21 0.71232532E-01 0.19023038E+03</pdfrwt>
<pdfrwt beam="2">  1       21 0.25611725E-01 0.19023038E+03</pdfrwt>
<totfact> 0.25820751E+04</totfact>
</mgrwt>
</event>
<event>
12    1  0.1013215E-001  0.2002123E+03  0.7546771E-02  0.1149739E+00
         21   -1    0    0  503  502  0.00000000000E+00  0.00000000000E+00  0.85122977306E+02  0.85122977306E+02  0.00000000000E+00 0.  1.
         21   -1    0    0  501  503 -0.00000000000E+00 -0.00000000000E+00 -0.95538530079E+03  0.95538530079E+03  0.00000000000E+00 0.  1.
          6    2    1    2  501    0  0.24023452112E+02 -0.97520084472E+02 -0.80591773713E+03  0.83021038228E+03  0.17221668528E+03 0.  0.
         24    2    3    3    0    0  0.34407396386E+02 -0.30262533496E+02 -0.22135823195E+03  0.24168399412E+03  0.85510211675E+02 0.  0.
         -6    2    1    2    0  502 -0.24023452112E+02  0.97520084472E+02 -0.64344586354E+02  0.21029789582E+03  0.17319840088E+03 0.  0.
        -24    2    5    5    0    0 -0.48743428412E+02  0.38374764367E+02 -0.76374411070E+02  0.14490636119E+03  0.10637790416E+03 0.  0.
          5    1    3    3  501    0 -0.10383944274E+02 -0.67257550976E+02 -0.58455950518E+03  0.58852638816E+03  0.47000000000E+01 0. -1.
        -11    1    4    4    0    0  0.57841489756E+02 -0.34648062820E+02 -0.19406551021E+03  0.20544475765E+03  0.00000000000E+00 0.  1.
         12    1    4    4    0    0 -0.23434093369E+02  0.43855293246E+01 -0.27292721742E+02  0.36239236465E+02  0.00000000000E+00 0. -1.
         -5    1    5    5    0  502  0.24719976300E+02  0.59145320105E+02  0.12029824715E+02  0.65391534630E+02  0.47000000000E+01 0.  1.
         11    1    6    6    0    0  0.15489620100E+02  0.54035991825E+02 -0.26824346025E+02  0.62284526834E+02  0.00000000000E+00 0. -1.
        -12    1    6    6    0    0 -0.64233048512E+02 -0.15661227458E+02 -0.49550065045E+02  0.82621834358E+02  0.00000000000E+00 0.  1.
<mgrwt>
<rscale>  2 0.19999984E+03</rscale>
<asrwt>0</asrwt>
<pdfrwt beam="1">  1       21 0.13095844E-01 0.20021234E+03</pdfrwt>
<pdfrwt beam="2">  1       21 0.14698234E+00 0.20021234E+03</pdfrwt>
<totfact> 0.15731870E+04</totfact>
</mgrwt>
</event>
<event>
12    1  0.1013215E-001  0.2020189E+03  0.7546771E-02  0.1148533E+00
         21   -1    0    0  501  502  0.00000000000E+00  0.00000000000E+00  0.23967274903E+03  0.23967274903E+03  0.00000000000E+00 0.  1.
         21   -1    0    0  502  503 -0.00000000000E+00 -0.00000000000E+00 -0.44249967727E+03  0.44249967727E+03  0.00000000000E+00 0.  1.
         -6    2    1    2    0  503  0.33404636814E+02 -0.97750882871E+02 -0.36967202488E+03  0.42016301985E+03  0.17090480510E+03 0.  0.
        -24    2    3    3    0    0  0.53631968438E+02 -0.24593523117E+02 -0.10277760040E+03  0.14264569057E+03  0.79393503995E+02 0.  0.
          6    2    1    2  501    0 -0.33404636814E+02  0.97750882871E+02  0.16684509664E+03  0.26200940645E+03  0.17361030481E+03 0.  0.
         24    2    5    5    0    0 -0.56848561463E+02  0.72179021827E+02  0.18639349080E+03  0.22191243157E+03  0.77852576954E+02 0.  0.
          5    1    5    5  501    0  0.23443924649E+02  0.25571861045E+02 -0.19548394168E+02  0.40096974883E+02  0.47000000000E+01 0. -1.
        -11    1    6    6    0    0 -0.54466316299E+02  0.11612371897E+02  0.60757372966E+02  0.82418961180E+02  0.00000000000E+00 0.  1.
         12    1    6    6    0    0 -0.23822451640E+01  0.60566649929E+02  0.12563611784E+03  0.13949347039E+03  0.00000000000E+00 0. -1.
         -5    1    3    3    0  503 -0.20227331625E+02 -0.73157359754E+02 -0.26689442448E+03  0.27751732928E+03  0.47000000000E+01 0.  1.
         13    1    4    4    0    0  0.17055435617E+02 -0.81315073230E+01  0.11097757792E+02  0.21912770784E+02  0.00000000000E+00 0. -1.
        -14    1    4    4    0    0  0.36576532822E+02 -0.16462015794E+02 -0.11387535819E+03  0.12073291979E+03  0.00000000000E+00 0.  1.
<mgrwt>
<rscale>  2 0.20143634E+03</rscale>
<asrwt>0</asrwt>
<pdfrwt beam="1">  1       21 0.36872731E-01 0.20201892E+03</pdfrwt>
<pdfrwt beam="2">  1       21 0.68076873E-01 0.20201892E+03</pdfrwt>
<totfact> 0.13889375E+04</totfact>
</mgrwt>
</event>
<event>
12    1  0.1013215E-001  0.2397470E+03  0.7546771E-02  0.1120074E+00
         21   -1    0    0  501  502  0.00000000000E+00  0.00000000000E+00  0.15037999721E+03  0.15037999721E+03  0.00000000000E+00 0. -1.
         21   -1    0    0  502  503 -0.00000000000E+00 -0.00000000000E+00 -0.43477605867E+03  0.43477605867E+03  0.00000000000E+00 0.  1.
         -6    2    1    2    0  503 -0.15069028764E+03 -0.69421555115E+02 -0.24477883896E+03  0.34215780353E+03  0.17212892671E+03 0.  0.
        -24    2    3    3    0    0 -0.47131496589E+01 -0.13715225447E+02 -0.11077439785E+03  0.13626511251E+03  0.78018539328E+02 0.  0.
          6    2    1    2  501    0  0.15069028764E+03  0.69421555115E+02 -0.39617222488E+02  0.24299825235E+03  0.17306562692E+03 0.  0.
         24    2    5    5    0    0  0.16923776374E+03  0.48523674929E+02  0.96521987243E+00  0.19350325367E+03  0.80290782948E+02 0.  0.
          5    1    5    5  501    0 -0.18547476098E+02  0.20897880186E+02 -0.40582442361E+02  0.49494998675E+02  0.47000000000E+01 0. -1.
        -13    1    6    6    0    0 -0.20857496611E+01  0.17485120741E+02  0.77942533616E+01  0.19256951588E+02  0.00000000000E+00 0.  1.
         14    1    6    6    0    0  0.17132351340E+03  0.31038554188E+02 -0.68290334891E+01  0.17424630208E+03  0.00000000000E+00 0. -1.
         -5    1    3    3    0  503 -0.14597713799E+03 -0.55706329669E+02 -0.13400444111E+03  0.20589269103E+03  0.47000000000E+01 0.  1.
         11    1    4    4    0    0 -0.38195421735E+02  0.85539682124E+01 -0.54187173708E+02  0.66845421744E+02  0.00000000000E+00 0. -1.
        -12    1    4    4    0    0  0.33482272076E+02 -0.22269193659E+02 -0.56587224142E+02  0.69419690763E+02  0.00000000000E+00 0.  1.
<mgrwt>
<rscale>  2 0.23957800E+03</rscale>
<asrwt>0</asrwt>
<pdfrwt beam="1">  1       21 0.23135385E-01 0.23974700E+03</pdfrwt>
<pdfrwt beam="2">  1       21 0.66888623E-01 0.23974700E+03</pdfrwt>
<totfact> 0.35103905E+04</totfact>
</mgrwt>
</event>
<event>
12    1  0.1013215E-001  0.2166395E+03  0.7546771E-02  0.1136578E+00
         21   -1    0    0  501  502  0.00000000000E+00  0.00000000000E+00  0.14488465530E+04  0.14488465530E+04  0.00000000000E+00 0.  1.
         21   -1    0    0  502  503 -0.00000000000E+00 -0.00000000000E+00 -0.32781147453E+02  0.32781147453E+02  0.00000000000E+00 0. -1.
         -6    2    1    2    0  503  0.12947006604E+03 -0.13907769261E+02  0.61637679426E+03  0.65333989753E+03  0.17313793681E+03 0.  0.
        -24    2    3    3    0    0  0.58516250403E+02 -0.65894761697E+02  0.25147471981E+03  0.27795648651E+03  0.79082251543E+02 0.  0.
          6    2    1    2  501    0 -0.12947006604E+03  0.13907769261E+02  0.79968861130E+03  0.82828780293E+03  0.17205489064E+03 0.  0.
         24    2    5    5    0    0 -0.10758789266E+03  0.36689801092E+02  0.33916800069E+03  0.36666114286E+03  0.80524312125E+02 0.  0.
          5    1    5    5  501    0 -0.21882173378E+02 -0.22782031831E+02  0.46052061061E+03  0.46162666007E+03  0.47000000000E+01 0. -1.
        -13    1    6    6    0    0 -0.51705959457E+00  0.88827412268E+01  0.12767073223E+03  0.12798041377E+03  0.00000000000E+00 0.  1.
         14    1    6    6    0    0 -0.10707083307E+03  0.27807059865E+02  0.21149726846E+03  0.23868072909E+03  0.00000000000E+00 0. -1.
         -5    1    3    3    0  503  0.70953815636E+02  0.51986992437E+02  0.36490207444E+03  0.37538341102E+03  0.47000000000E+01 0.  1.
         11    1    4    4    0    0  0.55966588251E+02 -0.76842494917E+02  0.16241728991E+03  0.18819246555E+03  0.00000000000E+00 0. -1.
        -12    1    4    4    0    0  0.25496621525E+01  0.10947733220E+02  0.89057429900E+02  0.89764020967E+02  0.00000000000E+00 0.  1.
<mgrwt>
<rscale>  2 0.21642302E+03</rscale>
<asrwt>0</asrwt>
<pdfrwt beam="1">  1       21 0.22289942E+00 0.21663949E+03</pdfrwt>
<pdfrwt beam="2">  1       21 0.50432546E-02 0.21663949E+03</pdfrwt>
<totfact> 0.25138253E+04</totfact>
</mgrwt>
</event>
<event>
12    1  0.1013215E-001  0.2642180E+03  0.7546771E-02  0.1105796E+00
         21   -1    0    0  503  502  0.00000000000E+00  0.00000000000E+00  0.43729718666E+03  0.43729718666E+03  0.00000000000E+00 0.  1.
         21   -1    0    0  501  503 -0.00000000000E+00 -0.00000000000E+00 -0.92689051027E+03  0.92689051027E+03  0.00000000000E+00 0.  1.
          6    2    1    2  501    0 -0.17273669030E+03  0.78013587990E+02 -0.86785583972E+03  0.90718516875E+03  0.18408445826E+03 0.  0.
         24    2    3    3    0    0 -0.18310376884E+03  0.20941740569E+02 -0.75005614207E+03  0.77579441241E+03  0.72850582749E+02 0.  0.
         -6    2    1    2    0  502  0.17273669030E+03 -0.78013587990E+02  0.37826251611E+03  0.45700252818E+03  0.17275617378E+03 0.  0.
        -24    2    5    5    0    0  0.78634023076E+02 -0.35643016541E+02  0.86851783725E+02  0.14782154193E+03  0.82790347931E+02 0.  0.
          5    1    3    3  501    0  0.10367078533E+02  0.57071847422E+02 -0.11779969766E+03  0.13139075635E+03  0.47000000000E+01 0. -1.
        -11    1    4    4    0    0 -0.77731854676E+02  0.34506193231E+02 -0.23553187927E+03  0.25041602336E+03  0.00000000000E+00 0.  1.
         12    1    4    4    0    0 -0.10537191416E+03 -0.13564452662E+02 -0.51452426280E+03  0.52537838905E+03  0.00000000000E+00 0. -1.
         -5    1    5    5    0  502  0.94102667227E+02 -0.42370571450E+02  0.29141073239E+03  0.30918098624E+03  0.47000000000E+01 0.  1.
         11    1    6    6    0    0  0.23724773952E+02 -0.54847359041E+02  0.31627494400E+02  0.67612100211E+02  0.00000000000E+00 0. -1.
        -12    1    6    6    0    0  0.54909249124E+02  0.19204342500E+02  0.55224289325E+02  0.80209441724E+02  0.00000000000E+00 0.  1.
<mgrwt>
<rscale>  2 0.26225533E+03</rscale>
<asrwt>0</asrwt>
<pdfrwt beam="1">  1       21 0.67276490E-01 0.26421804E+03</pdfrwt>
<pdfrwt beam="2">  1       21 0.14259854E+00 0.26421804E+03</pdfrwt>
<totfact> 0.64463227E+02</totfact>
</mgrwt>
</event>
<event>
12    1  0.1013215E-001  0.2386772E+03  0.7546771E-02  0.1120986E+00
         21   -1    0    0  503  502  0.00000000000E+00  0.00000000000E+00  0.12262570992E+04  0.12262570992E+04  0.00000000000E+00 0.  1.
         21   -1    0    0  501  503 -0.00000000000E+00 -0.00000000000E+00 -0.10891039643E+03  0.10891039643E+03  0.00000000000E+00 0. -1.
          6    2    1    2  501    0 -0.12918004611E+03 -0.99669661107E+02  0.52609236650E+02  0.24440650494E+03  0.17419897307E+03 0.  0.
         24    2    3    3    0    0 -0.62720022584E+02  0.34288354441E+01  0.64907260293E+02  0.12103889937E+03  0.80572356157E+02 0.  0.
         -6    2    1    2    0  502  0.12918004611E+03  0.99669661107E+02  0.10647374661E+04  0.10907609907E+04  0.17167452165E+03 0.  0.
        -24    2    5    5    0    0  0.13646982010E+03  0.46453530963E+02  0.94688547826E+03  0.96116053407E+03  0.80346256754E+02 0.  0.
          5    1    3    3  501    0 -0.66460023525E+02 -0.10309849655E+03 -0.12298023642E+02  0.12336760557E+03  0.47000000000E+01 0. -1.
        -13    1    4    4    0    0 -0.52565230078E+02  0.32679349764E+02  0.17333922059E+02  0.64276808944E+02  0.00000000000E+00 0.  1.
         14    1    4    4    0    0 -0.10154792506E+02 -0.29250514320E+02  0.47573338234E+02  0.56762090426E+02  0.00000000000E+00 0. -1.
         -5    1    5    5    0  502 -0.72897739893E+01  0.53216130144E+02  0.11785198784E+03  0.12960045659E+03  0.47000000000E+01 0.  1.
         11    1    6    6    0    0  0.43334806888E+02 -0.67227542313E+01  0.48541057799E+03  0.48738745382E+03  0.00000000000E+00 0. -1.
        -12    1    6    6    0    0  0.93135013211E+02  0.53176285194E+02  0.46147490027E+03  0.47377308025E+03  0.00000000000E+00 0.  1.
<mgrwt>
<rscale>  2 0.23821683E+03</rscale>
<asrwt>0</asrwt>
<pdfrwt beam="1">  1       21 0.18865493E+00 0.23867720E+03</pdfrwt>
<pdfrwt beam="2">  1       21 0.16755446E-01 0.23867720E+03</pdfrwt>
<totfact> 0.49081470E+03</totfact>
</mgrwt>
</event>
<event>
12    1  0.1013215E-001  0.2056536E+03  0.7546771E-02  0.1145371E+00
         21   -1    0    0  503  502  0.00000000000E+00  0.00000000000E+00  0.12262537693E+03  0.12262537693E+03  0.00000000000E+00 0. -1.
         21   -1    0    0  501  503 -0.00000000000E+00 -0.00000000000E+00 -0.46189606575E+03  0.46189606575E+03  0.00000000000E+00 0.  1.
          6    2    1    2  501    0 -0.10590157565E+03  0.18696975888E+02 -0.31786885825E+03  0.37775720414E+03  0.17347960574E+03 0.  0.
         24    2    3    3    0    0 -0.11844902981E+03  0.56140749028E+02 -0.28908333619E+03  0.32866371136E+03  0.85256692064E+02 0.  0.
         -6    2    1    2    0  502  0.10590157565E+03 -0.18696975888E+02 -0.21401830565E+02  0.20676423854E+03  0.17529601066E+03 0.  0.
        -24    2    5    5    0    0  0.13816821003E+03 -0.60390833954E+00 -0.40828823634E+02  0.16471673150E+03  0.79836018361E+02 0.  0.
          5    1    3    3  501    0  0.12547454165E+02 -0.37443773140E+02 -0.28785522061E+02  0.49093492780E+02  0.47000000000E+01 0. -1.
        -11    1    4    4    0    0  0.25172822900E+01 -0.20965425883E+00 -0.83674892446E+02  0.83713011479E+02  0.00000000000E+00 0.  1.
         12    1    4    4    0    0 -0.12096631210E+03  0.56350403287E+02 -0.20540844374E+03  0.24495069989E+03  0.00000000000E+00 0. -1.
         -5    1    5    5    0  502 -0.32266634388E+02 -0.18093067549E+02  0.19426993069E+02  0.42047507034E+02  0.47000000000E+01 0.  1.
         11    1    6    6    0    0  0.18321147700E+01 -0.57282179597E+01  0.15870404875E+02  0.16971708118E+02  0.00000000000E+00 0. -1.
        -12    1    6    6    0    0  0.13633609526E+03  0.51243096202E+01 -0.56699228510E+02  0.14774502338E+03  0.00000000000E+00 0.  1.
<mgrwt>
<rscale>  2 0.20526601E+03</rscale>
<asrwt>0</asrwt>
<pdfrwt beam="1">  1       21 0.18865442E-01 0.20565362E+03</pdfrwt>
<pdfrwt beam="2">  1       21 0.71060935E-01 0.20565362E+03</pdfrwt>
<totfact> 0.45827362E+04</totfact>
</mgrwt>
</event>
<event>
12    1  0.1013215E-001  0.1928957E+03  0.7546771E-02  0.1156470E+00
         21   -1    0    0  501  502  0.00000000000E+00  0.00000000000E+00  0.10951780082E+04  0.10951780082E+04  0.00000000000E+00 0.  1.
         21   -1    0    0  502  503 -0.00000000000E+00 -0.00000000000E+00 -0.11297659997E+03  0.11297659997E+03  0.00000000000E+00 0. -1.
         -6    2    1    2    0  503  0.86659389190E+02  0.22366055654E+01 -0.14521418501E+02  0.19344150392E+03  0.17231915653E+03 0.  0.
        -24    2    3    3    0    0  0.67323628430E+02 -0.56533225188E+02 -0.44190901245E+02  0.12466554259E+03  0.76551846885E+02 0.  0.
          6    2    1    2  501    0 -0.86659389190E+02 -0.22366055654E+01  0.99672282675E+03  0.10147131043E+04  0.16932642581E+03 0.  0.
         24    2    5    5    0    0 -0.58884188678E+02  0.34653648483E+02  0.91228481175E+03  0.91835844178E+03  0.80314549161E+02 0.  0.
          5    1    5    5  501    0 -0.27775200512E+02 -0.36890254048E+02  0.84438015000E+02  0.96354662494E+02  0.47000000000E+01 0. -1.
        -11    1    6    6    0    0 -0.73511250685E+02  0.12629238985E+02  0.53869727797E+03  0.54383651859E+03  0.00000000000E+00 0.  1.
         12    1    6    6    0    0  0.14627062007E+02  0.22024409498E+02  0.37358753378E+03  0.37452192320E+03  0.00000000000E+00 0. -1.
         -5    1    3    3    0  503  0.19335760760E+02  0.58769830753E+02  0.29669482744E+02  0.68775961332E+02  0.47000000000E+01 0.  1.
         11    1    4    4    0    0  0.50745470835E+01 -0.49959519783E+02 -0.35436814194E+02  0.61461145818E+02  0.00000000000E+00 0. -1.
        -12    1    4    4    0    0  0.62249081347E+02 -0.65737054044E+01 -0.87540870510E+01  0.63204396772E+02  0.00000000000E+00 0.  1.
<mgrwt>
<rscale>  2 0.19222501E+03</rscale>
<asrwt>0</asrwt>
<pdfrwt beam="1">  1       21 0.16848892E+00 0.19289568E+03</pdfrwt>
<pdfrwt beam="2">  1       21 0.17381016E-01 0.19289568E+03</pdfrwt>
<totfact> 0.65482509E+03</totfact>
</mgrwt>
</event>
<event>
12    1  0.1013215E-001  0.2419593E+03  0.7546771E-02  0.1118800E+00
         21   -1    0    0  501  502  0.00000000000E+00  0.00000000000E+00  0.28473428829E+04  0.28473428829E+04  0.00000000000E+00 0.  1.
         21   -1    0    0  502  503 -0.00000000000E+00 -0.00000000000E+00 -0.22671094015E+02  0.22671094015E+02  0.00000000000E+00 0.  1.
         -6    2    1    2    0  503 -0.11996690394E+03  0.11730690787E+03  0.18612028084E+04  0.18766274453E+04  0.17176060595E+03 0.  0.
        -24    2    3    3    0    0 -0.87447301910E+02 -0.76051793062E+01  0.82342333594E+03  0.83084119682E+03  0.67573920983E+02 0.  0.
          6    2    1    2  501    0  0.11996690394E+03 -0.11730690787E+03  0.96346898054E+03  0.99338653168E+03  0.17433116812E+03 0.  0.
         24    2    5    5    0    0  0.12589628906E+03 -0.54566553724E+02  0.83563664300E+03  0.85078672043E+03  0.81988170805E+02 0.  0.
          5    1    5    5  501    0 -0.59293851265E+01 -0.62740354146E+02  0.12783233754E+03  0.14259981125E+03  0.47000000000E+01 0. -1.
        -11    1    6    6    0    0  0.16030791493E+02 -0.32366236203E+02  0.93504210041E+02  0.10023770158E+03  0.00000000000E+00 0.  1.
         12    1    6    6    0    0  0.10986549757E+03 -0.22200317521E+02  0.74213243296E+03  0.75054901886E+03  0.00000000000E+00 0. -1.
         -5    1    3    3    0  503 -0.32519602025E+02  0.12491208718E+03  0.10377794724E+04  0.10457862485E+04  0.47000000000E+01 0.  1.
         11    1    4    4    0    0 -0.34064160328E+01 -0.58303715643E+00  0.36681263647E+00  0.34753638694E+01  0.00000000000E+00 0. -1.
        -12    1    4    4    0    0 -0.84040885878E+02 -0.70221421498E+01  0.82305652330E+03  0.82736583295E+03  0.00000000000E+00 0.  1.
<mgrwt>
<rscale>  2 0.24149665E+03</rscale>
<asrwt>0</asrwt>
<pdfrwt beam="1">  1       21 0.43805247E+00 0.24195935E+03</pdfrwt>
<pdfrwt beam="2">  1       21 0.34878629E-02 0.24195935E+03</pdfrwt>
<totfact> 0.23004774E+03</totfact>
</mgrwt>
</event>
<event>
12    1  0.1013215E-001  0.1952225E+03  0.7546771E-02  0.1154787E+00
         21   -1    0    0  503  502  0.00000000000E+00  0.00000000000E+00  0.10821670847E+03  0.10821670847E+03  0.00000000000E+00 0. -1.
         21   -1    0    0  501  503 -0.00000000000E+00 -0.00000000000E+00 -0.41569938171E+03  0.41569938171E+03  0.00000000000E+00 0. -1.
          6    2    1    2  501    0 -0.32597154011E+02 -0.75187183605E+02 -0.26078447579E+03  0.32318609067E+03  0.17240945266E+03 0.  0.
         24    2    3    3    0    0 -0.88489827386E+02 -0.35203632647E+02 -0.15195748583E+03  0.19439137406E+03  0.75014555303E+02 0.  0.
         -6    2    1    2    0  502  0.32597154011E+02  0.75187183605E+02 -0.46698197451E+02  0.20072999951E+03  0.17718951445E+03 0.  0.
        -24    2    5    5    0    0  0.22593793258E+02  0.71978067542E+02  0.37705789455E+02  0.11554497349E+03  0.78978431482E+02 0.  0.
          5    1    3    3  501    0  0.55892673375E+02 -0.39983550957E+02 -0.10882698996E+03  0.12879471661E+03  0.47000000000E+01 0. -1.
        -11    1    4    4    0    0 -0.89717586193E+02 -0.47714706251E+01 -0.12338637395E+03  0.15263095846E+03  0.00000000000E+00 0.  1.
         12    1    4    4    0    0  0.12277588062E+01 -0.30432162022E+02 -0.28571111874E+02  0.41760415596E+02  0.00000000000E+00 0. -1.
         -5    1    5    5    0  502  0.10003360753E+02  0.32091160627E+01 -0.84403986906E+02  0.85185026019E+02  0.47000000000E+01 0.  1.
         11    1    6    6    0    0  0.31962940203E+02  0.15233315420E+02  0.45340117913E+02  0.57527469416E+02  0.00000000000E+00 0. -1.
        -12    1    6    6    0    0 -0.93691469446E+01  0.56744752122E+02 -0.76343284581E+01  0.58017504073E+02  0.00000000000E+00 0.  1.
<mgrwt>
<rscale>  2 0.19413136E+03</rscale>
<asrwt>0</asrwt>
<pdfrwt beam="1">  1       21 0.16648724E-01 0.19522247E+03</pdfrwt>
<pdfrwt beam="2">  1       21 0.63953751E-01 0.19522247E+03</pdfrwt>
<totfact> 0.73109298E+04</totfact>
</mgrwt>
</event>
<event>
12    1  0.1013215E-001  0.2414020E+03  0.7546771E-02  0.1119324E+00
         21   -1    0    0  503  502  0.00000000000E+00  0.00000000000E+00  0.81552937540E+03  0.81552937540E+03  0.00000000000E+00 0.  1.
         21   -1    0    0  501  503 -0.00000000000E+00 -0.00000000000E+00 -0.82600772593E+02  0.82600772593E+02  0.00000000000E+00 0.  1.
          6    2    1    2  501    0  0.16411783061E+03  0.13993470786E+02  0.53918108506E+03  0.59075473977E+03  0.17647787546E+03 0.  0.
         24    2    3    3    0    0  0.51077964706E+02 -0.25689404750E+02  0.12141155333E+03  0.15612131545E+03  0.79775910284E+02 0.  0.
         -6    2    1    2    0  502 -0.16411783061E+03 -0.13993470786E+02  0.19374751775E+03  0.30737540823E+03  0.17265880052E+03 0.  0.
        -24    2    5    5    0    0 -0.39770310585E+02  0.18812529622E+02  0.14165596522E+03  0.16854400240E+03  0.80031739868E+02 0.  0.
          5    1    3    3  501    0  0.11303986590E+03  0.39682875536E+02  0.41776953173E+03  0.43463342432E+03  0.47000000000E+01 0. -1.
        -11    1    4    4    0    0  0.39186095312E+02  0.17164246648E+02  0.95514984678E+02  0.10465788898E+03  0.00000000000E+00 0.  1.
         12    1    4    4    0    0  0.11891869395E+02 -0.42853651398E+02  0.25896568653E+02  0.51463426468E+02  0.00000000000E+00 0. -1.
         -5    1    5    5    0  502 -0.12434752003E+03 -0.32806000407E+02  0.52091552530E+02  0.13883140583E+03  0.47000000000E+01 0.  1.
         11    1    6    6    0    0  0.23743772834E+02  0.88038900756E+01  0.55828467030E+02  0.61303286697E+02  0.00000000000E+00 0. -1.
        -12    1    6    6    0    0 -0.63514083419E+02  0.10008639546E+02  0.85827498192E+02  0.10724071570E+03  0.00000000000E+00 0.  1.
<mgrwt>
<rscale>  2 0.24070454E+03</rscale>
<asrwt>0</asrwt>
<pdfrwt beam="1">  1       21 0.12546605E+00 0.24140199E+03</pdfrwt>
<pdfrwt beam="2">  1       21 0.12707812E-01 0.24140199E+03</pdfrwt>
<totfact> 0.24333805E+04</totfact>
</mgrwt>
</event>
<event>
12    1  0.1013215E-001  0.1916791E+03  0.7546771E-02  0.1157421E+00
         21   -1    0    0  503  502  0.00000000000E+00  0.00000000000E+00  0.40451577226E+03  0.40451577226E+03  0.00000000000E+00 0.  1.
         21   -1    0    0  501  503 -0.00000000000E+00 -0.00000000000E+00 -0.23552676997E+03  0.23552676997E+03  0.00000000000E+00 0.  1.
          6    2    1    2  501    0  0.49783574834E+02  0.65902908181E+02 -0.16736713327E+03  0.25290388250E+03  0.17066639638E+03 0.  0.
         24    2    3    3    0    0 -0.29861585211E+02  0.42977490479E+02 -0.44450692976E+02  0.10458170752E+03  0.78884031862E+02 0.  0.
         -6    2    1    2    0  502 -0.49783574834E+02 -0.65902908181E+02  0.33635613556E+03  0.38713865973E+03  0.17297194656E+03 0.  0.
        -24    2    5    5    0    0 -0.18701676450E+02 -0.10921840730E+03  0.22433724825E+03  0.26299101381E+03  0.80985549317E+02 0.  0.
          5    1    3    3  501    0  0.79645160044E+02  0.22925417702E+02 -0.12291644030E+03  0.14832217498E+03  0.47000000000E+01 0. -1.
        -11    1    4    4    0    0 -0.47159155491E+02  0.34419325936E+02 -0.56973332408E+02  0.81575955711E+02  0.00000000000E+00 0.  1.
         12    1    4    4    0    0  0.17297570281E+02  0.85581645431E+01  0.12522639432E+02  0.23005751809E+02  0.00000000000E+00 0. -1.
         -5    1    5    5    0  502 -0.31081898384E+02  0.43315499123E+02  0.11201888732E+03  0.12414764592E+03  0.47000000000E+01 0.  1.
         13    1    6    6    0    0 -0.73688710993E+01 -0.11832852230E+02 -0.39938752075E+01  0.14500610068E+02  0.00000000000E+00 0. -1.
        -14    1    6    6    0    0 -0.11332805351E+02 -0.97385555074E+02  0.22833112345E+03  0.24849040374E+03  0.00000000000E+00 0.  1.
<mgrwt>
<rscale>  2 0.19115753E+03</rscale>
<asrwt>0</asrwt>
<pdfrwt beam="1">  1       21 0.62233196E-01 0.19167914E+03</pdfrwt>
<pdfrwt beam="2">  1       21 0.36234888E-01 0.19167914E+03</pdfrwt>
<totfact> 0.17602897E+04</totfact>
</mgrwt>
</event>
<event>
12    1  0.1013215E-001  0.2222469E+03  0.7546771E-02  0.1132411E+00
         21   -1    0    0  501  502  0.00000000000E+00  0.00000000000E+00  0.98820374006E+03  0.98820374006E+03  0.00000000000E+00 0. -1.
         21   -1    0    0  502  503 -0.00000000000E+00 -0.00000000000E+00 -0.56484413270E+02  0.56484413270E+02  0.00000000000E+00 0. -1.
         -6    2    1    2    0  503 -0.13882719826E+03  0.18446616509E+00  0.28451591401E+03  0.36038854350E+03  0.17221373916E+03 0.  0.
        -24    2    3    3    0    0 -0.12877681755E+03 -0.12354537185E+01  0.11524488983E+03  0.19074834793E+03  0.80737553360E+02 0.  0.
          6    2    1    2  501    0  0.13882719826E+03 -0.18446616509E+00  0.64720341278E+03  0.68429960983E+03  0.17355308552E+03 0.  0.
         24    2    5    5    0    0  0.10364239903E+03  0.55017582627E+02  0.53982875220E+03  0.55845588126E+03  0.81787580525E+02 0.  0.
          5    1    5    5  501    0  0.35184799225E+02 -0.55202048792E+02  0.10737466057E+03  0.12584372857E+03  0.47000000000E+01 0. -1.
        -11    1    6    6    0    0  0.76631207146E+02  0.54557163912E+02  0.50832324338E+03  0.51695391072E+03  0.00000000000E+00 0.  1.
         12    1    6    6    0    0  0.27011191887E+02  0.46041871534E+00  0.31505508823E+02  0.41501970541E+02  0.00000000000E+00 0. -1.
         -5    1    3    3    0  503 -0.10050380708E+02  0.14199198836E+01  0.16927102418E+03  0.16964019557E+03  0.47000000000E+01 0.  1.
         11    1    4    4    0    0 -0.10324481115E+03 -0.28817928279E+02  0.10857987680E+03  0.15257638633E+03  0.00000000000E+00 0. -1.
        -12    1    4    4    0    0 -0.25532006404E+02  0.27582474561E+02  0.66650130268E+01  0.38171961602E+02  0.00000000000E+00 0.  1.
<mgrwt>
<rscale>  2 0.22198539E+03</rscale>
<asrwt>0</asrwt>
<pdfrwt beam="1">  1       21 0.15203133E+00 0.22224693E+03</pdfrwt>
<pdfrwt beam="2">  1       21 0.86899105E-02 0.22224693E+03</pdfrwt>
<totfact> 0.29428852E+04</totfact>
</mgrwt>
</event>
<event>
12    1  0.1013215E-001  0.2124966E+03  0.7546771E-02  0.1139618E+00
         21   -1    0    0  501  502  0.00000000000E+00  0.00000000000E+00  0.10960179854E+04  0.10960179854E+04  0.00000000000E+00 0.  1.
         21   -1    0    0  502  503 -0.00000000000E+00 -0.00000000000E+00 -0.41267371901E+02  0.41267371901E+02  0.00000000000E+00 0. -1.
         -6    2    1    2    0  503  0.89494516262E+02 -0.85181250639E+02  0.50204806810E+03  0.54516699505E+03  0.17288630920E+03 0.  0.
        -24    2    3    3    0    0  0.63859520331E+02 -0.11945198393E+03  0.45495185577E+03  0.48135649910E+03  0.79850318477E+02 0.  0.
          6    2    1    2  501    0 -0.89494516262E+02  0.85181250639E+02  0.55270254541E+03  0.59211836226E+03  0.17279738807E+03 0.  0.
         24    2    5    5    0    0 -0.83986258658E+02  0.83563550467E+02  0.23962785378E+03  0.27895576807E+03  0.79738658299E+02 0.  0.
          5    1    5    5  501    0 -0.55082576041E+01  0.16177001719E+01  0.31307469163E+03  0.31316259418E+03  0.47000000000E+01 0. -1.
        -13    1    6    6    0    0  0.12058718652E+02 -0.13430487638E+01  0.90458955676E+01  0.15134222878E+02  0.00000000000E+00 0.  1.
         14    1    6    6    0    0 -0.96044977309E+02  0.84906599231E+02  0.23058195821E+03  0.26382154520E+03  0.00000000000E+00 0. -1.
         -5    1    3    3    0  503  0.25634995930E+02  0.34270733295E+02  0.47096212333E+02  0.63810495948E+02  0.47000000000E+01 0.  1.
         13    1    4    4    0    0 -0.14527054073E+02 -0.14351967760E+02  0.27529009951E+02  0.34276240569E+02  0.00000000000E+00 0. -1.
        -14    1    4    4    0    0  0.78386574404E+02 -0.10510001617E+03  0.42742284582E+03  0.44708025854E+03  0.00000000000E+00 0.  1.
<mgrwt>
<rscale>  2 0.21247848E+03</rscale>
<asrwt>0</asrwt>
<pdfrwt beam="1">  1       21 0.16861813E+00 0.21249656E+03</pdfrwt>
<pdfrwt beam="2">  1       21 0.63488273E-02 0.21249656E+03</pdfrwt>
<totfact> 0.38579696E+04</totfact>
</mgrwt>
</event>
<event>
12    1  0.1013215E-001  0.1756175E+03  0.7546771E-02  0.1172216E+00
         21   -1    0    0  503  502  0.00000000000E+00  0.00000000000E+00  0.14418923494E+04  0.14418923494E+04  0.00000000000E+00 0. -1.
         21   -1    0    0  501  503 -0.00000000000E+00 -0.00000000000E+00 -0.36350990979E+02  0.36350990979E+02  0.00000000000E+00 0. -1.
          6    2    1    2  501    0  0.20948707895E+02  0.17264370865E+02  0.22731139497E+03  0.28699721248E+03  0.17308963812E+03 0.  0.
         24    2    3    3    0    0  0.79502897383E+01  0.79729319030E+02  0.14151780842E+03  0.17997638218E+03  0.77098875634E+02 0.  0.
         -6    2    1    2    0  502 -0.20948707895E+02 -0.17264370865E+02  0.11782299635E+04  0.11912461279E+04  0.17350672494E+03 0.  0.
        -24    2    5    5    0    0 -0.67336142345E+02 -0.48471166093E+02  0.65288695235E+03  0.66291571286E+03  0.79449731281E+02 0.  0.
          5    1    3    3  501    0  0.12998418157E+02 -0.62464948165E+02  0.85793586557E+02  0.10702083030E+03  0.47000000000E+01 0. -1.
        -13    1    4    4    0    0 -0.26550682028E+02  0.13995561228E+02  0.15655663369E+02  0.33851355154E+02  0.00000000000E+00 0.  1.
         14    1    4    4    0    0  0.34500971767E+02  0.65733757802E+02  0.12586214505E+03  0.14612502703E+03  0.00000000000E+00 0. -1.
         -5    1    5    5    0  502  0.46387434450E+02  0.31206795228E+02  0.52534301112E+03  0.52833041506E+03  0.47000000000E+01 0.  1.
         11    1    6    6    0    0 -0.27041839374E+02 -0.14696223233E+02  0.50541981385E+03  0.50635602918E+03  0.00000000000E+00 0. -1.
        -12    1    6    6    0    0 -0.40294302971E+02 -0.33774942860E+02  0.14746713850E+03  0.15655968368E+03  0.00000000000E+00 0.  1.
<mgrwt>
<rscale>  2 0.17551435E+03</rscale>
<asrwt>0</asrwt>
<pdfrwt beam="1">  1       21 0.22182955E+00 0.17561745E+03</pdfrwt>
<pdfrwt beam="2">  1       21 0.55924613E-02 0.17561745E+03</pdfrwt>
<totfact> 0.22104482E+04</totfact>
</mgrwt>
</event>
<event>
12    1  0.1013215E-001  0.2367042E+03  0.7546771E-02  0.1123886E+00
         21   -1    0    0  503  502  0.00000000000E+00  0.00000000000E+00  0.61322451824E+03  0.61322451824E+03  0.00000000000E+00 0. -1.
         21   -1    0    0  501  503 -0.00000000000E+00 -0.00000000000E+00 -0.46300225704E+03  0.46300225704E+03  0.00000000000E+00 0. -1.
          6    2    1    2  501    0 -0.10210917731E+03  0.10257382190E+03 -0.40996453667E+03  0.46808360326E+03  0.17344643349E+03 0.  0.
         24    2    3    3    0    0 -0.48155547446E+02  0.12395373025E+03 -0.22650710639E+03  0.27560811553E+03  0.83491796638E+02 0.  0.
         -6    2    1    2    0  502  0.10210917731E+03 -0.10257382190E+03  0.56018679787E+03  0.60814317201E+03  0.18729974942E+03 0.  0.
        -24    2    5    5    0    0 -0.62914495282E+01 -0.10429128961E+03  0.31894962784E+03  0.34362264768E+03  0.73698056067E+02 0.  0.
          5    1    3    3  501    0 -0.53953629866E+02 -0.21379908345E+02 -0.18345743028E+03  0.19247548774E+03  0.47000000000E+01 0. -1.
        -11    1    4    4    0    0 -0.70294002082E+02  0.11061022367E+03 -0.18522898334E+03  0.22690448338E+03  0.00000000000E+00 0.  1.
         12    1    4    4    0    0  0.22138454636E+02  0.13343506576E+02 -0.41278123050E+02  0.48703632144E+02  0.00000000000E+00 0. -1.
         -5    1    5    5    0  502  0.10840062684E+03  0.17174677102E+01  0.24123717003E+03  0.26452052434E+03  0.47000000000E+01 0.  1.
         13    1    6    6    0    0 -0.18449090161E+01 -0.11377337498E+03  0.26087452550E+03  0.28461079143E+03  0.00000000000E+00 0. -1.
        -14    1    6    6    0    0 -0.44465405121E+01  0.94820853661E+01  0.58075102342E+02  0.59011856244E+02  0.00000000000E+00 0.  1.
<mgrwt>
<rscale>  2 0.23395593E+03</rscale>
<asrwt>0</asrwt>
<pdfrwt beam="1">  1       21 0.94342234E-01 0.23670418E+03</pdfrwt>
<pdfrwt beam="2">  1       21 0.71231116E-01 0.23670418E+03</pdfrwt>
<totfact> 0.16158024E+03</totfact>
</mgrwt>
</event>
<event>
12    1  0.1013215E-001  0.1964144E+03  0.7546771E-02  0.1154246E+00
         21   -1    0    0  501  502  0.00000000000E+00  0.00000000000E+00  0.54057662890E+02  0.54057662890E+02  0.00000000000E+00 0.  1.
         21   -1    0    0  502  503 -0.00000000000E+00 -0.00000000000E+00 -0.13088021115E+04  0.13088021115E+04  0.00000000000E+00 0.  1.
         -6    2    1    2    0  503 -0.19547013963E+02 -0.76984099690E+02 -0.11015314913E+04  0.11189058223E+04  0.17963845785E+03 0.  0.
        -24    2    3    3    0    0 -0.61691253827E+02  0.38108649371E+01 -0.66391070796E+03  0.67187338136E+03  0.82559547864E+02 0.  0.
          6    2    1    2  501    0  0.19547013963E+02  0.76984099690E+02 -0.15321295730E+03  0.24395395206E+03  0.17242587706E+03 0.  0.
         24    2    5    5    0    0  0.81982449184E+01  0.85892272726E+01 -0.92712909219E+01  0.84116702171E+02  0.82756732076E+02 0.  0.
          5    1    5    5  501    0  0.11348769045E+02  0.68394872418E+02 -0.14394166638E+03  0.15983724989E+03  0.47000000000E+01 0. -1.
        -11    1    6    6    0    0 -0.16601387256E+02  0.39516539381E+02  0.19821967942E+01  0.42907948537E+02  0.00000000000E+00 0.  1.
         12    1    6    6    0    0  0.24799632175E+02 -0.30927312109E+02 -0.11253487716E+02  0.41208753634E+02  0.00000000000E+00 0. -1.
         -5    1    3    3    0  503  0.42144239863E+02 -0.80794964627E+02 -0.43762078336E+03  0.44703244099E+03  0.47000000000E+01 0.  1.
         13    1    4    4    0    0  0.85591151786E+01  0.36610408531E+01 -0.35308883945E+03  0.35321153749E+03  0.00000000000E+00 0. -1.
        -14    1    4    4    0    0 -0.70250369005E+02  0.14982408399E+00 -0.31082186851E+03  0.31866184387E+03  0.00000000000E+00 0.  1.
<mgrwt>
<rscale>  2 0.19474981E+03</rscale>
<asrwt>0</asrwt>
<pdfrwt beam="1">  1       21 0.83165638E-02 0.19641439E+03</pdfrwt>
<pdfrwt beam="2">  1       21 0.20135417E+00 0.19641439E+03</pdfrwt>
<totfact> 0.14716666E+04</totfact>
</mgrwt>
</event>
<event>
12    1  0.1013215E-001  0.1726304E+03  0.7546771E-02  0.1175286E+00
         21   -1    0    0  501  502  0.00000000000E+00  0.00000000000E+00  0.13241068307E+04  0.13241068307E+04  0.00000000000E+00 0. -1.
         21   -1    0    0  502  503 -0.00000000000E+00 -0.00000000000E+00 -0.36231286635E+02  0.36231286635E+02  0.00000000000E+00 0. -1.
         -6    2    1    2    0  503  0.44141432953E+01 -0.11508266754E+01  0.22342068681E+03  0.28197574716E+03  0.17196717602E+03 0.  0.
        -24    2    3    3    0    0  0.60990857529E+02 -0.14580572870E+00  0.80187866931E+02  0.12789893076E+03  0.78791728792E+02 0.  0.
          6    2    1    2  501    0 -0.44141432953E+01  0.11508266754E+01  0.10644548572E+04  0.10783623701E+04  0.17257012838E+03 0.  0.
         24    2    5    5    0    0  0.66760243629E+02  0.50237326568E+01  0.69420062170E+03  0.70128004269E+03  0.73464461382E+02 0.  0.
          5    1    5    5  501    0 -0.71174386924E+02 -0.38729059814E+01  0.37025423551E+03  0.37708232744E+03  0.47000000000E+01 0. -1.
        -13    1    6    6    0    0  0.56750111804E+02  0.35266334611E+02  0.42878834487E+03  0.43396282588E+03  0.00000000000E+00 0.  1.
         14    1    6    6    0    0  0.10010131825E+02 -0.30242601955E+02  0.26541227684E+03  0.26731721682E+03  0.00000000000E+00 0. -1.
         -5    1    3    3    0  503 -0.56576714233E+02 -0.10050209467E+01  0.14323281987E+03  0.15407681639E+03  0.47000000000E+01 0.  1.
         11    1    4    4    0    0  0.25313794591E+02 -0.58879461273E+01 -0.12188813413E+02  0.28705805661E+02  0.00000000000E+00 0. -1.
        -12    1    4    4    0    0  0.35677062937E+02  0.57421403986E+01  0.92376680344E+02  0.99193125102E+02  0.00000000000E+00 0.  1.
<mgrwt>
<rscale>  2 0.17247953E+03</rscale>
<asrwt>0</asrwt>
<pdfrwt beam="1">  1       21 0.20370871E+00 0.17263041E+03</pdfrwt>
<pdfrwt beam="2">  1       21 0.55740451E-02 0.17263041E+03</pdfrwt>
<totfact> 0.28858193E+04</totfact>
</mgrwt>
</event>
<event>
12    1  0.1013215E-001  0.2062564E+03  0.7546771E-02  0.1144663E+00
         21   -1    0    0  503  502  0.00000000000E+00  0.00000000000E+00  0.97885878568E+03  0.97885878568E+03  0.00000000000E+00 0. -1.
         21   -1    0    0  501  503 -0.00000000000E+00 -0.00000000000E+00 -0.49703238467E+02  0.49703238467E+02  0.00000000000E+00 0. -1.
          6    2    1    2  501    0  0.10379805242E+03 -0.39298505203E+02  0.64879279267E+03  0.68078907903E+03  0.17384842280E+03 0.  0.
         24    2    3    3    0    0  0.77539824029E+02  0.50591271233E+01  0.20005127049E+03  0.22907220108E+03  0.80097087351E+02 0.  0.
         -6    2    1    2    0  502 -0.10379805242E+03  0.39298505203E+02  0.28036275454E+03  0.34777294511E+03  0.17327532722E+03 0.  0.
        -24    2    5    5    0    0 -0.22564563850E+02  0.39195786271E+02  0.58960170025E+02  0.11189143959E+03  0.83653591687E+02 0.  0.
          5    1    3    3  501    0  0.26258228388E+02 -0.44357632326E+02  0.44874152218E+03  0.45171687796E+03  0.47000000000E+01 0. -1.
        -11    1    4    4    0    0  0.32948505488E+02 -0.29561845928E+02  0.41142441444E+02  0.60433494327E+02  0.00000000000E+00 0.  1.
         12    1    4    4    0    0  0.44591318542E+02  0.34620973051E+02  0.15890882905E+03  0.16863870675E+03  0.00000000000E+00 0. -1.
         -5    1    5    5    0  502 -0.81233488567E+02  0.10271893185E+00  0.22140258451E+03  0.23588150552E+03  0.47000000000E+01 0.  1.
         13    1    6    6    0    0 -0.14568517530E+02 -0.17695006332E+02  0.48297580006E+02  0.53460370243E+02  0.00000000000E+00 0. -1.
        -14    1    6    6    0    0 -0.79960463209E+01  0.56890792603E+02  0.10662590020E+02  0.58431069352E+02  0.00000000000E+00 0.  1.
<mgrwt>
<rscale>  2 0.20613554E+03</rscale>
<asrwt>0</asrwt>
<pdfrwt beam="1">  1       21 0.15059364E+00 0.20625635E+03</pdfrwt>
<pdfrwt beam="2">  1       21 0.76466528E-02 0.20625635E+03</pdfrwt>
<totfact> 0.38086851E+04</totfact>
</mgrwt>
</event>
<event>
12    1  0.1013215E-001  0.1925924E+03  0.7546771E-02  0.1156552E+00
         21   -1    0    0  501  502  0.00000000000E+00  0.00000000000E+00  0.40185711545E+03  0.40185711545E+03  0.00000000000E+00 0.  1.
         21   -1    0    0  502  503 -0.00000000000E+00 -0.00000000000E+00 -0.15056522958E+03  0.15056522958E+03  0.00000000000E+00 0.  1.
         -6    2    1    2    0  503  0.75907170204E+02  0.37177203608E+02 -0.47097509119E+02  0.19826753033E+03  0.17305431304E+03 0.  0.
        -24    2    3    3    0    0  0.12010172050E+03  0.26356713759E+02 -0.31769760609E+02  0.15002573154E+03  0.79870537779E+02 0.  0.
          6    2    1    2  501    0 -0.75907170204E+02 -0.37177203608E+02  0.29838939499E+03  0.35415481470E+03  0.17101274448E+03 0.  0.
         24    2    5    5    0    0 -0.71319874095E+01  0.32517113732E+01  0.55888138520E+02  0.98824690498E+02  0.81125806952E+02 0.  0.
          5    1    5    5  501    0 -0.68775182794E+02 -0.40428914981E+02  0.24250125647E+03  0.25533012420E+03  0.47000000000E+01 0. -1.
        -11    1    6    6    0    0 -0.29479262570E+02  0.10722720356E+02  0.66083335308E+02  0.73150603954E+02  0.00000000000E+00 0.  1.
         12    1    6    6    0    0  0.22347275160E+02 -0.74710089829E+01 -0.10195196788E+02  0.25674086544E+02  0.00000000000E+00 0. -1.
         -5    1    3    3    0  503 -0.44194550301E+02  0.10820489849E+02 -0.15327748510E+02  0.48241798798E+02  0.47000000000E+01 0.  1.
         13    1    4    4    0    0 -0.15740004177E+01  0.24851796932E+02 -0.41412209242E+01  0.25243593223E+02  0.00000000000E+00 0. -1.
        -14    1    4    4    0    0  0.12167572092E+03  0.15049168275E+01 -0.27628539685E+02  0.12478213831E+03  0.00000000000E+00 0.  1.
<mgrwt>
<rscale>  2 0.19213268E+03</rscale>
<asrwt>0</asrwt>
<pdfrwt beam="1">  1       21 0.61824171E-01 0.19259241E+03</pdfrwt>
<pdfrwt beam="2">  1       21 0.23163882E-01 0.19259241E+03</pdfrwt>
<totfact> 0.42546467E+04</totfact>
</mgrwt>
</event>
<event>
12    1  0.1013215E-001  0.1788942E+03  0.7546771E-02  0.1169111E+00
         21   -1    0    0  503  502  0.00000000000E+00  0.00000000000E+00  0.44272513200E+03  0.44272513200E+03  0.00000000000E+00 0.  1.
         21   -1    0    0  501  503 -0.00000000000E+00 -0.00000000000E+00 -0.11993912015E+03  0.11993912015E+03  0.00000000000E+00 0.  1.
          6    2    1    2  501    0  0.14982936974E+02  0.42835568424E+02 -0.16908217074E+02  0.17874328196E+03  0.17205783539E+03 0.  0.
         24    2    3    3    0    0  0.62666071727E+02  0.59291732397E+02  0.14586136854E+02  0.11909036081E+03  0.80791166424E+02 0.  0.
         -6    2    1    2    0  502 -0.14982936974E+02 -0.42835568424E+02  0.33969422892E+03  0.38392097019E+03  0.17304267644E+03 0.  0.
        -24    2    5    5    0    0 -0.69504971777E+02  0.41090372330E+01  0.18359292316E+03  0.21197285028E+03  0.79864275718E+02 0.  0.
          5    1    3    3  501    0 -0.47683134753E+02 -0.16456163972E+02 -0.31494353928E+02  0.59652921152E+02  0.47000000000E+01 0. -1.
        -13    1    4    4    0    0  0.18779228446E+02 -0.19977497286E+02  0.71522478222E+00  0.27427565793E+02  0.00000000000E+00 0.  1.
         14    1    4    4    0    0  0.43886843281E+02  0.79269229683E+02  0.13870912072E+02  0.91662795012E+02  0.00000000000E+00 0. -1.
         -5    1    5    5    0  502  0.54522034803E+02 -0.46944605657E+02  0.15610130576E+03  0.17194811991E+03  0.47000000000E+01 0.  1.
         13    1    6    6    0    0 -0.49011512381E+02 -0.60554016513E+01  0.32411007258E+02  0.59070040008E+02  0.00000000000E+00 0. -1.
        -14    1    6    6    0    0 -0.20493459396E+02  0.10164438884E+02  0.15118191590E+03  0.15290281028E+03  0.00000000000E+00 0.  1.
<mgrwt>
<rscale>  2 0.17865563E+03</rscale>
<asrwt>0</asrwt>
<pdfrwt beam="1">  1       21 0.68111558E-01 0.17889422E+03</pdfrwt>
<pdfrwt beam="2">  1       21 0.18452173E-01 0.17889422E+03</pdfrwt>
<totfact> 0.53110181E+04</totfact>
</mgrwt>
</event>
<event>
12    1  0.1013215E-001  0.2484259E+03  0.7546771E-02  0.1115390E+00
         21   -1    0    0  503  502  0.00000000000E+00  0.00000000000E+00  0.28024972321E+03  0.28024972321E+03  0.00000000000E+00 0.  1.
         21   -1    0    0  501  503 -0.00000000000E+00 -0.00000000000E+00 -0.27870889767E+03  0.27870889767E+03  0.00000000000E+00 0. -1.
          6    2    1    2  501    0 -0.74160634279E+02  0.16069761980E+03 -0.13356389317E+03  0.28205453351E+03  0.17433278989E+03 0.  0.
         24    2    3    3    0    0  0.32383710578E+02  0.44579664340E+02 -0.38068033036E+02  0.97727036095E+02  0.71171253054E+02 0.  0.
         -6    2    1    2    0  502  0.74160634279E+02 -0.16069761980E+03  0.13510471871E+03  0.27690408736E+03  0.16461793308E+03 0.  0.
        -24    2    5    5    0    0 -0.37032329388E+01 -0.32877272993E+02  0.69852785199E+02  0.11356172389E+03  0.83199906969E+02 0.  0.
          5    1    3    3  501    0 -0.10654434486E+03  0.11611795546E+03 -0.95495860137E+02  0.18432749742E+03  0.47000000000E+01 0. -1.
        -11    1    4    4    0    0  0.42025654475E+02 -0.19193865676E+01 -0.22765613082E+02  0.47834222246E+02  0.00000000000E+00 0.  1.
         12    1    4    4    0    0 -0.96419438973E+01  0.46499050907E+02 -0.15302419954E+02  0.49892813850E+02  0.00000000000E+00 0. -1.
         -5    1    5    5    0  502  0.77863867218E+02 -0.12782034681E+03  0.65251933513E+02  0.16334236347E+03  0.47000000000E+01 0.  1.
         11    1    6    6    0    0 -0.13294908397E+02 -0.56514751354E+02  0.27784461036E+02  0.64363405635E+02  0.00000000000E+00 0. -1.
        -12    1    6    6    0    0  0.95916754586E+01  0.23637478361E+02  0.42068324163E+02  0.49198318257E+02  0.00000000000E+00 0.  1.
<mgrwt>
<rscale>  2 0.24672906E+03</rscale>
<asrwt>0</asrwt>
<pdfrwt beam="1">  1       21 0.43115342E-01 0.24842594E+03</pdfrwt>
<pdfrwt beam="2">  1       21 0.42878292E-01 0.24842594E+03</pdfrwt>
<totfact> 0.26289510E+04</totfact>
</mgrwt>
</event>
<event>
12    1  0.1013215E-001  0.2242098E+03  0.7546771E-02  0.1131172E+00
         21   -1    0    0  503  502  0.00000000000E+00  0.00000000000E+00  0.41359094261E+03  0.41359094261E+03  0.00000000000E+00 0. -1.
         21   -1    0    0  501  503 -0.00000000000E+00 -0.00000000000E+00 -0.13381670163E+03  0.13381670163E+03  0.00000000000E+00 0. -1.
          6    2    1    2  501    0 -0.93845945607E+02  0.10569255380E+03  0.52601661786E+02  0.22822521734E+03  0.17129459294E+03 0.  0.
         24    2    3    3    0    0 -0.22825656867E+02 -0.11430563865E+02  0.17908914894E+02  0.86848476710E+02  0.81057142020E+02 0.  0.
         -6    2    1    2    0  502  0.93845945607E+02 -0.10569255380E+03  0.22717257919E+03  0.31918242690E+03  0.17404615329E+03 0.  0.
        -24    2    5    5    0    0  0.42855862468E+02 -0.32537377110E+02  0.20494220715E+03  0.22716097345E+03  0.81887079133E+02 0.  0.
          5    1    3    3  501    0 -0.71020288741E+02  0.11712311767E+03  0.34692746891E+02  0.14137674063E+03  0.47000000000E+01 0. -1.
        -11    1    4    4    0    0  0.49761956071E+01 -0.34306481511E+02  0.32952491693E+02  0.47828484245E+02  0.00000000000E+00 0.  1.
         12    1    4    4    0    0 -0.27801852474E+02  0.22875917646E+02 -0.15043576798E+02  0.39019992465E+02  0.00000000000E+00 0. -1.
         -5    1    5    5    0  502  0.50990083140E+02 -0.73155176690E+02  0.22230372037E+02  0.92021453455E+02  0.47000000000E+01 0.  1.
         13    1    6    6    0    0  0.41868352724E+02 -0.57935767122E+02  0.16498915338E+03  0.17980804433E+03  0.00000000000E+00 0. -1.
        -14    1    6    6    0    0  0.98750974376E+00  0.25398390012E+02  0.39953053773E+02  0.47352929122E+02  0.00000000000E+00 0.  1.
<mgrwt>
<rscale>  2 0.22367562E+03</rscale>
<asrwt>0</asrwt>
<pdfrwt beam="1">  1       21 0.63629375E-01 0.22420981E+03</pdfrwt>
<pdfrwt beam="2">  1       21 0.20587185E-01 0.22420981E+03</pdfrwt>
<totfact> 0.49173173E+04</totfact>
</mgrwt>
</event>
<event>
12    1  0.1013215E-001  0.2386021E+03  0.7546771E-02  0.1120888E+00
         21   -1    0    0  503  502  0.00000000000E+00  0.00000000000E+00  0.33280288010E+03  0.33280288010E+03  0.00000000000E+00 0. -1.
         21   -1    0    0  501  503 -0.00000000000E+00 -0.00000000000E+00 -0.93491439401E+03  0.93491439401E+03  0.00000000000E+00 0.  1.
          6    2    1    2  501    0  0.15327646597E+03  0.53723116648E+02 -0.87436214428E+03  0.90633334614E+03  0.17478880597E+03 0.  0.
         24    2    3    3    0    0  0.17413005053E+03  0.77439182189E+02 -0.77087808409E+03  0.79803577245E+03  0.79309344634E+02 0.  0.
         -6    2    1    2    0  502 -0.15327646597E+03 -0.53723116648E+02  0.27225063038E+03  0.36138392796E+03  0.17348800929E+03 0.  0.
        -24    2    5    5    0    0 -0.38931008579E+02 -0.79956235691E+02  0.12326984628E+03  0.17169886215E+03  0.79852496570E+02 0.  0.
          5    1    3    3  501    0 -0.20853584558E+02 -0.23716065541E+02 -0.10348406020E+03  0.10829757370E+03  0.47000000000E+01 0. -1.
        -11    1    4    4    0    0  0.13867471633E+03  0.22800884745E+02 -0.55729271059E+03  0.57473969984E+03  0.00000000000E+00 0.  1.
         12    1    4    4    0    0  0.35455334197E+02  0.54638297445E+02 -0.21358537350E+03  0.22329607261E+03  0.00000000000E+00 0. -1.
         -5    1    5    5    0  502 -0.11434545739E+03  0.26233119043E+02  0.14898078410E+03  0.18968506581E+03  0.47000000000E+01 0.  1.
         13    1    6    6    0    0 -0.60637291783E+02 -0.61428435641E+02  0.11106065423E+03  0.14065846145E+03  0.00000000000E+00 0. -1.
        -14    1    6    6    0    0  0.21706283204E+02 -0.18527800051E+02  0.12209192048E+02  0.31040400702E+02  0.00000000000E+00 0.  1.
<mgrwt>
<rscale>  2 0.23836396E+03</rscale>
<asrwt>0</asrwt>
<pdfrwt beam="1">  1       21 0.51200442E-01 0.23860213E+03</pdfrwt>
<pdfrwt beam="2">  1       21 0.14383299E+00 0.23860213E+03</pdfrwt>
<totfact> 0.11588501E+03</totfact>
</mgrwt>
</event>
<event>
12    1  0.1013215E-001  0.2399800E+03  0.7546771E-02  0.1119972E+00
         21   -1    0    0  501  502  0.00000000000E+00  0.00000000000E+00  0.86445908646E+03  0.86445908646E+03  0.00000000000E+00 0.  1.
         21   -1    0    0  502  503 -0.00000000000E+00 -0.00000000000E+00 -0.76730062824E+02  0.76730062824E+02  0.00000000000E+00 0.  1.
         -6    2    1    2    0  503  0.82013939461E+02  0.14067459227E+03  0.22144006913E+03  0.32653655594E+03  0.17628043277E+03 0.  0.
        -24    2    3    3    0    0  0.51051336600E+02  0.65144336949E+02  0.31700061837E+02  0.11992856333E+03  0.80795685391E+02 0.  0.
          6    2    1    2  501    0 -0.82013939461E+02 -0.14067459227E+03  0.56628895451E+03  0.61465259334E+03  0.17492570801E+03 0.  0.
         24    2    5    5    0    0 -0.48697049268E+02 -0.82802791981E+02  0.51622544161E+03  0.53106069322E+03  0.79429518173E+02 0.  0.
          5    1    5    5  501    0 -0.33316890193E+02 -0.57871800288E+02  0.50063512900E+02  0.83591900113E+02  0.47000000000E+01 0. -1.
        -13    1    6    6    0    0 -0.54153201255E+02 -0.35606409080E+02  0.17638046853E+03  0.18791076406E+03  0.00000000000E+00 0.  1.
         14    1    6    6    0    0  0.54561519870E+01 -0.47196382900E+02  0.33984497308E+03  0.34314992916E+03  0.00000000000E+00 0. -1.
         -5    1    3    3    0  503  0.30962602861E+02  0.75530255319E+02  0.18974000729E+03  0.20660799261E+03  0.47000000000E+01 0.  1.
         11    1    4    4    0    0  0.29809026705E+02 -0.10507659651E+02 -0.69468309045E+01  0.32361202760E+02  0.00000000000E+00 0. -1.
        -12    1    4    4    0    0  0.21242309894E+02  0.75651996601E+02  0.38646892742E+02  0.87567360574E+02  0.00000000000E+00 0.  1.
<mgrwt>
<rscale>  2 0.23973131E+03</rscale>
<asrwt>0</asrwt>
<pdfrwt beam="1">  1       21 0.13299370E+00 0.23998004E+03</pdfrwt>
<pdfrwt beam="2">  1       21 0.11804626E-01 0.23998004E+03</pdfrwt>
<totfact> 0.23984773E+04</totfact>
</mgrwt>
</event>
<event>
12    1  0.1013215E-001  0.3265823E+03  0.7546771E-02  0.1072777E+00
         21   -1    0    0  501  502  0.00000000000E+00  0.00000000000E+00  0.40726360263E+03  0.40726360263E+03  0.00000000000E+00 0.  1.
         21   -1    0    0  502  503 -0.00000000000E+00 -0.00000000000E+00 -0.10931393905E+04  0.10931393905E+04  0.00000000000E+00 0. -1.
         -6    2    1    2    0  503 -0.27146968638E+03 -0.48163137120E+02 -0.99733175296E+03  0.10491150529E+04  0.17307885606E+03 0.  0.
        -24    2    3    3    0    0 -0.26700298032E+03 -0.60526090534E+02 -0.99471268962E+03  0.10349114065E+04  0.81451121521E+02 0.  0.
          6    2    1    2  501    0  0.27146968638E+03  0.48163137120E+02  0.31145596512E+03  0.45128794017E+03  0.17504430393E+03 0.  0.
         24    2    5    5    0    0  0.28032688332E+03  0.23555205729E+02  0.30641601391E+03  0.42424184372E+03  0.83380808078E+02 0.  0.
          5    1    5    5  501    0 -0.88571969417E+01  0.24607931391E+02  0.50399512107E+01  0.27046096451E+02  0.47000000000E+01 0. -1.
        -13    1    6    6    0    0  0.69314415841E+02  0.21726344569E+02  0.35530589098E+02  0.80863743751E+02  0.00000000000E+00 0.  1.
         14    1    6    6    0    0  0.21101246748E+03  0.18288611595E+01  0.27088542481E+03  0.34337809997E+03  0.00000000000E+00 0. -1.
         -5    1    3    3    0  503 -0.44667060523E+01  0.12362953414E+02 -0.26190633391E+01  0.14203646463E+02  0.47000000000E+01 0.  1.
         11    1    4    4    0    0 -0.17500193508E+03 -0.90324143011E+01 -0.52358721325E+03  0.55213298368E+03  0.00000000000E+00 0. -1.
        -12    1    4    4    0    0 -0.92001045244E+02 -0.51493676233E+02 -0.47112547637E+03  0.48277842278E+03  0.00000000000E+00 0.  1.
<mgrwt>
<rscale>  2 0.32631966E+03</rscale>
<asrwt>0</asrwt>
<pdfrwt beam="1">  1       21 0.62655939E-01 0.32658228E+03</pdfrwt>
<pdfrwt beam="2">  1       21 0.16817529E+00 0.32658228E+03</pdfrwt>
<totfact> 0.46041622E+02</totfact>
</mgrwt>
</event>
<event>
12    1  0.1013215E-001  0.1886883E+03  0.7546771E-02  0.1159662E+00
         21   -1    0    0  503  502  0.00000000000E+00  0.00000000000E+00  0.16444404514E+03  0.16444404514E+03  0.00000000000E+00 0. -1.
         21   -1    0    0  501  503 -0.00000000000E+00 -0.00000000000E+00 -0.24015586265E+03  0.24015586265E+03  0.00000000000E+00 0. -1.
          6    2    1    2  501    0  0.64414627301E+02  0.38643937143E+02 -0.10142921482E+03  0.21422221976E+03  0.17309152416E+03 0.  0.
         24    2    3    3    0    0 -0.21293640084E+02  0.51427922467E+02 -0.33749350000E+02  0.10416772653E+03  0.81324327900E+02 0.  0.
         -6    2    1    2    0  502 -0.64414627301E+02 -0.38643937143E+02  0.25717397300E+02  0.19037768803E+03  0.17303086859E+03 0.  0.
        -24    2    5    5    0    0 -0.24952295571E+02  0.48197343460E+02  0.20746160129E+02  0.94745649247E+02  0.74838051286E+02 0.  0.
          5    1    3    3  501    0  0.85708267385E+02 -0.12783985324E+02 -0.67679864816E+02  0.11005449323E+03  0.47000000000E+01 0. -1.
        -11    1    4    4    0    0 -0.20913196515E+02 -0.13397110904E+02  0.91100291205E+01  0.26454432514E+02  0.00000000000E+00 0.  1.
         12    1    4    4    0    0 -0.38044356919E+00  0.64825033371E+02 -0.42859379120E+02  0.77713294020E+02  0.00000000000E+00 0. -1.
         -5    1    5    5    0  502 -0.39462331730E+02 -0.86841280603E+02  0.49712371715E+01  0.95632038780E+02  0.47000000000E+01 0.  1.
         13    1    6    6    0    0 -0.35009184224E+02 -0.55401171661E+01  0.18610394342E+02  0.40033519153E+02  0.00000000000E+00 0. -1.
        -14    1    6    6    0    0  0.10056888653E+02  0.53737460626E+02  0.21357657867E+01  0.54712130093E+02  0.00000000000E+00 0.  1.
<mgrwt>
<rscale>  2 0.18867439E+03</rscale>
<asrwt>0</asrwt>
<pdfrwt beam="1">  1       21 0.25299084E-01 0.18868830E+03</pdfrwt>
<pdfrwt beam="2">  1       21 0.36947056E-01 0.18868830E+03</pdfrwt>
<totfact> 0.10476350E+05</totfact>
</mgrwt>
</event>
<event>
12    1  0.1013215E-001  0.1782808E+03  0.7546771E-02  0.1169661E+00
         21   -1    0    0  501  502  0.00000000000E+00  0.00000000000E+00  0.10445594325E+04  0.10445594325E+04  0.00000000000E+00 0. -1.
         21   -1    0    0  502  503 -0.00000000000E+00 -0.00000000000E+00 -0.30799901789E+02  0.30799901789E+02  0.00000000000E+00 0.  1.
         -6    2    1    2    0  503  0.33776441863E+02  0.29746773293E+02  0.57428140820E+03  0.60109668673E+03  0.17173343427E+03 0.  0.
        -24    2    3    3    0    0 -0.39479215820E+02  0.19873644145E+01  0.39698968248E+03  0.40721161207E+03  0.81596145234E+02 0.  0.
          6    2    1    2  501    0 -0.33776441863E+02 -0.29746773293E+02  0.43947812254E+03  0.47426264759E+03  0.17250600036E+03 0.  0.
         24    2    5    5    0    0  0.32402174991E+02 -0.55351379472E+02  0.20435212024E+03  0.22861751301E+03  0.79953124099E+02 0.  0.
          5    1    5    5  501    0 -0.66178616854E+02  0.25604606179E+02  0.23512600230E+03  0.24564513458E+03  0.47000000000E+01 0. -1.
        -11    1    6    6    0    0 -0.14337333237E+02 -0.18549469751E+02  0.10220254152E+02  0.25575291735E+02  0.00000000000E+00 0.  1.
         12    1    6    6    0    0  0.46739508227E+02 -0.36801909721E+02  0.19413186609E+03  0.20304222127E+03  0.00000000000E+00 0. -1.
         -5    1    3    3    0  503  0.73255657683E+02  0.27759408879E+02  0.17729172573E+03  0.19388507466E+03  0.47000000000E+01 0.  1.
         11    1    4    4    0    0  0.97879567958E+00 -0.26777535064E+02  0.26230127667E+03  0.26366636905E+03  0.00000000000E+00 0. -1.
        -12    1    4    4    0    0 -0.40458011499E+02  0.28764899479E+02  0.13468840580E+03  0.14354524302E+03  0.00000000000E+00 0.  1.
<mgrwt>
<rscale>  2 0.17809363E+03</rscale>
<asrwt>0</asrwt>
<pdfrwt beam="1">  1       21 0.16070142E+00 0.17828079E+03</pdfrwt>
<pdfrwt beam="2">  1       21 0.47384472E-02 0.17828079E+03</pdfrwt>
<totfact> 0.73845673E+04</totfact>
</mgrwt>
</event>
<event>
12    1  0.1013215E-001  0.1890979E+03  0.7546771E-02  0.1160209E+00
         21   -1    0    0  503  502  0.00000000000E+00  0.00000000000E+00  0.16732013900E+03  0.16732013900E+03  0.00000000000E+00 0. -1.
         21   -1    0    0  501  503 -0.00000000000E+00 -0.00000000000E+00 -0.60566349611E+03  0.60566349611E+03  0.00000000000E+00 0. -1.
          6    2    1    2  501    0 -0.47127390720E+02  0.60817600386E+02 -0.53270634257E+03  0.56527343936E+03  0.17273749553E+03 0.  0.
         24    2    3    3    0    0 -0.26419654579E+02  0.95172930234E+02 -0.48754584181E+03  0.50468746859E+03  0.85162246877E+02 0.  0.
         -6    2    1    2    0  502  0.47127390720E+02 -0.60817600386E+02  0.94362985448E+02  0.20771019575E+03  0.16828363237E+03 0.  0.
        -24    2    5    5    0    0 -0.34875599660E+01 -0.31557831923E+02  0.11609465639E+03  0.14516131242E+03  0.81152803715E+02 0.  0.
          5    1    3    3  501    0 -0.20707736141E+02 -0.34355329849E+02 -0.45160500757E+02  0.60585970767E+02  0.47000000000E+01 0. -1.
        -11    1    4    4    0    0  0.72635132342E+01 -0.13691923179E+02 -0.41044093526E+02  0.43873055492E+02  0.00000000000E+00 0.  1.
         12    1    4    4    0    0 -0.33683167813E+02  0.10886485341E+03 -0.44650174828E+03  0.46081441310E+03  0.00000000000E+00 0. -1.
         -5    1    5    5    0  502  0.50614950686E+02 -0.29259768463E+02 -0.21731670945E+02  0.62548883327E+02  0.47000000000E+01 0.  1.
         11    1    6    6    0    0  0.67543275144E+01  0.25753650437E+02  0.22123166550E+02  0.34616555999E+02  0.00000000000E+00 0. -1.
        -12    1    6    6    0    0 -0.10241887480E+02 -0.57311482360E+02  0.93971489843E+02  0.11054475642E+03  0.00000000000E+00 0.  1.
<mgrwt>
<rscale>  2 0.18807471E+03</rscale>
<asrwt>0</asrwt>
<pdfrwt beam="1">  1       21 0.25741560E-01 0.18909789E+03</pdfrwt>
<pdfrwt beam="2">  1       21 0.93178998E-01 0.18909789E+03</pdfrwt>
<totfact> 0.13914785E+04</totfact>
</mgrwt>
</event>
<event>
12    1  0.1013215E-001  0.1880764E+03  0.7546771E-02  0.1160383E+00
         21   -1    0    0  501  502  0.00000000000E+00  0.00000000000E+00  0.18116196113E+03  0.18116196113E+03  0.00000000000E+00 0. -1.
         21   -1    0    0  502  503 -0.00000000000E+00 -0.00000000000E+00 -0.19542063451E+03  0.19542063451E+03  0.00000000000E+00 0. -1.
         -6    2    1    2    0  503  0.40248664560E+02 -0.56955126449E+02 -0.20336131307E+02  0.18917263038E+03  0.17466792613E+03 0.  0.
        -24    2    3    3    0    0 -0.28699773887E+02 -0.23564661717E+01 -0.58492105297E+02  0.93188937911E+02  0.66585447456E+02 0.  0.
          6    2    1    2  501    0 -0.40248664560E+02  0.56955126449E+02  0.60774579273E+01  0.18740996526E+03  0.17384394772E+03 0.  0.
         24    2    5    5    0    0 -0.61598362336E+02  0.63671678985E+02 -0.47834304799E+02  0.12884811904E+03  0.80406940724E+02 0.  0.
          5    1    5    5  501    0  0.21349697776E+02 -0.67165525369E+01  0.53911762726E+02  0.58561846225E+02  0.47000000000E+01 0. -1.
        -11    1    6    6    0    0 -0.40922107774E+02  0.36693843876E+02 -0.69449128379E+02  0.88567705828E+02  0.00000000000E+00 0.  1.
         12    1    6    6    0    0 -0.20676254562E+02  0.26977835110E+02  0.21614823580E+02  0.40280413209E+02  0.00000000000E+00 0. -1.
         -5    1    3    3    0  503  0.68948438446E+02 -0.54598660277E+02  0.38155973990E+02  0.95983692466E+02  0.47000000000E+01 0.  1.
         13    1    4    4    0    0 -0.44733266088E+02  0.47546635929E+01 -0.16909156828E+02  0.48058209553E+02  0.00000000000E+00 0. -1.
        -14    1    4    4    0    0  0.16033492202E+02 -0.71111297646E+01 -0.41582948469E+02  0.45130728358E+02  0.00000000000E+00 0.  1.
<mgrwt>
<rscale>  2 0.18788484E+03</rscale>
<asrwt>0</asrwt>
<pdfrwt beam="1">  1       21 0.27871071E-01 0.18807638E+03</pdfrwt>
<pdfrwt beam="2">  1       21 0.30064713E-01 0.18807638E+03</pdfrwt>
<totfact> 0.13064822E+05</totfact>
</mgrwt>
</event>
<event>
12    1  0.1013215E-001  0.1776587E+03  0.7546771E-02  0.1170245E+00
         21   -1    0    0  501  502  0.00000000000E+00  0.00000000000E+00  0.16949531266E+03  0.16949531266E+03  0.00000000000E+00 0.  1.
         21   -1    0    0  502  503 -0.00000000000E+00 -0.00000000000E+00 -0.19437477019E+03  0.19437477019E+03  0.00000000000E+00 0.  1.
         -6    2    1    2    0  503 -0.31478537435E+02 -0.22403116792E+02  0.26346788879E+02  0.17897352545E+03  0.17275581485E+03 0.  0.
        -24    2    3    3    0    0 -0.75534729786E+02  0.15561989684E+00 -0.18843998722E+02  0.11178616079E+03  0.80221754128E+02 0.  0.
          6    2    1    2  501    0  0.31478537435E+02  0.22403116792E+02 -0.51226246414E+02  0.18489655740E+03  0.17340648966E+03 0.  0.
         24    2    5    5    0    0 -0.69042751681E+01  0.58029701088E+02  0.14308991391E+02  0.10087601702E+03  0.80969799003E+02 0.  0.
          5    1    5    5  501    0  0.38382812603E+02 -0.35626584297E+02 -0.65535237805E+02  0.84020540382E+02  0.47000000000E+01 0. -1.
        -11    1    6    6    0    0  0.31778350757E+02  0.48423197342E+02 -0.16477717100E+01  0.57942944085E+02  0.00000000000E+00 0.  1.
         12    1    6    6    0    0 -0.38682625925E+02  0.96065037462E+01  0.15956763101E+02  0.42933072932E+02  0.00000000000E+00 0. -1.
         -5    1    3    3    0  503  0.44056192351E+02 -0.22558736688E+02  0.45190787601E+02  0.67187364656E+02  0.47000000000E+01 0.  1.
         11    1    4    4    0    0 -0.39350045079E+02  0.32487644345E+02  0.14333679263E+02  0.53003089005E+02  0.00000000000E+00 0. -1.
        -12    1    4    4    0    0 -0.36184684707E+02 -0.32332024449E+02 -0.33177677985E+02  0.58783071787E+02  0.00000000000E+00 0.  1.
<mgrwt>
<rscale>  2 0.17749971E+03</rscale>
<asrwt>0</asrwt>
<pdfrwt beam="1">  1       21 0.26076202E-01 0.17765869E+03</pdfrwt>
<pdfrwt beam="2">  1       21 0.29903811E-01 0.17765869E+03</pdfrwt>
<totfact> 0.15056007E+05</totfact>
</mgrwt>
</event>
<event>
12    1  0.1013215E-001  0.1907381E+03  0.7546771E-02  0.1158055E+00
         21   -1    0    0  503  502  0.00000000000E+00  0.00000000000E+00  0.12581056463E+03  0.12581056463E+03  0.00000000000E+00 0.  1.
         21   -1    0    0  501  503 -0.00000000000E+00 -0.00000000000E+00 -0.29793982079E+03  0.29793982079E+03  0.00000000000E+00 0.  1.
          6    2    1    2  501    0 -0.46270782702E+02  0.61067163641E+02 -0.12608780847E+03  0.22864633956E+03  0.17467349354E+03 0.  0.
         24    2    3    3    0    0  0.15895677051E+02  0.15671331566E+02 -0.22975509864E+01  0.82798582861E+02  0.79699833132E+02 0.  0.
         -6    2    1    2    0  502  0.46270782702E+02 -0.61067163641E+02 -0.46041447688E+02  0.19510404586E+03  0.17342315301E+03 0.  0.
        -24    2    5    5    0    0 -0.27370236871E+02 -0.66685909249E+02 -0.51546325306E+02  0.12089512629E+03  0.82234223717E+02 0.  0.
          5    1    3    3  501    0 -0.62166459752E+02  0.45395832075E+02 -0.12379025748E+03  0.14584775670E+03  0.47000000000E+01 0. -1.
        -11    1    4    4    0    0 -0.19228280462E+02 -0.21661680249E+02 -0.10656520441E+02  0.30862867473E+02  0.00000000000E+00 0.  1.
         12    1    4    4    0    0  0.35123957512E+02  0.37333011815E+02  0.83589694548E+01  0.51935715388E+02  0.00000000000E+00 0. -1.
         -5    1    5    5    0  502  0.73641019573E+02  0.56187456076E+01  0.55048776174E+01  0.74208919568E+02  0.47000000000E+01 0.  1.
         13    1    6    6    0    0  0.20691874120E+00 -0.19597564738E+02 -0.62270615023E+02  0.65281979553E+02  0.00000000000E+00 0. -1.
        -14    1    6    6    0    0 -0.27577155612E+02 -0.47088344510E+02  0.10724289717E+02  0.55613146740E+02  0.00000000000E+00 0.  1.
<mgrwt>
<rscale>  2 0.19045134E+03</rscale>
<asrwt>0</asrwt>
<pdfrwt beam="1">  1       21 0.19355472E-01 0.19073807E+03</pdfrwt>
<pdfrwt beam="2">  1       21 0.45836895E-01 0.19073807E+03</pdfrwt>
<totfact> 0.11203191E+05</totfact>
</mgrwt>
</event>
<event>
12    1  0.1013215E-001  0.2043221E+03  0.7546771E-02  0.1146199E+00
         21   -1    0    0  501  502  0.00000000000E+00  0.00000000000E+00  0.64826853097E+03  0.64826853097E+03  0.00000000000E+00 0.  1.
         21   -1    0    0  502  503 -0.00000000000E+00 -0.00000000000E+00 -0.20076386974E+03  0.20076386974E+03  0.00000000000E+00 0.  1.
         -6    2    1    2    0  503  0.10805935970E+03  0.97822057281E+01 -0.12627385409E+03  0.23995990733E+03  0.17280958924E+03 0.  0.
        -24    2    3    3    0    0  0.56373632754E+02 -0.20749032116E+02  0.44445476726E+00  0.99663112451E+02  0.79523767766E+02 0.  0.
          6    2    1    2  501    0 -0.10805935970E+03 -0.97822057281E+01  0.57377851531E+03  0.60907249338E+03  0.17313289920E+03 0.  0.
         24    2    5    5    0    0 -0.70121979706E+02  0.97468974588E+01  0.54868186715E+03  0.55934762615E+03  0.82497766546E+02 0.  0.
          5    1    5    5  501    0 -0.37937379997E+02 -0.19529103187E+02  0.25096648161E+02  0.49724867232E+02  0.47000000000E+01 0. -1.
        -11    1    6    6    0    0 -0.22665944903E+02 -0.30980221865E+02  0.11641123735E+03  0.12257689581E+03  0.00000000000E+00 0.  1.
         12    1    6    6    0    0 -0.47456034803E+02  0.40727119324E+02  0.43227062981E+03  0.43677073034E+03  0.00000000000E+00 0. -1.
         -5    1    3    3    0  503  0.51685726949E+02  0.30531237844E+02 -0.12671830885E+03  0.14029679488E+03  0.47000000000E+01 0.  1.
         13    1    4    4    0    0 -0.13009900344E+02  0.16100315517E+02 -0.35407416881E+01  0.21000345674E+02  0.00000000000E+00 0. -1.
        -14    1    4    4    0    0  0.69383533099E+02 -0.36849347633E+02  0.39851964553E+01  0.78662766777E+02  0.00000000000E+00 0.  1.
<mgrwt>
<rscale>  2 0.20425359E+03</rscale>
<asrwt>0</asrwt>
<pdfrwt beam="1">  1       21 0.99733619E-01 0.20432209E+03</pdfrwt>
<pdfrwt beam="2">  1       21 0.30886750E-01 0.20432209E+03</pdfrwt>
<totfact> 0.82469152E+03</totfact>
</mgrwt>
</event>
<event>
12    1  0.1013215E-001  0.2128728E+03  0.7546771E-02  0.1139820E+00
         21   -1    0    0  503  502  0.00000000000E+00  0.00000000000E+00  0.11144223666E+04  0.11144223666E+04  0.00000000000E+00 0. -1.
         21   -1    0    0  501  503 -0.00000000000E+00 -0.00000000000E+00 -0.96355835505E+02  0.96355835505E+02  0.00000000000E+00 0. -1.
          6    2    1    2  501    0 -0.97810325060E+02 -0.67147704432E+02  0.45438065530E+02  0.21512717870E+03  0.17360706010E+03 0.  0.
         24    2    3    3    0    0 -0.10944789819E+03 -0.98331411632E+02  0.11977097019E+02  0.16769740834E+03  0.79567964514E+02 0.  0.
         -6    2    1    2    0  502  0.97810325060E+02  0.67147704432E+02  0.97262846561E+03  0.99565102345E+03  0.17674601687E+03 0.  0.
        -24    2    5    5    0    0 -0.11665478482E+02  0.27829741034E+02  0.56689596378E+03  0.57354699972E+03  0.81697914683E+02 0.  0.
          5    1    3    3  501    0  0.11637573135E+02  0.31183707200E+02  0.33460968511E+02  0.47429770365E+02  0.47000000000E+01 0. -1.
        -11    1    4    4    0    0 -0.45064818606E+02 -0.43093752844E+02  0.44756382845E+02  0.76753131634E+02  0.00000000000E+00 0.  1.
         12    1    4    4    0    0 -0.64383079589E+02 -0.55237658788E+02 -0.32779285827E+02  0.90944276703E+02  0.00000000000E+00 0. -1.
         -5    1    5    5    0  502  0.10947580354E+03  0.39317963399E+02  0.40573250183E+03  0.42210402373E+03  0.47000000000E+01 0.  1.
         11    1    6    6    0    0 -0.15568125692E+02  0.53337001285E+02  0.47004168322E+03  0.47331425735E+03  0.00000000000E+00 0. -1.
        -12    1    6    6    0    0  0.39026472100E+01 -0.25507260252E+02  0.96854280557E+02  0.10023274237E+03  0.00000000000E+00 0.  1.
<mgrwt>
<rscale>  2 0.21222006E+03</rscale>
<asrwt>0</asrwt>
<pdfrwt beam="1">  1       21 0.17144959E+00 0.21287280E+03</pdfrwt>
<pdfrwt beam="2">  1       21 0.14823976E-01 0.21287280E+03</pdfrwt>
<totfact> 0.82213466E+03</totfact>
</mgrwt>
</event>
<event>
12    1  0.1013215E-001  0.3084048E+03  0.7546771E-02  0.1081549E+00
         21   -1    0    0  503  502  0.00000000000E+00  0.00000000000E+00  0.17628095278E+04  0.17628095278E+04  0.00000000000E+00 0.  1.
         21   -1    0    0  501  503 -0.00000000000E+00 -0.00000000000E+00 -0.63900832682E+02  0.63900832682E+02  0.00000000000E+00 0.  1.
          6    2    1    2  501    0 -0.24974956605E+03  0.27069329603E+02  0.48211841744E+03  0.57232134219E+03  0.17890208478E+03 0.  0.
         24    2    3    3    0    0 -0.20226092687E+03 -0.33652395855E+02  0.28216983221E+03  0.35797623371E+03  0.80530760599E+02 0.  0.
         -6    2    1    2    0  502  0.24974956605E+03 -0.27069329603E+02  0.12167902776E+04  0.12543890183E+04  0.17264308566E+03 0.  0.
        -24    2    5    5    0    0  0.33866885473E+02 -0.40611254366E+01  0.36902015921E+03  0.37924847358E+03  0.80560959164E+02 0.  0.
          5    1    3    3  501    0 -0.47488639176E+02  0.60721725458E+02  0.19994858523E+03  0.21434510848E+03  0.47000000000E+01 0. -1.
        -11    1    4    4    0    0 -0.11616998374E+03  0.20642368511E+02  0.13921689929E+03  0.18249086976E+03  0.00000000000E+00 0.  1.
         12    1    4    4    0    0 -0.86090943138E+02 -0.54294764366E+02  0.14295293292E+03  0.17548536394E+03  0.00000000000E+00 0. -1.
         -5    1    5    5    0  502  0.21588268058E+03 -0.23008204166E+02  0.84777011844E+03  0.87514054469E+03  0.47000000000E+01 0.  1.
         13    1    6    6    0    0  0.11213837992E+02 -0.38484552501E+02  0.25236764746E+03  0.25553129051E+03  0.00000000000E+00 0. -1.
        -14    1    6    6    0    0  0.22653047481E+02  0.34423427064E+02  0.11665251174E+03  0.12371718307E+03  0.00000000000E+00 0.  1.
<mgrwt>
<rscale>  2 0.30750387E+03</rscale>
<asrwt>0</asrwt>
<pdfrwt beam="1">  1       21 0.27120143E+00 0.30840485E+03</pdfrwt>
<pdfrwt beam="2">  1       21 0.98308987E-02 0.30840485E+03</pdfrwt>
<totfact> 0.37788575E+03</totfact>
</mgrwt>
</event>
<event>
12    1  0.1013215E-001  0.3190233E+03  0.7546771E-02  0.1076985E+00
         21   -1    0    0  503  502  0.00000000000E+00  0.00000000000E+00  0.28282206811E+03  0.28282206811E+03  0.00000000000E+00 0. -1.
         21   -1    0    0  501  503 -0.00000000000E+00 -0.00000000000E+00 -0.38242118761E+03  0.38242118761E+03  0.00000000000E+00 0.  1.
          6    2    1    2  501    0  0.19187972715E+03  0.17466792988E+03 -0.14512109773E+03  0.35047966801E+03  0.18560482016E+03 0.  0.
         24    2    3    3    0    0  0.11949308520E+03  0.17390785056E+03 -0.15896166887E+03  0.27662809347E+03  0.82047254875E+02 0.  0.
         -6    2    1    2    0  502 -0.19187972715E+03 -0.17466792988E+03  0.45521978226E+02  0.31476358771E+03  0.17227057273E+03 0.  0.
        -24    2    5    5    0    0 -0.15370136752E+03 -0.19927001643E+03  0.50574822321E+02  0.26882372442E+03  0.79848183005E+02 0.  0.
          5    1    3    3  501    0  0.72386641945E+02  0.76007932270E+00  0.13840571137E+02  0.73851574540E+02  0.47000000000E+01 0. -1.
        -13    1    4    4    0    0  0.32035934239E+02  0.11751618595E+03 -0.95108493131E+02  0.15453795815E+03  0.00000000000E+00 0.  1.
         14    1    4    4    0    0  0.87457150961E+02  0.56391664601E+02 -0.63853175738E+02  0.12209013532E+03  0.00000000000E+00 0. -1.
         -5    1    5    5    0  502 -0.38178359622E+02  0.24602086553E+02 -0.50528440945E+01  0.45939863295E+02  0.47000000000E+01 0.  1.
         13    1    6    6    0    0 -0.15070451489E+03 -0.16918268625E+03  0.64444284540E+02  0.23555826868E+03  0.00000000000E+00 0. -1.
        -14    1    6    6    0    0 -0.29968526380E+01 -0.30087330178E+02 -0.13869462219E+02  0.33265455734E+02  0.00000000000E+00 0.  1.
<mgrwt>
<rscale>  2 0.31711401E+03</rscale>
<asrwt>0</asrwt>
<pdfrwt beam="1">  1       21 0.43511088E-01 0.31902330E+03</pdfrwt>
<pdfrwt beam="2">  1       21 0.58834028E-01 0.31902330E+03</pdfrwt>
<totfact> 0.12850218E+04</totfact>
</mgrwt>
</event>
<event>
12    1  0.1013215E-001  0.2098887E+03  0.7546771E-02  0.1141748E+00
         21   -1    0    0  503  502  0.00000000000E+00  0.00000000000E+00  0.67103096402E+02  0.67103096402E+02  0.00000000000E+00 0.  1.
         21   -1    0    0  501  503 -0.00000000000E+00 -0.00000000000E+00 -0.11155896392E+04  0.11155896392E+04  0.00000000000E+00 0. -1.
          6    2    1    2  501    0  0.10930389332E+03  0.45906597659E+02 -0.90385415974E+03  0.92779710532E+03  0.17262783602E+03 0.  0.
         24    2    3    3    0    0  0.47718052171E+02  0.24350545398E+02 -0.79468843094E+03  0.80053074856E+03  0.80310743763E+02 0.  0.
         -6    2    1    2    0  502 -0.10930389332E+03 -0.45906597659E+02 -0.14463238301E+03  0.25489563023E+03  0.17320074853E+03 0.  0.
        -24    2    5    5    0    0 -0.90551018150E+02  0.34318083798E+02 -0.96768458705E+02  0.15949796206E+03  0.81842822155E+02 0.  0.
          5    1    3    3  501    0  0.61585841145E+02  0.21556052261E+02 -0.10916572880E+03  0.12726635676E+03  0.47000000000E+01 0. -1.
        -13    1    4    4    0    0  0.95522619896E+01  0.20776908881E+02 -0.51432798442E+02  0.56287284598E+02  0.00000000000E+00 0.  1.
         14    1    4    4    0    0  0.38165790181E+02  0.35736365164E+01 -0.74325563250E+03  0.74424346397E+03  0.00000000000E+00 0. -1.
         -5    1    5    5    0  502 -0.18752875166E+02 -0.80224681456E+02 -0.47863924307E+02  0.95397668168E+02  0.47000000000E+01 0.  1.
         11    1    6    6    0    0 -0.64995028312E+02  0.26206766113E+01 -0.99293670128E+02  0.11870322059E+03  0.00000000000E+00 0. -1.
        -12    1    6    6    0    0 -0.25555989838E+02  0.31697407186E+02  0.25252114236E+01  0.40794741471E+02  0.00000000000E+00 0.  1.
<mgrwt>
<rscale>  2 0.20977045E+03</rscale>
<asrwt>0</asrwt>
<pdfrwt beam="1">  1       21 0.10323553E-01 0.20988868E+03</pdfrwt>
<pdfrwt beam="2">  1       21 0.17162918E+00 0.20988868E+03</pdfrwt>
<totfact> 0.15744002E+04</totfact>
</mgrwt>
</event>
<event>
12    1  0.1013215E-001  0.3357738E+03  0.7546771E-02  0.1068644E+00
         21   -1    0    0  503  502  0.00000000000E+00  0.00000000000E+00  0.16607874015E+04  0.16607874015E+04  0.00000000000E+00 0.  1.
         21   -1    0    0  501  503 -0.00000000000E+00 -0.00000000000E+00 -0.69573641950E+02  0.69573641950E+02  0.00000000000E+00 0. -1.
          6    2    1    2  501    0 -0.13418082558E+03  0.25433128773E+03  0.65873527949E+03  0.73937556755E+03  0.17336425115E+03 0.  0.
         24    2    3    3    0    0 -0.42015723654E+01  0.10139218467E+03  0.30847878175E+03  0.33565947954E+03  0.84912302358E+02 0.  0.
         -6    2    1    2    0  502  0.13418082558E+03 -0.25433128773E+03  0.93247848008E+03  0.99098547592E+03  0.17276342147E+03 0.  0.
        -24    2    5    5    0    0  0.24134122453E+02 -0.15633136105E+03  0.40788541171E+03  0.44606874844E+03  0.87091153051E+02 0.  0.
          5    1    3    3  501    0 -0.12997925321E+03  0.15293910306E+03  0.35025649774E+03  0.40371608801E+03  0.47000000000E+01 0. -1.
        -11    1    4    4    0    0 -0.25807616355E+02  0.74648742663E+02  0.28027180949E+03  0.29118852147E+03  0.00000000000E+00 0.  1.
         12    1    4    4    0    0  0.21606043989E+02  0.26743442003E+02  0.28206972259E+02  0.44470958064E+02  0.00000000000E+00 0. -1.
         -5    1    5    5    0  502  0.11004670313E+03 -0.97999926681E+02  0.52459306837E+03  0.54491672748E+03  0.47000000000E+01 0.  1.
         13    1    6    6    0    0  0.29423877914E+02 -0.17618989846E+02  0.39025753499E+02  0.51953852897E+02  0.00000000000E+00 0. -1.
        -14    1    6    6    0    0 -0.52897554608E+01 -0.13871237120E+03  0.36885965821E+03  0.39411489554E+03  0.00000000000E+00 0.  1.
<mgrwt>
<rscale>  2 0.33569634E+03</rscale>
<asrwt>0</asrwt>
<pdfrwt beam="1">  1       21 0.25550572E+00 0.33577382E+03</pdfrwt>
<pdfrwt beam="2">  1       21 0.10703638E-01 0.33577382E+03</pdfrwt>
<totfact> 0.39564554E+03</totfact>
</mgrwt>
</event>
<event>
12    1  0.1013215E-001  0.1931088E+03  0.7546771E-02  0.1156068E+00
         21   -1    0    0  501  502  0.00000000000E+00  0.00000000000E+00  0.16032108108E+03  0.16032108108E+03  0.00000000000E+00 0.  1.
         21   -1    0    0  502  503 -0.00000000000E+00 -0.00000000000E+00 -0.23497269553E+03  0.23497269553E+03  0.00000000000E+00 0.  1.
         -6    2    1    2    0  503 -0.83155661861E+02 -0.17060167657E+01 -0.10342994331E+02  0.19338554894E+03  0.17427913936E+03 0.  0.
        -24    2    3    3    0    0 -0.31801792004E+01 -0.54555710836E+02  0.31828569541E+01  0.96461833355E+02  0.79424905359E+02 0.  0.
          6    2    1    2  501    0  0.83155661861E+02  0.17060167657E+01 -0.64308620121E+02  0.20190822767E+03  0.17237621409E+03 0.  0.
         24    2    5    5    0    0  0.19160579150E+00  0.41593939123E+02 -0.68825992243E+02  0.10962292223E+03  0.74498828075E+02 0.  0.
          5    1    5    5  501    0  0.82964056070E+02 -0.39887922357E+02  0.45173721220E+01  0.92285305442E+02  0.47000000000E+01 0. -1.
        -13    1    6    6    0    0  0.18542810250E+02  0.31519503945E+02  0.11450726762E+01  0.36587240021E+02  0.00000000000E+00 0.  1.
         14    1    6    6    0    0 -0.18351204459E+02  0.10074435178E+02 -0.69971064919E+02  0.73035682205E+02  0.00000000000E+00 0. -1.
         -5    1    3    3    0  503 -0.79975482661E+02  0.52849694070E+02 -0.13525851285E+02  0.96923715587E+02  0.47000000000E+01 0.  1.
         13    1    4    4    0    0  0.31858964986E+02 -0.13851827397E+02 -0.17512601834E+02  0.38904472690E+02  0.00000000000E+00 0. -1.
        -14    1    4    4    0    0 -0.35039144187E+02 -0.40703883439E+02  0.20695458789E+02  0.57557360666E+02  0.00000000000E+00 0.  1.
<mgrwt>
<rscale>  2 0.19267842E+03</rscale>
<asrwt>0</asrwt>
<pdfrwt beam="1">  1       21 0.24664782E-01 0.19310876E+03</pdfrwt>
<pdfrwt beam="2">  1       21 0.36149645E-01 0.19310876E+03</pdfrwt>
<totfact> 0.11468058E+05</totfact>
</mgrwt>
</event>
<event>
12    1  0.1013215E-001  0.1873477E+03  0.7546771E-02  0.1161319E+00
         21   -1    0    0  501  502  0.00000000000E+00  0.00000000000E+00  0.22515409072E+03  0.22515409072E+03  0.00000000000E+00 0. -1.
         21   -1    0    0  502  503 -0.00000000000E+00 -0.00000000000E+00 -0.18143145074E+03  0.18143145074E+03  0.00000000000E+00 0. -1.
         -6    2    1    2    0  503 -0.57053862683E+02  0.30935021419E+02  0.10057671421E+03  0.21263784672E+03  0.17574714683E+03 0.  0.
        -24    2    3    3    0    0 -0.45869912104E+02  0.87903619270E+02  0.82161976508E+02  0.15155025013E+03  0.79911155757E+02 0.  0.
          6    2    1    2  501    0  0.57053862683E+02 -0.30935021419E+02 -0.56854074226E+02  0.19394769474E+03  0.17369860029E+03 0.  0.
         24    2    5    5    0    0 -0.58143387461E+01  0.37402289452E+02 -0.47416900993E+01  0.87363505541E+02  0.78594915129E+02 0.  0.
          5    1    5    5  501    0  0.62868201429E+02 -0.68337310871E+02 -0.52112384127E+02  0.10658418920E+03  0.47000000000E+01 0. -1.
        -11    1    6    6    0    0  0.74393282309E+01  0.10451959669E+02 -0.39439267301E+02  0.41473399556E+02  0.00000000000E+00 0.  1.
         12    1    6    6    0    0 -0.13253666977E+02  0.26950329783E+02  0.34697577202E+02  0.45890105986E+02  0.00000000000E+00 0. -1.
         -5    1    3    3    0  503 -0.11183950579E+02 -0.56968597851E+02  0.18414737703E+02  0.61087596584E+02  0.47000000000E+01 0.  1.
         11    1    4    4    0    0 -0.28891618253E+02  0.39848695618E+02 -0.61335519286E+01  0.49601054495E+02  0.00000000000E+00 0. -1.
        -12    1    4    4    0    0 -0.16978293851E+02  0.48054923652E+02  0.88295528437E+02  0.10194919564E+03  0.00000000000E+00 0.  1.
<mgrwt>
<rscale>  2 0.18686581E+03</rscale>
<asrwt>0</asrwt>
<pdfrwt beam="1">  1       21 0.34639091E-01 0.18734775E+03</pdfrwt>
<pdfrwt beam="2">  1       21 0.27912531E-01 0.18734775E+03</pdfrwt>
<totfact> 0.98659467E+04</totfact>
</mgrwt>
</event>
<event>
12    1  0.1013215E-001  0.2248236E+03  0.7546771E-02  0.1130355E+00
         21   -1    0    0  501  502  0.00000000000E+00  0.00000000000E+00  0.24658038220E+03  0.24658038220E+03  0.00000000000E+00 0.  1.
         21   -1    0    0  502  503 -0.00000000000E+00 -0.00000000000E+00 -0.33707064150E+03  0.33707064150E+03  0.00000000000E+00 0.  1.
         -6    2    1    2    0  503  0.59639470429E+02  0.13214882900E+03 -0.22799286779E+03  0.32019742885E+03  0.17182975946E+03 0.  0.
        -24    2    3    3    0    0 -0.33204608237E+02  0.72819286629E+02 -0.13296783126E+03  0.17462316907E+03  0.80047564068E+02 0.  0.
          6    2    1    2  501    0 -0.59639470429E+02 -0.13214882900E+03  0.13750260849E+03  0.26345359486E+03  0.17169930070E+03 0.  0.
         24    2    5    5    0    0 -0.92692967884E+01 -0.10692095585E+03  0.15371231785E+03  0.20464505250E+03  0.82061624355E+02 0.  0.
          5    1    5    5  501    0 -0.50370173641E+02 -0.25227873155E+02 -0.16209709355E+02  0.58808542355E+02  0.47000000000E+01 0. -1.
        -11    1    6    6    0    0 -0.15114521544E+02 -0.10865952836E+03  0.93556738464E+02  0.14418115403E+03  0.00000000000E+00 0.  1.
         12    1    6    6    0    0  0.58452247554E+01  0.17385725162E+01  0.60155579386E+02  0.60463898469E+02  0.00000000000E+00 0. -1.
         -5    1    3    3    0  503  0.92844078667E+02  0.59329542374E+02 -0.95025036531E+02  0.14557425978E+03  0.47000000000E+01 0.  1.
         13    1    4    4    0    0  0.76791288553E+01  0.44337252623E+02 -0.16469675636E+02  0.47916711132E+02  0.00000000000E+00 0. -1.
        -14    1    4    4    0    0 -0.40883737093E+02  0.28482034005E+02 -0.11649815562E+03  0.12670645794E+03  0.00000000000E+00 0.  1.
<mgrwt>
<rscale>  2 0.22479866E+03</rscale>
<asrwt>0</asrwt>
<pdfrwt beam="1">  1       21 0.37935444E-01 0.22482359E+03</pdfrwt>
<pdfrwt beam="2">  1       21 0.51857022E-01 0.22482359E+03</pdfrwt>
<totfact> 0.23238978E+04</totfact>
</mgrwt>
</event>
<event>
12    1  0.1013215E-001  0.1991055E+03  0.7546771E-02  0.1152088E+00
         21   -1    0    0  503  502  0.00000000000E+00  0.00000000000E+00  0.26216738803E+04  0.26216738803E+04  0.00000000000E+00 0.  1.
         21   -1    0    0  501  503 -0.00000000000E+00 -0.00000000000E+00 -0.14588356419E+02  0.14588356419E+02  0.00000000000E+00 0.  1.
          6    2    1    2  501    0 -0.69809511193E+02 -0.50486605453E+02  0.12295137032E+04  0.12443760613E+04  0.17130548846E+03 0.  0.
         24    2    3    3    0    0  0.11006631026E+02 -0.70010676685E+02  0.74189085690E+03  0.74969377090E+03  0.81339202032E+02 0.  0.
         -6    2    1    2    0  502  0.69809511193E+02  0.50486605453E+02  0.13775718207E+04  0.13918861754E+04  0.17950136219E+03 0.  0.
        -24    2    5    5    0    0  0.52236131943E+02 -0.31155801405E+02  0.10075369796E+04  0.10125154071E+04  0.79733223250E+02 0.  0.
          5    1    3    3  501    0 -0.80816142219E+02  0.19524071232E+02  0.48762284632E+03  0.49468229042E+03  0.47000000000E+01 0. -1.
        -11    1    4    4    0    0 -0.10992113720E+02 -0.73570357578E+02  0.38577792355E+03  0.39288424551E+03  0.00000000000E+00 0.  1.
         12    1    4    4    0    0  0.21998744747E+02  0.35596808934E+01  0.35611293336E+03  0.35680952538E+03  0.00000000000E+00 0. -1.
         -5    1    5    5    0  502  0.17573379250E+02  0.81642406858E+02  0.37003484111E+03  0.37937076837E+03  0.47000000000E+01 0.  1.
         11    1    6    6    0    0  0.50188299951E+02  0.51140278244E+01  0.31392047919E+03  0.31794824419E+03  0.00000000000E+00 0. -1.
        -12    1    6    6    0    0  0.20478319918E+01 -0.36269829230E+02  0.69361650039E+03  0.69456716288E+03  0.00000000000E+00 0.  1.
<mgrwt>
<rscale>  2 0.19724044E+03</rscale>
<asrwt>0</asrwt>
<pdfrwt beam="1">  1       21 0.40333407E+00 0.19910551E+03</pdfrwt>
<pdfrwt beam="2">  1       21 0.22443646E-02 0.19910551E+03</pdfrwt>
<totfact> 0.83998384E+03</totfact>
</mgrwt>
</event>
<event>
12    1  0.1013215E-001  0.1830863E+03  0.7546771E-02  0.1165693E+00
         21   -1    0    0  503  502  0.00000000000E+00  0.00000000000E+00  0.14194059396E+03  0.14194059396E+03  0.00000000000E+00 0.  1.
         21   -1    0    0  501  503 -0.00000000000E+00 -0.00000000000E+00 -0.31247862682E+03  0.31247862682E+03  0.00000000000E+00 0.  1.
          6    2    1    2  501    0 -0.58246854717E+02  0.12964393603E+02 -0.20145232285E+03  0.27221985078E+03  0.17308910188E+03 0.  0.
         24    2    3    3    0    0 -0.40877546512E+02 -0.77676104551E+01 -0.22102783499E+03  0.23850339285E+03  0.79367845990E+02 0.  0.
         -6    2    1    2    0  502  0.58246854717E+02 -0.12964393603E+02  0.30914289998E+02  0.18219937000E+03  0.16935213467E+03 0.  0.
        -24    2    5    5    0    0  0.61658391219E+01 -0.35553490508E+02 -0.34676285603E+02  0.95326398991E+02  0.81133281099E+02 0.  0.
          5    1    3    3  501    0 -0.17369308204E+02  0.20732004058E+02  0.19575512140E+02  0.33716457929E+02  0.47000000000E+01 0. -1.
        -13    1    4    4    0    0 -0.54110404256E+02  0.15109337568E+02 -0.10073858790E+03  0.11534509536E+03  0.00000000000E+00 0.  1.
         14    1    4    4    0    0  0.13232857744E+02 -0.22876948023E+02 -0.12028924709E+03  0.12315829749E+03  0.00000000000E+00 0. -1.
         -5    1    5    5    0  502  0.52081015595E+02  0.22589096905E+02  0.65590575602E+02  0.86872971010E+02  0.47000000000E+01 0.  1.
         11    1    6    6    0    0 -0.16485867393E+02  0.17574546562E+02 -0.28378160199E+02  0.37228597702E+02  0.00000000000E+00 0. -1.
        -12    1    6    6    0    0  0.22651706515E+02 -0.53128037070E+02 -0.62981254042E+01  0.58097801289E+02  0.00000000000E+00 0.  1.
<mgrwt>
<rscale>  2 0.18219770E+03</rscale>
<asrwt>0</asrwt>
<pdfrwt beam="1">  1       21 0.21837015E-01 0.18308634E+03</pdfrwt>
<pdfrwt beam="2">  1       21 0.48073634E-01 0.18308634E+03</pdfrwt>
<totfact> 0.81253249E+04</totfact>
</mgrwt>
</event>
<event>
12    1  0.1013215E-001  0.1970080E+03  0.7546771E-02  0.1152383E+00
         21   -1    0    0  503  502  0.00000000000E+00  0.00000000000E+00  0.76114169389E+02  0.76114169389E+02  0.00000000000E+00 0. -1.
         21   -1    0    0  501  503 -0.00000000000E+00 -0.00000000000E+00 -0.61708322847E+03  0.61708322847E+03  0.00000000000E+00 0. -1.
          6    2    1    2  501    0 -0.78318973925E+02  0.48065175136E+02 -0.41594114232E+03  0.46023817824E+03  0.17426423644E+03 0.  0.
         24    2    3    3    0    0 -0.21061674414E+02  0.26106543660E+02 -0.82175789749E+02  0.12085346966E+03  0.82021673704E+02 0.  0.
         -6    2    1    2    0  502  0.78318973925E+02 -0.48065175136E+02 -0.12502791676E+03  0.23295921961E+03  0.17376390677E+03 0.  0.
        -24    2    5    5    0    0  0.40227089586E+02 -0.93873288847E+02 -0.10917854146E+03  0.17113149419E+03  0.83280377590E+02 0.  0.
          5    1    3    3  501    0 -0.57257299511E+02  0.21958631477E+02 -0.33376535257E+03  0.33938470858E+03  0.47000000000E+01 0. -1.
        -11    1    4    4    0    0 -0.47696735314E+02 -0.16047328151E+01 -0.59323537055E+02  0.76136954074E+02  0.00000000000E+00 0.  1.
         12    1    4    4    0    0  0.26635060900E+02  0.27711276475E+02 -0.22852252694E+02  0.44716515586E+02  0.00000000000E+00 0. -1.
         -5    1    5    5    0  502  0.38091884338E+02  0.45808113710E+02 -0.15849375296E+02  0.61827725426E+02  0.47000000000E+01 0.  1.
         13    1    6    6    0    0  0.62103598111E+02 -0.90115158899E+02 -0.93657935462E+02  0.14404654677E+03  0.00000000000E+00 0. -1.
        -14    1    6    6    0    0 -0.21876508524E+02 -0.37581299471E+01 -0.15520606003E+02  0.27084947417E+02  0.00000000000E+00 0.  1.
<mgrwt>
<rscale>  2 0.19689729E+03</rscale>
<asrwt>0</asrwt>
<pdfrwt beam="1">  1       21 0.11709872E-01 0.19700799E+03</pdfrwt>
<pdfrwt beam="2">  1       21 0.94935885E-01 0.19700799E+03</pdfrwt>
<totfact> 0.56759049E+04</totfact>
</mgrwt>
</event>
<event>
12    1  0.1013215E-001  0.2601511E+03  0.7546771E-02  0.1107128E+00
         21   -1    0    0  503  502  0.00000000000E+00  0.00000000000E+00  0.25887694665E+03  0.25887694665E+03  0.00000000000E+00 0.  1.
         21   -1    0    0  501  503 -0.00000000000E+00 -0.00000000000E+00 -0.27612380960E+03  0.27612380960E+03  0.00000000000E+00 0.  1.
          6    2    1    2  501    0  0.16756941076E+03  0.98837458445E+02  0.54142422783E+02  0.26523224469E+03  0.17195461920E+03 0.  0.
         24    2    3    3    0    0  0.70872441122E+02  0.38052302164E+02 -0.35861610375E+02  0.11974013100E+03  0.81121903720E+02 0.  0.
         -6    2    1    2    0  502 -0.16756941076E+03 -0.98837458445E+02 -0.71389285735E+02  0.26976851155E+03  0.17271441485E+03 0.  0.
        -24    2    5    5    0    0 -0.80539589427E+02 -0.88269726510E+02 -0.10154721006E+03  0.17693825162E+03  0.81958153548E+02 0.  0.
          5    1    3    3  501    0  0.96696969634E+02  0.60785156281E+02  0.90004033158E+02  0.14549211369E+03  0.47000000000E+01 0. -1.
        -13    1    4    4    0    0  0.66312587035E+02  0.20184873779E+02  0.10257225827E+02  0.70071385104E+02  0.00000000000E+00 0.  1.
         14    1    4    4    0    0  0.45598540864E+01  0.17867428384E+02 -0.46118836202E+02  0.49668745897E+02  0.00000000000E+00 0. -1.
         -5    1    5    5    0  502 -0.87029821329E+02 -0.10567731935E+02  0.30157924329E+02  0.92830259930E+02  0.47000000000E+01 0.  1.
         13    1    6    6    0    0 -0.26829991169E+02  0.94712296478E+01 -0.41378752484E+02  0.50217066564E+02  0.00000000000E+00 0. -1.
        -14    1    6    6    0    0 -0.53709598258E+02 -0.97740956157E+02 -0.60168457580E+02  0.12672118506E+03  0.00000000000E+00 0.  1.
<mgrwt>
<rscale>  2 0.26002510E+03</rscale>
<asrwt>0</asrwt>
<pdfrwt beam="1">  1       21 0.39827223E-01 0.26015115E+03</pdfrwt>
<pdfrwt beam="2">  1       21 0.42480586E-01 0.26015115E+03</pdfrwt>
<totfact> 0.31353388E+04</totfact>
</mgrwt>
</event>
<event>
12    1  0.1013215E-001  0.2012293E+03  0.7546771E-02  0.1148767E+00
         21   -1    0    0  501  502  0.00000000000E+00  0.00000000000E+00  0.20552324490E+03  0.20552324490E+03  0.00000000000E+00 0.  1.
         21   -1    0    0  502  503 -0.00000000000E+00 -0.00000000000E+00 -0.29693198775E+03  0.29693198775E+03  0.00000000000E+00 0. -1.
         -6    2    1    2    0  503 -0.65959163510E+02 -0.78974883940E+02 -0.19161470513E+03  0.27765650198E+03  0.17259575408E+03 0.  0.
        -24    2    3    3    0    0 -0.77760978156E+02 -0.11254461165E+03 -0.17448281697E+03  0.23788463958E+03  0.86207824422E+02 0.  0.
          6    2    1    2  501    0  0.65959163510E+02  0.78974883940E+02  0.10020596228E+03  0.22479873066E+03  0.17293233037E+03 0.  0.
         24    2    5    5    0    0  0.45706428170E+02  0.82294980264E+02  0.13514529373E+03  0.18400604491E+03  0.82051403362E+02 0.  0.
          5    1    5    5  501    0  0.20252735340E+02 -0.33200963235E+01 -0.34939331453E+02  0.40792685750E+02  0.47000000000E+01 0. -1.
        -13    1    6    6    0    0  0.59859157315E+02  0.90276083827E+02  0.12164258815E+03  0.16287973869E+03  0.00000000000E+00 0.  1.
         14    1    6    6    0    0 -0.14152729145E+02 -0.79811035629E+01  0.13502705585E+02  0.21126306219E+02  0.00000000000E+00 0. -1.
         -5    1    3    3    0  503  0.11801814646E+02  0.33569727711E+02 -0.17131888160E+02  0.39771862408E+02  0.47000000000E+01 0.  1.
         11    1    4    4    0    0 -0.89284219627E+02 -0.60607015927E+02 -0.10716901980E+03  0.15208576876E+03  0.00000000000E+00 0. -1.
        -12    1    4    4    0    0  0.11523241471E+02 -0.51937595724E+02 -0.67313797173E+02  0.85798870817E+02  0.00000000000E+00 0.  1.
<mgrwt>
<rscale>  2 0.20115698E+03</rscale>
<asrwt>0</asrwt>
<pdfrwt beam="1">  1       21 0.31618961E-01 0.20122931E+03</pdfrwt>
<pdfrwt beam="2">  1       21 0.45681844E-01 0.20122931E+03</pdfrwt>
<totfact> 0.43987506E+04</totfact>
</mgrwt>
</event>
<event>
12    1  0.1013215E-001  0.1817726E+03  0.7546771E-02  0.1166462E+00
         21   -1    0    0  501  502  0.00000000000E+00  0.00000000000E+00  0.16768459002E+03  0.16768459002E+03  0.00000000000E+00 0.  1.
         21   -1    0    0  502  503 -0.00000000000E+00 -0.00000000000E+00 -0.20718076520E+03  0.20718076520E+03  0.00000000000E+00 0.  1.
         -6    2    1    2    0  503 -0.49599340458E+02 -0.15899829658E+02  0.25017411713E+02  0.18198379139E+03  0.17256688640E+03 0.  0.
        -24    2    3    3    0    0 -0.16773528285E+02  0.18180889187E+02  0.74873511222E+02  0.11308712964E+03  0.81060225913E+02 0.  0.
          6    2    1    2  501    0  0.49599340458E+02  0.15899829658E+02 -0.64513586901E+02  0.19288156383E+03  0.17415049702E+03 0.  0.
         24    2    5    5    0    0  0.65974141207E+02 -0.29011489317E+02  0.14915648512E+01  0.11124866158E+03  0.84733618580E+02 0.  0.
          5    1    5    5  501    0 -0.16374800749E+02  0.44911318975E+02 -0.66005151752E+02  0.81632902248E+02  0.47000000000E+01 0. -1.
        -11    1    6    6    0    0  0.53074180078E+02 -0.30383292595E+01 -0.35737955808E+02  0.64057017734E+02  0.00000000000E+00 0.  1.
         12    1    6    6    0    0  0.12899961129E+02 -0.25973160057E+02  0.37229520660E+02  0.47191643847E+02  0.00000000000E+00 0. -1.
         -5    1    3    3    0  503 -0.32825812172E+02 -0.34080718845E+02 -0.49856099509E+02  0.68896661748E+02  0.47000000000E+01 0.  1.
         11    1    4    4    0    0  0.16872819698E+02  0.36293926701E+02  0.16441197619E+02  0.43269552101E+02  0.00000000000E+00 0. -1.
        -12    1    4    4    0    0 -0.33646347983E+02 -0.18113037514E+02  0.58432313603E+02  0.69817577540E+02  0.00000000000E+00 0.  1.
<mgrwt>
<rscale>  2 0.18139229E+03</rscale>
<asrwt>0</asrwt>
<pdfrwt beam="1">  1       21 0.25797629E-01 0.18177265E+03</pdfrwt>
<pdfrwt beam="2">  1       21 0.31873964E-01 0.18177265E+03</pdfrwt>
<totfact> 0.13550291E+05</totfact>
</mgrwt>
</event>
<event>
12    1  0.1013215E-001  0.2012770E+03  0.7546771E-02  0.1148682E+00
         21   -1    0    0  503  502  0.00000000000E+00  0.00000000000E+00  0.15524288280E+03  0.15524288280E+03  0.00000000000E+00 0. -1.
         21   -1    0    0  501  503 -0.00000000000E+00 -0.00000000000E+00 -0.46218430571E+03  0.46218430571E+03  0.00000000000E+00 0.  1.
          6    2    1    2  501    0  0.10252030074E+03  0.16210073160E+02 -0.35720239601E+03  0.40996977310E+03  0.17236149398E+03 0.  0.
         24    2    3    3    0    0  0.11585861775E+03 -0.13487730928E+02 -0.34801125491E+03  0.37581662767E+03  0.80753736090E+02 0.  0.
         -6    2    1    2    0  502 -0.10252030074E+03 -0.16210073160E+02  0.50260973101E+02  0.20745741540E+03  0.17245067484E+03 0.  0.
        -24    2    5    5    0    0 -0.46707412991E+02  0.99413101792E+01  0.87841151705E+02  0.13511563554E+03  0.90883194035E+02 0.  0.
          5    1    3    3  501    0 -0.13338317013E+02  0.29697804088E+02 -0.91911410976E+01  0.34153145434E+02  0.47000000000E+01 0. -1.
        -13    1    4    4    0    0  0.11290279837E+03 -0.32045237482E+02 -0.25207195882E+03  0.27805433201E+03  0.00000000000E+00 0.  1.
         14    1    4    4    0    0  0.29558193796E+01  0.18557506554E+02 -0.95939296090E+02  0.97762295656E+02  0.00000000000E+00 0. -1.
         -5    1    5    5    0  502 -0.55812887750E+02 -0.26151383339E+02 -0.37580178604E+02  0.72341779861E+02  0.47000000000E+01 0.  1.
         11    1    6    6    0    0 -0.68644396672E+02  0.27137038030E+02  0.55066580867E+02  0.92091261018E+02  0.00000000000E+00 0. -1.
        -12    1    6    6    0    0  0.21936983681E+02 -0.17195727850E+02  0.32774570838E+02  0.43024374521E+02  0.00000000000E+00 0.  1.
<mgrwt>
<rscale>  2 0.20125785E+03</rscale>
<asrwt>0</asrwt>
<pdfrwt beam="1">  1       21 0.23883521E-01 0.20127696E+03</pdfrwt>
<pdfrwt beam="2">  1       21 0.71105277E-01 0.20127696E+03</pdfrwt>
<totfact> 0.29433824E+04</totfact>
</mgrwt>
</event>
<event>
12    1  0.1013215E-001  0.1852660E+03  0.7546771E-02  0.1163758E+00
         21   -1    0    0  501  502  0.00000000000E+00  0.00000000000E+00  0.12651914434E+03  0.12651914434E+03  0.00000000000E+00 0. -1.
         21   -1    0    0  502  503 -0.00000000000E+00 -0.00000000000E+00 -0.43439700432E+03  0.43439700432E+03  0.00000000000E+00 0. -1.
         -6    2    1    2    0  503 -0.55604697349E+02  0.25498487471E+02 -0.32991182024E+03  0.37837192052E+03  0.17487551536E+03 0.  0.
        -24    2    3    3    0    0  0.22086214202E+02  0.52678936041E+02 -0.13802732042E+03  0.16952650928E+03  0.80155006132E+02 0.  0.
          6    2    1    2  501    0  0.55604697349E+02 -0.25498487471E+02  0.22033960266E+02  0.18254422814E+03  0.17057210965E+03 0.  0.
         24    2    5    5    0    0  0.61119899708E+02 -0.10246533948E+02 -0.47340842226E+02  0.11114399870E+03  0.79190905447E+02 0.  0.
          5    1    5    5  501    0 -0.55152023584E+01 -0.15251953523E+02  0.69374802492E+02  0.71400229440E+02  0.47000000000E+01 0. -1.
        -13    1    6    6    0    0  0.43088201423E+02 -0.44440881752E+02 -0.28989073796E+02  0.68351674978E+02  0.00000000000E+00 0.  1.
         14    1    6    6    0    0  0.18031698285E+02  0.34194347804E+02 -0.18351768430E+02  0.42792323719E+02  0.00000000000E+00 0. -1.
         -5    1    3    3    0  503 -0.77690911551E+02 -0.27180448569E+02 -0.19188449982E+03  0.20884541124E+03  0.47000000000E+01 0.  1.
         11    1    4    4    0    0  0.44827319907E+01  0.24499333986E+02 -0.13372319046E+03  0.13602280661E+03  0.00000000000E+00 0. -1.
        -12    1    4    4    0    0  0.17603482211E+02  0.28179602055E+02 -0.43041299565E+01  0.33503702670E+02  0.00000000000E+00 0.  1.
<mgrwt>
<rscale>  2 0.18424347E+03</rscale>
<asrwt>0</asrwt>
<pdfrwt beam="1">  1       21 0.19464484E-01 0.18526603E+03</pdfrwt>
<pdfrwt beam="2">  1       21 0.66830308E-01 0.18526603E+03</pdfrwt>
<totfact> 0.49986006E+04</totfact>
</mgrwt>
</event>
<event>
12    1  0.1013215E-001  0.2250916E+03  0.7546771E-02  0.1130150E+00
         21   -1    0    0  503  502  0.00000000000E+00  0.00000000000E+00  0.10741641223E+04  0.10741641223E+04  0.00000000000E+00 0. -1.
         21   -1    0    0  501  503 -0.00000000000E+00 -0.00000000000E+00 -0.49314944763E+02  0.49314944763E+02  0.00000000000E+00 0.  1.
          6    2    1    2  501    0  0.14339276455E+03  0.10528829354E+02  0.39504847023E+03  0.45467518585E+03  0.17318744071E+03 0.  0.
         24    2    3    3    0    0  0.14246932495E+03  0.15585602656E+02  0.20066064020E+03  0.26016261001E+03  0.82942579883E+02 0.  0.
         -6    2    1    2    0  502 -0.14339276455E+03 -0.10528829354E+02  0.62980070734E+03  0.66880388125E+03  0.17313971075E+03 0.  0.
        -24    2    5    5    0    0 -0.74918021832E+02  0.55035948624E+02  0.44009252412E+03  0.45667463932E+03  0.78921674942E+02 0.  0.
          5    1    3    3  501    0  0.92343960481E+00 -0.50567733020E+01  0.19438783003E+03  0.19451257584E+03  0.47000000000E+01 0. -1.
        -13    1    4    4    0    0  0.33365814720E+02  0.26737197810E+02  0.16521902545E+02  0.45838069356E+02  0.00000000000E+00 0.  1.
         14    1    4    4    0    0  0.10910351023E+03 -0.11151595154E+02  0.18413873766E+03  0.21432454065E+03  0.00000000000E+00 0. -1.
         -5    1    5    5    0  502 -0.68474742719E+02 -0.65564777978E+02  0.18970818322E+03  0.21212924193E+03  0.47000000000E+01 0.  1.
         11    1    6    6    0    0 -0.63775920785E+00  0.40255483568E+02  0.22654118197E+03  0.23009089035E+03  0.00000000000E+00 0. -1.
        -12    1    6    6    0    0 -0.74280262624E+02  0.14780465056E+02  0.21355134215E+03  0.22658374897E+03  0.00000000000E+00 0.  1.
<mgrwt>
<rscale>  2 0.22508242E+03</rscale>
<asrwt>0</asrwt>
<pdfrwt beam="1">  1       21 0.16525600E+00 0.22509161E+03</pdfrwt>
<pdfrwt beam="2">  1       21 0.75869154E-02 0.22509161E+03</pdfrwt>
<totfact> 0.29731401E+04</totfact>
</mgrwt>
</event>
<event>
12    1  0.1013215E-001  0.2064781E+03  0.7546771E-02  0.1144637E+00
         21   -1    0    0  501  502  0.00000000000E+00  0.00000000000E+00  0.34363145424E+03  0.34363145424E+03  0.00000000000E+00 0. -1.
         21   -1    0    0  502  503 -0.00000000000E+00 -0.00000000000E+00 -0.12948063069E+03  0.12948063069E+03  0.00000000000E+00 0. -1.
         -6    2    1    2    0  503  0.57629884322E+01 -0.11241767114E+03  0.15834986155E+03  0.25922671607E+03  0.17161837563E+03 0.  0.
        -24    2    3    3    0    0  0.31680771627E+02 -0.22319224132E+02  0.19109148864E+02  0.91299566070E+02  0.80427806993E+02 0.  0.
          6    2    1    2  501    0 -0.57629884322E+01  0.11241767114E+03  0.55800962001E+02  0.21388536886E+03  0.17309609710E+03 0.  0.
         24    2    5    5    0    0 -0.32954198262E+02  0.70509107455E+02  0.97909848080E+02  0.14838011801E+03  0.79829866918E+02 0.  0.
          5    1    5    5  501    0  0.27191209829E+02  0.41908563688E+02 -0.42108886079E+02  0.65505250852E+02  0.47000000000E+01 0. -1.
        -13    1    6    6    0    0  0.16875027114E+02 -0.69148778057E+01  0.88060957765E+01  0.20251651735E+02  0.00000000000E+00 0.  1.
         14    1    6    6    0    0 -0.49829225375E+02  0.77423985261E+02  0.89103752304E+02  0.12812846627E+03  0.00000000000E+00 0. -1.
         -5    1    3    3    0  503 -0.25917783194E+02 -0.90098447011E+02  0.13924071268E+03  0.16792715000E+03  0.47000000000E+01 0.  1.
         11    1    4    4    0    0  0.64316875462E+01 -0.47163994810E+02  0.27394619946E+02  0.54920617377E+02  0.00000000000E+00 0. -1.
        -12    1    4    4    0    0  0.25249084080E+02  0.24844770678E+02 -0.82854710823E+01  0.36378948693E+02  0.00000000000E+00 0.  1.
<mgrwt>
<rscale>  2 0.20616809E+03</rscale>
<asrwt>0</asrwt>
<pdfrwt beam="1">  1       21 0.52866377E-01 0.20647809E+03</pdfrwt>
<pdfrwt beam="2">  1       21 0.19920097E-01 0.20647809E+03</pdfrwt>
<totfact> 0.78382193E+04</totfact>
</mgrwt>
</event>
<event>
12    1  0.1013215E-001  0.2032915E+03  0.7546771E-02  0.1148308E+00
         21   -1    0    0  503  502  0.00000000000E+00  0.00000000000E+00  0.45129054122E+03  0.45129054122E+03  0.00000000000E+00 0.  1.
         21   -1    0    0  501  503 -0.00000000000E+00 -0.00000000000E+00 -0.14489663138E+03  0.14489663138E+03  0.00000000000E+00 0.  1.
          6    2    1    2  501    0 -0.47430360695E+02 -0.85996129689E+02 -0.30841805395E+02  0.20561775761E+03  0.17799570739E+03 0.  0.
         24    2    3    3    0    0 -0.81094906141E+02 -0.10715049904E+03 -0.45892287438E+02  0.16284608507E+03  0.79719082590E+02 0.  0.
         -6    2    1    2    0  502  0.47430360695E+02  0.85996129689E+02  0.33723571523E+03  0.39056941498E+03  0.17079685843E+03 0.  0.
        -24    2    5    5    0    0  0.87660023125E+02  0.83903780502E+02  0.30640562980E+03  0.33962446594E+03  0.82074623716E+02 0.  0.
          5    1    3    3  501    0  0.33664545446E+02  0.21154369351E+02  0.15050482043E+02  0.42771672547E+02  0.47000000000E+01 0. -1.
        -13    1    4    4    0    0  0.86689206730E+01 -0.43893942136E+02 -0.26324198151E+01  0.44819169737E+02  0.00000000000E+00 0.  1.
         14    1    4    4    0    0 -0.89763826814E+02 -0.63256556904E+02 -0.43259867623E+02  0.11802691533E+03  0.00000000000E+00 0. -1.
         -5    1    5    5    0  502 -0.40229662430E+02  0.20923491871E+01  0.30830085435E+02  0.50944949036E+02  0.47000000000E+01 0.  1.
         13    1    6    6    0    0  0.21109812174E+02 -0.11398576618E+02  0.99017471110E+02  0.10188234049E+03  0.00000000000E+00 0. -1.
        -14    1    6    6    0    0  0.66550210951E+02  0.95302357120E+02  0.20738815869E+03  0.23774212545E+03  0.00000000000E+00 0.  1.
<mgrwt>
<rscale>  2 0.20170495E+03</rscale>
<asrwt>0</asrwt>
<pdfrwt beam="1">  1       21 0.69429313E-01 0.20329153E+03</pdfrwt>
<pdfrwt beam="2">  1       21 0.22291790E-01 0.20329153E+03</pdfrwt>
<totfact> 0.35321920E+04</totfact>
</mgrwt>
</event>
<event>
12    1  0.1013215E-001  0.2030894E+03  0.7546771E-02  0.1147872E+00
         21   -1    0    0  501  502  0.00000000000E+00  0.00000000000E+00  0.16902489825E+03  0.16902489825E+03  0.00000000000E+00 0.  1.
         21   -1    0    0  502  503 -0.00000000000E+00 -0.00000000000E+00 -0.24151199423E+03  0.24151199423E+03  0.00000000000E+00 0.  1.
         -6    2    1    2    0  503 -0.10639237210E+03 -0.16855476974E+02 -0.19926086352E+02  0.20406460311E+03  0.17216814275E+03 0.  0.
        -24    2    3    3    0    0 -0.10718804803E+03  0.43041197204E+02 -0.29461255303E+00  0.14085282065E+03  0.80607741515E+02 0.  0.
          6    2    1    2  501    0  0.10639237210E+03  0.16855476974E+02 -0.52561009635E+02  0.20647228937E+03  0.16812109505E+03 0.  0.
         24    2    5    5    0    0  0.12047270434E+03 -0.26746737895E+02 -0.52032871987E+02  0.16040952972E+03  0.88287807646E+02 0.  0.
          5    1    5    5  501    0 -0.14080332239E+02  0.43602214869E+02 -0.52813764858E+00  0.46062759652E+02  0.47000000000E+01 0. -1.
        -11    1    6    6    0    0  0.11076102553E+03  0.51710635847E+01 -0.60048617636E+02  0.12609750654E+03  0.00000000000E+00 0.  1.
         12    1    6    6    0    0  0.97116788111E+01 -0.31917801480E+02  0.80157456492E+01  0.34312023183E+02  0.00000000000E+00 0. -1.
         -5    1    3    3    0  503  0.79567592721E+00 -0.59896674178E+02 -0.19631473799E+02  0.63211782456E+02  0.47000000000E+01 0.  1.
         11    1    4    4    0    0  0.99405242333E+01 -0.65496206542E+01  0.63370458511E+01  0.13485907566E+02  0.00000000000E+00 0. -1.
        -12    1    4    4    0    0 -0.11712857226E+03  0.49590817858E+02 -0.66316584041E+01  0.12736691309E+03  0.00000000000E+00 0.  1.
<mgrwt>
<rscale>  2 0.20222914E+03</rscale>
<asrwt>0</asrwt>
<pdfrwt beam="1">  1       21 0.26003831E-01 0.20308942E+03</pdfrwt>
<pdfrwt beam="2">  1       21 0.37155691E-01 0.20308942E+03</pdfrwt>
<totfact> 0.97723891E+04</totfact>
</mgrwt>
</event>
<event>
12    1  0.1013215E-001  0.1806962E+03  0.7546771E-02  0.1167471E+00
         21   -1    0    0  503  502  0.00000000000E+00  0.00000000000E+00  0.71442994118E+03  0.71442994118E+03  0.00000000000E+00 0. -1.
         21   -1    0    0  501  503 -0.00000000000E+00 -0.00000000000E+00 -0.93080094940E+02  0.93080094940E+02  0.00000000000E+00 0.  1.
          6    2    1    2  501    0 -0.39669090987E+02 -0.31066644365E+02  0.22134774463E+02  0.18204682991E+03  0.17352903753E+03 0.  0.
         24    2    3    3    0    0 -0.56773442254E+02 -0.19552394941E+02  0.73522003810E+02  0.12647818666E+03  0.83580660229E+02 0.  0.
         -6    2    1    2    0  502  0.39669090987E+02  0.31066644365E+02  0.59921507178E+03  0.62546320621E+03  0.17206611203E+03 0.  0.
        -24    2    5    5    0    0 -0.39274989362E+01  0.64860093666E+02  0.23350151611E+03  0.25558328696E+03  0.81102413947E+02 0.  0.
          5    1    3    3  501    0  0.17104351267E+02 -0.11514249424E+02 -0.51387229347E+02  0.55568643244E+02  0.47000000000E+01 0. -1.
        -11    1    4    4    0    0 -0.93012916826E+01  0.27771243702E+02  0.34202659637E+01  0.29486509169E+02  0.00000000000E+00 0.  1.
         12    1    4    4    0    0 -0.47472150572E+02 -0.47323638643E+02  0.70101737846E+02  0.96991677495E+02  0.00000000000E+00 0. -1.
         -5    1    5    5    0  502  0.43596589923E+02 -0.33793449302E+02  0.36571355567E+03  0.36987991926E+03  0.47000000000E+01 0.  1.
         11    1    6    6    0    0 -0.29247398533E+02  0.24081894200E+02  0.17896914657E+03  0.18293524366E+03  0.00000000000E+00 0. -1.
        -12    1    6    6    0    0  0.25319899597E+02  0.40778199466E+02  0.54532369542E+02  0.72648043299E+02  0.00000000000E+00 0.  1.
<mgrwt>
<rscale>  2 0.18034402E+03</rscale>
<asrwt>0</asrwt>
<pdfrwt beam="1">  1       21 0.10991229E+00 0.18069615E+03</pdfrwt>
<pdfrwt beam="2">  1       21 0.14320015E-01 0.18069615E+03</pdfrwt>
<totfact> 0.28123262E+04</totfact>
</mgrwt>
</event>
<event>
12    1  0.1013215E-001  0.1807347E+03  0.7546771E-02  0.1167392E+00
         21   -1    0    0  503  502  0.00000000000E+00  0.00000000000E+00  0.28573835279E+03  0.28573835279E+03  0.00000000000E+00 0.  1.
         21   -1    0    0  501  503 -0.00000000000E+00 -0.00000000000E+00 -0.11354953016E+03  0.11354953016E+03  0.00000000000E+00 0.  1.
          6    2    1    2  501    0  0.47580686261E+02 -0.48487031996E+01  0.83786091679E+02  0.19809127168E+03  0.17301043647E+03 0.  0.
         24    2    3    3    0    0  0.53475994382E+02  0.50199471828E+02  0.90807546838E+02  0.14208728018E+03  0.81013058691E+02 0.  0.
         -6    2    1    2    0  502 -0.47580686261E+02  0.48487031996E+01  0.88402730951E+02  0.20119661126E+03  0.17429171500E+03 0.  0.
        -24    2    5    5    0    0  0.39205130155E+02  0.24534715890E+02  0.42991448414E+02  0.10117865483E+03  0.79056062657E+02 0.  0.
          5    1    3    3  501    0 -0.58953081208E+01 -0.55048175028E+02 -0.70214551590E+01  0.56003991503E+02  0.47000000000E+01 0. -1.
        -13    1    4    4    0    0 -0.10082959314E+02 -0.60552198666E+01 -0.61122951699E+01  0.13254882437E+02  0.00000000000E+00 0.  1.
         14    1    4    4    0    0  0.63558953697E+02  0.56254691695E+02  0.96919842008E+02  0.12883239774E+03  0.00000000000E+00 0. -1.
         -5    1    5    5    0  502 -0.86785816416E+02 -0.19686012690E+02  0.45411282537E+02  0.10001795643E+03  0.47000000000E+01 0.  1.
         13    1    6    6    0    0  0.52736339124E+02  0.22455457877E+01  0.51504990784E+02  0.73749088237E+02  0.00000000000E+00 0. -1.
        -14    1    6    6    0    0 -0.13531208969E+02  0.22289170102E+02 -0.85135423702E+01  0.27429566597E+02  0.00000000000E+00 0.  1.
<mgrwt>
<rscale>  2 0.18042509E+03</rscale>
<asrwt>0</asrwt>
<pdfrwt beam="1">  1       21 0.43959746E-01 0.18073470E+03</pdfrwt>
<pdfrwt beam="2">  1       21 0.17469159E-01 0.18073470E+03</pdfrwt>
<totfact> 0.14808005E+05</totfact>
</mgrwt>
</event>
<event>
12    1  0.1013215E-001  0.2694529E+03  0.7546771E-02  0.1101982E+00
         21   -1    0    0  501  502  0.00000000000E+00  0.00000000000E+00  0.29200572215E+03  0.29200572215E+03  0.00000000000E+00 0. -1.
         21   -1    0    0  502  503 -0.00000000000E+00 -0.00000000000E+00 -0.34494979185E+03  0.34494979185E+03  0.00000000000E+00 0.  1.
         -6    2    1    2    0  503 -0.19208307376E+03 -0.66540789921E+02 -0.19699891882E+03  0.33378648274E+03  0.17686508444E+03 0.  0.
        -24    2    3    3    0    0 -0.19966992426E+03 -0.96764113749E+02 -0.14882095583E+03  0.27621725727E+03  0.70120781169E+02 0.  0.
          6    2    1    2  501    0  0.19208307376E+03  0.66540789921E+02  0.14405484911E+03  0.30316903127E+03  0.17273123057E+03 0.  0.
         24    2    5    5    0    0  0.22482697339E+02  0.26380156803E+02  0.25074034920E+02  0.92086847551E+02  0.81546893945E+02 0.  0.
          5    1    5    5  501    0  0.16960037642E+03  0.40160633118E+02  0.11898081419E+03  0.21108218371E+03  0.47000000000E+01 0. -1.
        -11    1    6    6    0    0  0.89619746841E+01  0.19769467955E+02  0.54704348296E+02  0.58853331052E+02  0.00000000000E+00 0.  1.
         12    1    6    6    0    0  0.13520722655E+02  0.66106888477E+01 -0.29630313376E+02  0.33233516499E+02  0.00000000000E+00 0. -1.
         -5    1    3    3    0  503  0.75868505007E+01  0.30223323828E+02 -0.48177962987E+02  0.57569225471E+02  0.47000000000E+01 0.  1.
         11    1    4    4    0    0 -0.10793403073E+03 -0.17174872424E+02 -0.52707636742E+02  0.12133765369E+03  0.00000000000E+00 0. -1.
        -12    1    4    4    0    0 -0.91735893535E+02 -0.79589241325E+02 -0.96113319090E+02  0.15487960358E+03  0.00000000000E+00 0.  1.
<mgrwt>
<rscale>  2 0.26877652E+03</rscale>
<asrwt>0</asrwt>
<pdfrwt beam="1">  1       21 0.44923957E-01 0.26945286E+03</pdfrwt>
<pdfrwt beam="2">  1       21 0.53069199E-01 0.26945286E+03</pdfrwt>
<totfact> 0.15330307E+04</totfact>
</mgrwt>
</event>
<event>
12    1  0.1013215E-001  0.1790634E+03  0.7546771E-02  0.1168979E+00
         21   -1    0    0  501  502  0.00000000000E+00  0.00000000000E+00  0.11434134490E+03  0.11434134490E+03  0.00000000000E+00 0.  1.
         21   -1    0    0  502  503 -0.00000000000E+00 -0.00000000000E+00 -0.39050255309E+03  0.39050255309E+03  0.00000000000E+00 0.  1.
         -6    2    1    2    0  503  0.45959189547E+01 -0.44261374662E+02 -0.27343552305E+03  0.32684963914E+03  0.17344598461E+03 0.  0.
        -24    2    3    3    0    0 -0.27384577213E+02 -0.23759378845E+02 -0.52383977321E+02  0.10250847074E+03  0.80308669153E+02 0.  0.
          6    2    1    2  501    0 -0.45959189547E+01  0.44261374662E+02 -0.27256851344E+01  0.17799425886E+03  0.17232044298E+03 0.  0.
         24    2    5    5    0    0 -0.60034207102E+01  0.65194807538E+02 -0.58129855500E+02  0.11856445348E+03  0.79950269157E+02 0.  0.
          5    1    5    5  501    0  0.14075017555E+01 -0.20933432877E+02  0.55404170365E+02  0.59429805376E+02  0.47000000000E+01 0. -1.
        -13    1    6    6    0    0  0.23025391905E+02  0.10238882429E+02  0.92999009907E+01  0.26860594636E+02  0.00000000000E+00 0.  1.
         14    1    6    6    0    0 -0.29028812615E+02  0.54955925109E+02 -0.67429756490E+02  0.91703858843E+02  0.00000000000E+00 0. -1.
         -5    1    3    3    0  503  0.31980496168E+02 -0.20501995817E+02 -0.22105154573E+03  0.22434116840E+03  0.47000000000E+01 0.  1.
         11    1    4    4    0    0  0.71322279316E+01  0.25254098698E+02 -0.26232033830E+02  0.37104686701E+02  0.00000000000E+00 0. -1.
        -12    1    4    4    0    0 -0.34516805145E+02 -0.49013477543E+02 -0.26151943491E+02  0.65403784039E+02  0.00000000000E+00 0.  1.
<mgrwt>
<rscale>  2 0.17879027E+03</rscale>
<asrwt>0</asrwt>
<pdfrwt beam="1">  1       21 0.17590977E-01 0.17906340E+03</pdfrwt>
<pdfrwt beam="2">  1       21 0.60077315E-01 0.17906340E+03</pdfrwt>
<totfact> 0.76127835E+04</totfact>
</mgrwt>
</event>
<event>
12    1  0.1013215E-001  0.5428843E+03  0.7546771E-02  0.1003339E+00
         21   -1    0    0  503  502  0.00000000000E+00  0.00000000000E+00  0.28959699188E+04  0.28959699188E+04  0.00000000000E+00 0. -1.
         21   -1    0    0  501  503 -0.00000000000E+00 -0.00000000000E+00 -0.11459651737E+03  0.11459651737E+03  0.00000000000E+00 0.  1.
          6    2    1    2  501    0 -0.50329142517E+03  0.90045172772E+02  0.87927387270E+03  0.10333662774E+04  0.18251829549E+03 0.  0.
         24    2    3    3    0    0 -0.26894259455E+03 -0.10264898031E+02  0.37791108799E+03  0.47090008584E+03  0.80589162553E+02 0.  0.
         -6    2    1    2    0  502  0.50329142517E+03 -0.90045172772E+02  0.19020995288E+04  0.19772001588E+04  0.17299554608E+03 0.  0.
        -24    2    5    5    0    0  0.23974177610E+03 -0.24347559167E+02  0.70325812540E+03  0.74796568389E+03  0.82533329589E+02 0.  0.
          5    1    3    3  501    0 -0.23434883062E+03  0.10031007080E+03  0.50136278470E+03  0.56246619152E+03  0.47000000000E+01 0. -1.
        -11    1    4    4    0    0 -0.14434474174E+02  0.19535474533E+02  0.26013674404E+02  0.35590730056E+02  0.00000000000E+00 0.  1.
         12    1    4    4    0    0 -0.25450812038E+03 -0.29800372564E+02  0.35189741359E+03  0.43530935578E+03  0.00000000000E+00 0. -1.
         -5    1    5    5    0  502  0.26354964908E+03 -0.65697613605E+02  0.11988414034E+04  0.12292344749E+04  0.47000000000E+01 0.  1.
         11    1    6    6    0    0  0.10813206373E+03 -0.17220893792E+02  0.44178315623E+03  0.45514993081E+03  0.00000000000E+00 0. -1.
        -12    1    6    6    0    0  0.13160971236E+03 -0.71266653755E+01  0.26147496917E+03  0.29281575307E+03  0.00000000000E+00 0.  1.
<mgrwt>
<rscale>  2 0.54210080E+03</rscale>
<asrwt>0</asrwt>
<pdfrwt beam="1">  1       21 0.44553378E+00 0.54288426E+03</pdfrwt>
<pdfrwt beam="2">  1       21 0.17630236E-01 0.54288426E+03</pdfrwt>
<totfact> 0.91665356E+01</totfact>
</mgrwt>
</event>
<event>
12    1  0.1013215E-001  0.2794051E+03  0.7546771E-02  0.1096186E+00
         21   -1    0    0  503  502  0.00000000000E+00  0.00000000000E+00  0.31901995802E+03  0.31901995802E+03  0.00000000000E+00 0.  1.
         21   -1    0    0  501  503 -0.00000000000E+00 -0.00000000000E+00 -0.29553452263E+03  0.29553452263E+03  0.00000000000E+00 0.  1.
          6    2    1    2  501    0 -0.10326450708E+03  0.19198814939E+03 -0.11707227588E+03  0.30178671807E+03  0.17276081008E+03 0.  0.
         24    2    3    3    0    0 -0.53907494800E+01  0.30410838891E+02 -0.61728538825E+02  0.10488187068E+03  0.78967809838E+02 0.  0.
         -6    2    1    2    0  502  0.10326450708E+03 -0.19198814939E+03  0.14055771127E+03  0.31276776257E+03  0.17476897658E+03 0.  0.
        -24    2    5    5    0    0 -0.19817213137E+02 -0.61886286016E+02  0.25134649032E+02  0.99647660275E+02  0.71240938252E+02 0.  0.
          5    1    3    3  501    0 -0.97873757599E+02  0.16157731050E+03 -0.55343737053E+02  0.19690484739E+03  0.47000000000E+01 0. -1.
        -11    1    4    4    0    0 -0.25913676234E+02 -0.14646955024E+00  0.70646479373E+01  0.26859808633E+02  0.00000000000E+00 0.  1.
         12    1    4    4    0    0  0.20522926754E+02  0.30557308441E+02 -0.68793186762E+02  0.78022062051E+02  0.00000000000E+00 0. -1.
         -5    1    5    5    0  502  0.12308172022E+03 -0.13010186338E+03  0.11542306224E+03  0.21312010229E+03  0.47000000000E+01 0.  1.
         13    1    6    6    0    0 -0.24957626856E+02 -0.76402393504E+02  0.25248585277E+02  0.84247848222E+02  0.00000000000E+00 0. -1.
        -14    1    6    6    0    0  0.51404137185E+01  0.14516107489E+02 -0.11393624544E+00  0.15399812054E+02  0.00000000000E+00 0.  1.
<mgrwt>
<rscale>  2 0.27909163E+03</rscale>
<asrwt>0</asrwt>
<pdfrwt beam="1">  1       21 0.49079993E-01 0.27940509E+03</pdfrwt>
<pdfrwt beam="2">  1       21 0.45466850E-01 0.27940509E+03</pdfrwt>
<totfact> 0.17553853E+04</totfact>
</mgrwt>
</event>
<event>
11    1  0.1013215E-001  0.1820973E+03  0.7546771E-02  0.1166023E+00
         21   -1    0    0  503  502  0.00000000000E+00  0.00000000000E+00  0.18054988022E+04  0.18054988022E+04  0.00000000000E+00 0.  1.
         21   -1    0    0  501  503 -0.00000000000E+00 -0.00000000000E+00 -0.18266844851E+02  0.18266844851E+02  0.00000000000E+00 0. -1.
          6    2    1    2  501    0 -0.48786999911E+02 -0.23520656386E+02  0.89591318127E+03  0.91423183062E+03  0.17385631742E+03 0.  0.
         -6    2    1    2    0  502  0.48786999911E+02  0.23520656386E+02  0.89131877609E+03  0.90953381644E+03  0.17282711016E+03 0.  0.
        -24    2    4    4    0    0  0.23107607426E+01 -0.10381104916E+02  0.20422224592E+03  0.22001724521E+03  0.81164989427E+02 0.  0.
          5    1    3    3  501    0 -0.26501936898E+02  0.30836722171E+02  0.47127371081E+02  0.62420631194E+02  0.47000000000E+01 0. -1.
        -13    1    3    3    0    0 -0.28742793772E+02 -0.44971155296E+02  0.50022000124E+03  0.50305924367E+03  0.00000000000E+00 0.  1.
         14    1    3    3    0    0  0.64577307587E+01 -0.93862232607E+01  0.34856580895E+03  0.34875195575E+03  0.00000000000E+00 0. -1.
         -5    1    4    4    0  502  0.46476239169E+02  0.33901761301E+02  0.68709653017E+03  0.68951657123E+03  0.47000000000E+01 0.  1.
         13    1    5    5    0    0  0.25740286225E+02  0.27255526487E+02  0.96840891958E+02  0.10384403890E+03  0.00000000000E+00 0. -1.
        -14    1    5    5    0    0 -0.23429525482E+02 -0.37636631402E+02  0.10738135396E+03  0.11617320632E+03  0.00000000000E+00 0.  1.
<mgrwt>
<rscale>  2 0.18185117E+03</rscale>
<asrwt>0</asrwt>
<pdfrwt beam="1">  1       21 0.27776891E+00 0.18209726E+03</pdfrwt>
<pdfrwt beam="2">  1       21 0.28102853E-02 0.18209726E+03</pdfrwt>
<totfact> 0.32622404E+04</totfact>
</mgrwt>
</event>
<event>
12    1  0.1013215E-001  0.2578902E+03  0.7546771E-02  0.1108620E+00
         21   -1    0    0  501  502  0.00000000000E+00  0.00000000000E+00  0.11584819046E+03  0.11584819046E+03  0.00000000000E+00 0. -1.
         21   -1    0    0  502  503 -0.00000000000E+00 -0.00000000000E+00 -0.57220556646E+03  0.57220556646E+03  0.00000000000E+00 0. -1.
         -6    2    1    2    0  503  0.97602815087E+02 -0.16528292092E+03 -0.24250751084E+03  0.35303267097E+03  0.17022755505E+03 0.  0.
        -24    2    3    3    0    0  0.24148375547E+02 -0.16235289180E+03 -0.17206700337E+03  0.25111066720E+03  0.80671606032E+02 0.  0.
          6    2    1    2  501    0 -0.97602815087E+02  0.16528292092E+03 -0.21384986516E+03  0.33502108594E+03  0.17222836507E+03 0.  0.
         24    2    5    5    0    0  0.77377914289E+01  0.10944960994E+03 -0.10413179369E+03  0.17292806572E+03  0.83794957641E+02 0.  0.
          5    1    5    5  501    0 -0.10534060652E+03  0.55833310984E+02 -0.10971807147E+03  0.16209302022E+03  0.47000000000E+01 0. -1.
        -11    1    6    6    0    0  0.31650954881E+02  0.89660011284E+01 -0.38093518181E+02  0.50331781694E+02  0.00000000000E+00 0.  1.
         12    1    6    6    0    0 -0.23913163452E+02  0.10048360881E+03 -0.66038275509E+02  0.12259628403E+03  0.00000000000E+00 0. -1.
         -5    1    3    3    0  503  0.73454439541E+02 -0.29300291249E+01 -0.70440507472E+02  0.10192200377E+03  0.47000000000E+01 0.  1.
         11    1    4    4    0    0  0.26820964384E+02 -0.17106624935E+03 -0.15836274350E+03  0.23465247564E+03  0.00000000000E+00 0. -1.
        -12    1    4    4    0    0 -0.26725888370E+01  0.87133575527E+01 -0.13704259869E+02  0.16458191562E+02  0.00000000000E+00 0.  1.
<mgrwt>
<rscale>  2 0.25755660E+03</rscale>
<asrwt>0</asrwt>
<pdfrwt beam="1">  1       21 0.17822799E-01 0.25789022E+03</pdfrwt>
<pdfrwt beam="2">  1       21 0.88031625E-01 0.25789022E+03</pdfrwt>
<totfact> 0.30593608E+04</totfact>
</mgrwt>
</event>
<event>
12    1  0.1013215E-001  0.2236050E+03  0.7546771E-02  0.1131586E+00
         21   -1    0    0  501  502  0.00000000000E+00  0.00000000000E+00  0.38227480361E+03  0.38227480361E+03  0.00000000000E+00 0. -1.
         21   -1    0    0  502  503 -0.00000000000E+00 -0.00000000000E+00 -0.15244570898E+03  0.15244570898E+03  0.00000000000E+00 0.  1.
         -6    2    1    2    0  503 -0.23967187635E+02 -0.13802113573E+03  0.21788770637E+03  0.31079683294E+03  0.17174212874E+03 0.  0.
        -24    2    3    3    0    0  0.47824851592E+02 -0.10880234286E+03  0.15149701289E+03  0.20863202033E+03  0.80316926939E+02 0.  0.
          6    2    1    2  501    0  0.23967187635E+02  0.13802113573E+03  0.11941388265E+02  0.22392367966E+03  0.17428412884E+03 0.  0.
         24    2    5    5    0    0 -0.29555384307E+00  0.15443426836E+03 -0.26459815120E+02  0.17539725420E+03  0.78829210121E+02 0.  0.
          5    1    5    5  501    0  0.24262741479E+02 -0.16413132624E+02  0.38401203385E+02  0.48526425461E+02  0.47000000000E+01 0. -1.
        -11    1    6    6    0    0 -0.43525658391E+01 -0.65448214943E+01 -0.11148590848E+02  0.13640769614E+02  0.00000000000E+00 0.  1.
         12    1    6    6    0    0  0.40570119960E+01  0.16097908985E+03 -0.15311224272E+02  0.16175648458E+03  0.00000000000E+00 0. -1.
         -5    1    3    3    0  503 -0.71792039227E+02 -0.29218792871E+02  0.66390693482E+02  0.10216481260E+03  0.47000000000E+01 0.  1.
         13    1    4    4    0    0 -0.22527803253E+02 -0.22276036544E+02  0.28612604719E+02  0.42689634249E+02  0.00000000000E+00 0. -1.
        -14    1    4    4    0    0  0.70352654845E+02 -0.86526306317E+02  0.12288440817E+03  0.16594238608E+03  0.00000000000E+00 0.  1.
<mgrwt>
<rscale>  2 0.22310951E+03</rscale>
<asrwt>0</asrwt>
<pdfrwt beam="1">  1       21 0.58811508E-01 0.22360505E+03</pdfrwt>
<pdfrwt beam="2">  1       21 0.23453186E-01 0.22360505E+03</pdfrwt>
<totfact> 0.45575209E+04</totfact>
</mgrwt>
</event>
<event>
12    1  0.1013215E-001  0.1751719E+03  0.7546771E-02  0.1173024E+00
         21   -1    0    0  501  502  0.00000000000E+00  0.00000000000E+00  0.57123030074E+02  0.57123030074E+02  0.00000000000E+00 0. -1.
         21   -1    0    0  502  503 -0.00000000000E+00 -0.00000000000E+00 -0.76389771480E+03  0.76389771480E+03  0.00000000000E+00 0. -1.
         -6    2    1    2    0  503  0.25780578329E+02 -0.13039822390E+02 -0.57848999971E+03  0.60389829397E+03  0.17090288035E+03 0.  0.
        -24    2    3    3    0    0 -0.18549585884E+02  0.34579574386E+02 -0.46354065950E+03  0.47173093332E+03  0.78232322827E+02 0.  0.
          6    2    1    2  501    0 -0.25780578329E+02  0.13039822390E+02 -0.12828468502E+03  0.21712245090E+03  0.17277303924E+03 0.  0.
         24    2    5    5    0    0  0.33361781177E+02  0.27198178975E+02 -0.21167665806E+02  0.93856788393E+02  0.80673894594E+02 0.  0.
          5    1    5    5  501    0 -0.59142359506E+02 -0.14158356585E+02 -0.10711701921E+03  0.12326566251E+03  0.47000000000E+01 0. -1.
        -13    1    6    6    0    0  0.47830310884E+02  0.14700159666E+02 -0.42182539520E+02  0.65446160879E+02  0.00000000000E+00 0.  1.
         14    1    6    6    0    0 -0.14468529707E+02  0.12498019308E+02  0.21014873714E+02  0.28410627514E+02  0.00000000000E+00 0. -1.
         -5    1    3    3    0  503  0.44330164213E+02 -0.47619396775E+02 -0.11494934021E+03  0.13216736066E+03  0.47000000000E+01 0.  1.
         11    1    4    4    0    0 -0.46156564009E+02  0.34201613632E+02 -0.36081708380E+03  0.36536166566E+03  0.00000000000E+00 0. -1.
        -12    1    4    4    0    0  0.27606978125E+02  0.37796075407E+00 -0.10272357570E+03  0.10636926765E+03  0.00000000000E+00 0.  1.
<mgrwt>
<rscale>  2 0.17470901E+03</rscale>
<asrwt>0</asrwt>
<pdfrwt beam="1">  1       21 0.87881591E-02 0.17517191E+03</pdfrwt>
<pdfrwt beam="2">  1       21 0.11752272E+00 0.17517191E+03</pdfrwt>
<totfact> 0.57128083E+04</totfact>
</mgrwt>
</event>
<event>
12    1  0.1013215E-001  0.1731707E+03  0.7546771E-02  0.1175157E+00
         21   -1    0    0  503  502  0.00000000000E+00  0.00000000000E+00  0.34151958066E+03  0.34151958066E+03  0.00000000000E+00 0. -1.
         21   -1    0    0  501  503 -0.00000000000E+00 -0.00000000000E+00 -0.16472248003E+03  0.16472248003E+03  0.00000000000E+00 0. -1.
          6    2    1    2  501    0 -0.97939947171E+01 -0.97103752500E+01 -0.85532751158E+02  0.19314230093E+03  0.17262063366E+03 0.  0.
         24    2    3    3    0    0 -0.37162344787E+02 -0.13154132073E+02  0.13577901287E+02  0.90157362830E+02  0.79936972724E+02 0.  0.
         -6    2    1    2    0  502  0.97939947171E+01  0.97103752500E+01  0.26232985179E+03  0.31309975976E+03  0.17036518043E+03 0.  0.
        -24    2    5    5    0    0  0.73591229655E+01 -0.13273376337E+02  0.27464426072E+03  0.28649306690E+03  0.80115343251E+02 0.  0.
          5    1    3    3  501    0  0.27368350070E+02  0.34437568234E+01 -0.99110652445E+02  0.10298493810E+03  0.47000000000E+01 0. -1.
        -13    1    4    4    0    0 -0.53771148565E+02 -0.29827937737E+01 -0.14697706790E+02  0.55823436490E+02  0.00000000000E+00 0.  1.
         14    1    4    4    0    0  0.16608803777E+02 -0.10171338300E+02  0.28275608078E+02  0.34333926339E+02  0.00000000000E+00 0. -1.
         -5    1    5    5    0  502  0.24348717517E+01  0.22983751587E+02 -0.12314408936E+02  0.26606692859E+02  0.47000000000E+01 0.  1.
         11    1    6    6    0    0  0.33916358266E+02 -0.13462447561E+02  0.24041799761E+03  0.24317148358E+03  0.00000000000E+00 0. -1.
        -12    1    6    6    0    0 -0.26557235300E+02  0.18907122420E+00  0.34226263116E+02  0.43321583323E+02  0.00000000000E+00 0.  1.
<mgrwt>
<rscale>  2 0.17260591E+03</rscale>
<asrwt>0</asrwt>
<pdfrwt beam="1">  1       21 0.52541474E-01 0.17317072E+03</pdfrwt>
<pdfrwt beam="2">  1       21 0.25341920E-01 0.17317072E+03</pdfrwt>
<totfact> 0.51166395E+04</totfact>
</mgrwt>
</event>
<event>
12    1  0.1013215E-001  0.2717616E+03  0.7546771E-02  0.1100298E+00
         21   -1    0    0  503  502  0.00000000000E+00  0.00000000000E+00  0.15476670454E+03  0.15476670454E+03  0.00000000000E+00 0.  1.
         21   -1    0    0  501  503 -0.00000000000E+00 -0.00000000000E+00 -0.84242881114E+03  0.84242881114E+03  0.00000000000E+00 0.  1.
          6    2    1    2  501    0  0.19691823647E+03 -0.72546158910E+02 -0.67231083727E+03  0.72515945685E+03  0.17266916032E+03 0.  0.
         24    2    3    3    0    0  0.17193379055E+03 -0.93129053557E+02 -0.43030038905E+03  0.48094843102E+03  0.88987187486E+02 0.  0.
         -6    2    1    2    0  502 -0.19691823647E+03  0.72546158910E+02 -0.15351269334E+02  0.27203605883E+03  0.17241873102E+03 0.  0.
        -24    2    5    5    0    0 -0.11047116436E+03  0.87986038136E+02 -0.59122300294E+02  0.17380429564E+03  0.82262176792E+02 0.  0.
          5    1    3    3  501    0  0.24984445922E+02  0.20582894647E+02 -0.24201044822E+03  0.24421102583E+03  0.47000000000E+01 0. -1.
        -11    1    4    4    0    0  0.82577889432E+02 -0.45373956944E+00 -0.12736190312E+03  0.15179054012E+03  0.00000000000E+00 0.  1.
         12    1    4    4    0    0  0.89355901117E+02 -0.92675313988E+02 -0.30293848593E+03  0.32915789090E+03  0.00000000000E+00 0. -1.
         -5    1    5    5    0  502 -0.86447072114E+02 -0.15439879226E+02  0.43771030960E+02  0.98231763187E+02  0.47000000000E+01 0.  1.
         13    1    6    6    0    0 -0.10128605399E+03  0.10383772421E+03 -0.50946754601E+02  0.15374234780E+03  0.00000000000E+00 0. -1.
        -14    1    6    6    0    0 -0.91851103700E+01 -0.15851686077E+02 -0.81755456929E+01  0.20061947846E+02  0.00000000000E+00 0.  1.
<mgrwt>
<rscale>  2 0.27172185E+03</rscale>
<asrwt>0</asrwt>
<pdfrwt beam="1">  1       21 0.23810263E-01 0.27176162E+03</pdfrwt>
<pdfrwt beam="2">  1       21 0.12960443E+00 0.27176162E+03</pdfrwt>
<totfact> 0.68660361E+03</totfact>
</mgrwt>
</event>
<event>
12    1  0.1013215E-001  0.1839277E+03  0.7546771E-02  0.1164306E+00
         21   -1    0    0  501  502  0.00000000000E+00  0.00000000000E+00  0.29719597818E+02  0.29719597818E+02  0.00000000000E+00 0. -1.
         21   -1    0    0  502  503 -0.00000000000E+00 -0.00000000000E+00 -0.13265209617E+04  0.13265209617E+04  0.00000000000E+00 0. -1.
         -6    2    1    2    0  503  0.36821172260E+02  0.46386426539E+02 -0.90987408698E+03  0.92827810341E+03  0.17413180017E+03 0.  0.
        -24    2    3    3    0    0  0.40997565647E+02  0.22995601859E+02 -0.23248819554E+03  0.25045931578E+03  0.80433262429E+02 0.  0.
          6    2    1    2  501    0 -0.36821172260E+02 -0.46386426539E+02 -0.38692727695E+03  0.42796245615E+03  0.17300764992E+03 0.  0.
         24    2    5    5    0    0 -0.64775290509E+02 -0.85306484807E+02 -0.27470034704E+03  0.30584293495E+03  0.81280905385E+02 0.  0.
          5    1    5    5  501    0  0.27954118249E+02  0.38920058267E+02 -0.11222692990E+03  0.12211952120E+03  0.47000000000E+01 0. -1.
        -11    1    6    6    0    0 -0.42824582214E+02 -0.15878430835E+02 -0.18371776421E+03  0.18931002693E+03  0.00000000000E+00 0.  1.
         12    1    6    6    0    0 -0.21950708295E+02 -0.69428053972E+02 -0.90982582830E+02  0.11653290802E+03  0.00000000000E+00 0. -1.
         -5    1    3    3    0  503 -0.41763933868E+01  0.23390824680E+02 -0.67738589144E+03  0.67781878763E+03  0.47000000000E+01 0.  1.
         13    1    4    4    0    0 -0.79318631863E+01 -0.43267592126E+01 -0.15264242260E+03  0.15290959576E+03  0.00000000000E+00 0. -1.
        -14    1    4    4    0    0  0.48929428833E+02  0.27322361072E+02 -0.79845772939E+02  0.97549720023E+02  0.00000000000E+00 0.  1.
<mgrwt>
<rscale>  2 0.18366110E+03</rscale>
<asrwt>0</asrwt>
<pdfrwt beam="1">  1       21 0.45722448E-02 0.18392766E+03</pdfrwt>
<pdfrwt beam="2">  1       21 0.20408019E+00 0.18392766E+03</pdfrwt>
<totfact> 0.39809577E+04</totfact>
</mgrwt>
</event>
<event>
12    1  0.1013215E-001  0.1911365E+03  0.7546771E-02  0.1157505E+00
         21   -1    0    0  503  502  0.00000000000E+00  0.00000000000E+00  0.56572816424E+03  0.56572816424E+03  0.00000000000E+00 0.  1.
         21   -1    0    0  501  503 -0.00000000000E+00 -0.00000000000E+00 -0.15092551121E+03  0.15092551121E+03  0.00000000000E+00 0.  1.
          6    2    1    2  501    0  0.64344484872E+02  0.48386144445E+02 -0.63854097393E+02  0.20124565148E+03  0.17303477910E+03 0.  0.
         24    2    3    3    0    0  0.30442561981E+02  0.18013731613E+02  0.32841348911E+02  0.94269377600E+02  0.80974793906E+02 0.  0.
         -6    2    1    2    0  502 -0.64344484872E+02 -0.48386144445E+02  0.47865675042E+03  0.51540802397E+03  0.17335430410E+03 0.  0.
        -24    2    5    5    0    0  0.13037918766E+02 -0.65638509866E+02  0.34096701549E+03  0.35645446594E+03  0.79516535000E+02 0.  0.
          5    1    3    3  501    0  0.33901922891E+02  0.30372412832E+02 -0.96695446304E+02  0.10697627388E+03  0.47000000000E+01 0. -1.
        -11    1    4    4    0    0  0.54563829804E+02  0.21454849308E+02  0.37313459716E+02  0.69496880201E+02  0.00000000000E+00 0.  1.
         12    1    4    4    0    0 -0.24121267822E+02 -0.34411176948E+01 -0.44721108048E+01  0.24772497399E+02  0.00000000000E+00 0. -1.
         -5    1    5    5    0  502 -0.77382403638E+02  0.17252365422E+02  0.13768973493E+03  0.15895355803E+03  0.47000000000E+01 0.  1.
         13    1    6    6    0    0  0.24237728093E+02 -0.33736785920E+01  0.20539806212E+03  0.20685070243E+03  0.00000000000E+00 0. -1.
        -14    1    6    6    0    0 -0.11199809327E+02 -0.62264831274E+02  0.13556895336E+03  0.14960376352E+03  0.00000000000E+00 0.  1.
<mgrwt>
<rscale>  2 0.19106398E+03</rscale>
<asrwt>0</asrwt>
<pdfrwt beam="1">  1       21 0.87035101E-01 0.19113646E+03</pdfrwt>
<pdfrwt beam="2">  1       21 0.23219310E-01 0.19113646E+03</pdfrwt>
<totfact> 0.19804109E+04</totfact>
</mgrwt>
</event>
<event>
12    1  0.1013215E-001  0.3354757E+03  0.7546771E-02  0.1068797E+00
         21   -1    0    0  501  502  0.00000000000E+00  0.00000000000E+00  0.10361897825E+03  0.10361897825E+03  0.00000000000E+00 0. -1.
         21   -1    0    0  502  503 -0.00000000000E+00 -0.00000000000E+00 -0.14893660049E+04  0.14893660049E+04  0.00000000000E+00 0.  1.
         -6    2    1    2    0  503  0.12350495434E+03 -0.25943044469E+03 -0.11077911231E+04  0.11573206503E+04  0.17214030830E+03 0.  0.
        -24    2    3    3    0    0  0.63686265913E+02 -0.51473462196E+02 -0.46915424903E+03  0.48300356686E+03  0.80506387581E+02 0.  0.
          6    2    1    2  501    0 -0.12350495434E+03  0.25943044469E+03 -0.27795590351E+03  0.43566433284E+03  0.17316551975E+03 0.  0.
         24    2    5    5    0    0  0.31231589391E+01  0.14015933654E+03 -0.14334524632E+03  0.21565888895E+03  0.79413493801E+02 0.  0.
          5    1    5    5  501    0 -0.12662811328E+03  0.11927110815E+03 -0.13461065719E+03  0.22000544389E+03  0.47000000000E+01 0. -1.
        -11    1    6    6    0    0 -0.19680656791E+02  0.11239376079E+03 -0.69677091747E+02  0.13369585944E+03  0.00000000000E+00 0.  1.
         12    1    6    6    0    0  0.22803815730E+02  0.27765575755E+02 -0.73668154569E+02  0.81963029510E+02  0.00000000000E+00 0. -1.
         -5    1    3    3    0  503  0.59818688431E+02 -0.20795698250E+03 -0.63863687408E+03  0.67431708342E+03  0.47000000000E+01 0.  1.
         11    1    4    4    0    0  0.65116296828E+02 -0.31497947702E+02 -0.19276581520E+03  0.20589053483E+03  0.00000000000E+00 0. -1.
        -12    1    4    4    0    0 -0.14300309151E+01 -0.19975514494E+02 -0.27638843383E+03  0.27711303203E+03  0.00000000000E+00 0.  1.
<mgrwt>
<rscale>  2 0.33534358E+03</rscale>
<asrwt>0</asrwt>
<pdfrwt beam="1">  1       21 0.15941381E-01 0.33547567E+03</pdfrwt>
<pdfrwt beam="2">  1       21 0.22913324E+00 0.33547567E+03</pdfrwt>
<totfact> 0.27736058E+03</totfact>
</mgrwt>
</event>
<event>
12    1  0.1013215E-001  0.2581900E+03  0.7546771E-02  0.1108260E+00
         21   -1    0    0  503  502  0.00000000000E+00  0.00000000000E+00  0.17024989889E+04  0.17024989889E+04  0.00000000000E+00 0. -1.
         21   -1    0    0  501  503 -0.00000000000E+00 -0.00000000000E+00 -0.71891970347E+02  0.71891970347E+02  0.00000000000E+00 0.  1.
          6    2    1    2  501    0 -0.12875774969E+03 -0.14240525505E+03  0.21625655998E+03  0.33666730011E+03  0.17239534930E+03 0.  0.
         24    2    3    3    0    0 -0.15863804545E+03 -0.12413944940E+03  0.13973659641E+03  0.25238286171E+03  0.59951314821E+02 0.  0.
         -6    2    1    2    0  502  0.12875774969E+03  0.14240525505E+03  0.14143504586E+04  0.14377236592E+04  0.17263917752E+03 0.  0.
        -24    2    5    5    0    0  0.12585861051E+02  0.97070985771E+02  0.89853969179E+03  0.90703171384E+03  0.75840437806E+02 0.  0.
          5    1    3    3  501    0  0.29880295763E+02 -0.18265805647E+02  0.76519963570E+02  0.84284438395E+02  0.47000000000E+01 0. -1.
        -11    1    4    4    0    0 -0.79573664032E+02 -0.25927460795E+02  0.63376264877E+02  0.10497977034E+03  0.00000000000E+00 0.  1.
         12    1    4    4    0    0 -0.79064381419E+02 -0.98211988603E+02  0.76360331530E+02  0.14740309137E+03  0.00000000000E+00 0. -1.
         -5    1    5    5    0  502  0.11617188864E+03  0.45334269274E+02  0.51581076682E+03  0.53069194534E+03  0.47000000000E+01 0.  1.
         11    1    6    6    0    0 -0.13653288679E+02  0.26451433261E+02  0.53188412911E+03  0.53271645123E+03  0.00000000000E+00 0. -1.
        -12    1    6    6    0    0  0.26239149731E+02  0.70619552510E+02  0.36665556269E+03  0.37431526261E+03  0.00000000000E+00 0.  1.
<mgrwt>
<rscale>  2 0.25814929E+03</rscale>
<asrwt>0</asrwt>
<pdfrwt beam="1">  1       21 0.26192289E+00 0.25819005E+03</pdfrwt>
<pdfrwt beam="2">  1       21 0.11060304E-01 0.25819005E+03</pdfrwt>
<totfact> 0.36089061E+03</totfact>
</mgrwt>
</event>
<event>
12    1  0.1013215E-001  0.1801384E+03  0.7546771E-02  0.1168310E+00
         21   -1    0    0  501  502  0.00000000000E+00  0.00000000000E+00  0.88989370970E+02  0.88989370970E+02  0.00000000000E+00 0.  1.
         21   -1    0    0  502  503 -0.00000000000E+00 -0.00000000000E+00 -0.12283051328E+04  0.12283051328E+04  0.00000000000E+00 0.  1.
         -6    2    1    2    0  503 -0.41797569083E+02 -0.27112959559E+02 -0.11248686502E+04  0.11392011816E+04  0.17311182110E+03 0.  0.
        -24    2    3    3    0    0 -0.59378010934E+02 -0.68073838125E+02 -0.64768538515E+03  0.65991752451E+03  0.88515452912E+02 0.  0.
          6    2    1    2  501    0  0.41797569083E+02  0.27112959559E+02 -0.14447111599E+02  0.17809332214E+03  0.17037125050E+03 0.  0.
         24    2    5    5    0    0  0.91113226276E+01  0.48997585905E+02  0.46281305991E+02  0.10558567922E+03  0.80762594984E+02 0.  0.
          5    1    5    5  501    0  0.32686246456E+02 -0.21884626346E+02 -0.60728417589E+02  0.72507642912E+02  0.47000000000E+01 0. -1.
        -13    1    6    6    0    0  0.35616972437E+02  0.56967765462E+02  0.34135090584E+02  0.75359799871E+02  0.00000000000E+00 0.  1.
         14    1    6    6    0    0 -0.26505649810E+02 -0.79701795570E+01  0.12146215406E+02  0.30225879354E+02  0.00000000000E+00 0. -1.
         -5    1    3    3    0  503  0.17580441851E+02  0.40960878566E+02 -0.47718326506E+03  0.47928365710E+03  0.47000000000E+01 0.  1.
         13    1    4    4    0    0 -0.79650138366E+02 -0.34275872431E+02 -0.46728169092E+03  0.47525904372E+03  0.00000000000E+00 0. -1.
        -14    1    4    4    0    0  0.20272127432E+02 -0.33797965694E+02 -0.18040369423E+03  0.18465848079E+03  0.00000000000E+00 0.  1.
<mgrwt>
<rscale>  2 0.17947678E+03</rscale>
<asrwt>0</asrwt>
<pdfrwt beam="1">  1       21 0.13690672E-01 0.18013842E+03</pdfrwt>
<pdfrwt beam="2">  1       21 0.18897002E+00 0.18013842E+03</pdfrwt>
<totfact> 0.74158500E+03</totfact>
</mgrwt>
</event>
<event>
12    1  0.1013215E-001  0.1906708E+03  0.7546771E-02  0.1158510E+00
         21   -1    0    0  501  502  0.00000000000E+00  0.00000000000E+00  0.10518799820E+03  0.10518799820E+03  0.00000000000E+00 0. -1.
         21   -1    0    0  502  503 -0.00000000000E+00 -0.00000000000E+00 -0.56752484614E+03  0.56752484614E+03  0.00000000000E+00 0.  1.
         -6    2    1    2    0  503  0.72226265946E+02 -0.12786775245E+02 -0.44499546687E+03  0.48412429035E+03  0.17599780640E+03 0.  0.
        -24    2    3    3    0    0  0.17415887509E+01  0.44765420668E+02 -0.16017788152E+03  0.18508668084E+03  0.81198212289E+02 0.  0.
          6    2    1    2  501    0 -0.72226265946E+02  0.12786775245E+02 -0.17341381073E+02  0.18858855399E+03  0.17287216110E+03 0.  0.
         24    2    5    5    0    0 -0.86479742801E+02  0.58065176468E+02 -0.36519564005E+02  0.13717661063E+03  0.81445891946E+02 0.  0.
          5    1    5    5  501    0  0.14253476854E+02 -0.45278401223E+02  0.19178182932E+02  0.51411943363E+02  0.47000000000E+01 0. -1.
        -11    1    6    6    0    0 -0.44236382131E+02  0.35739957169E+01  0.19368329865E+02  0.48422754477E+02  0.00000000000E+00 0.  1.
         12    1    6    6    0    0 -0.42243360670E+02  0.54491180751E+02 -0.55887893870E+02  0.88753856150E+02  0.00000000000E+00 0. -1.
         -5    1    3    3    0  503  0.70484677196E+02 -0.57552195913E+02 -0.28481758535E+03  0.29903760950E+03  0.47000000000E+01 0.  1.
         13    1    4    4    0    0 -0.13707289348E+01  0.13443087818E+02 -0.15195382106E+03  0.15255346356E+03  0.00000000000E+00 0. -1.
        -14    1    4    4    0    0  0.31123176857E+01  0.31322332850E+02 -0.82240604548E+01  0.32533217285E+02  0.00000000000E+00 0.  1.
<mgrwt>
<rscale>  2 0.18994639E+03</rscale>
<asrwt>0</asrwt>
<pdfrwt beam="1">  1       21 0.16182769E-01 0.19067082E+03</pdfrwt>
<pdfrwt beam="2">  1       21 0.87311516E-01 0.19067082E+03</pdfrwt>
<totfact> 0.38519016E+04</totfact>
</mgrwt>
</event>
<event>
12    1  0.1013215E-001  0.1970141E+03  0.7546771E-02  0.1152951E+00
         21   -1    0    0  501  502  0.00000000000E+00  0.00000000000E+00  0.12016952197E+03  0.12016952197E+03  0.00000000000E+00 0.  1.
         21   -1    0    0  502  503 -0.00000000000E+00 -0.00000000000E+00 -0.54597443837E+03  0.54597443837E+03  0.00000000000E+00 0.  1.
         -6    2    1    2    0  503  0.34888258755E+02 -0.78369251318E+02 -0.42911429684E+03  0.47217965716E+03  0.17735731937E+03 0.  0.
        -24    2    3    3    0    0  0.57863231533E+02 -0.11686360863E+03 -0.35884441567E+03  0.38869546034E+03  0.72866931104E+02 0.  0.
          6    2    1    2  501    0 -0.34888258755E+02  0.78369251318E+02  0.33093804358E+01  0.19396430317E+03  0.17393179340E+03 0.  0.
         24    2    5    5    0    0 -0.67867543096E+02  0.28346344676E+02 -0.44440006577E+02  0.11720481943E+03  0.79702803282E+02 0.  0.
          5    1    5    5  501    0  0.32979284340E+02  0.50022906641E+02  0.47749387012E+02  0.76759483743E+02  0.47000000000E+01 0. -1.
        -13    1    6    6    0    0 -0.15563832685E+02  0.45413559295E+02 -0.25852963217E+01  0.48076064863E+02  0.00000000000E+00 0.  1.
         14    1    6    6    0    0 -0.52303710411E+02 -0.17067214618E+02 -0.41854710255E+02  0.69128754568E+02  0.00000000000E+00 0. -1.
         -5    1    3    3    0  503 -0.22974972778E+02  0.38494357310E+02 -0.70269881172E+02  0.83484196821E+02  0.47000000000E+01 0.  1.
         11    1    4    4    0    0  0.29536254091E+02 -0.93508721502E+00 -0.84519404563E+02  0.89536553661E+02  0.00000000000E+00 0. -1.
        -12    1    4    4    0    0  0.28326977442E+02 -0.11592852141E+03 -0.27432501110E+03  0.29915890668E+03  0.00000000000E+00 0.  1.
<mgrwt>
<rscale>  2 0.19624003E+03</rscale>
<asrwt>0</asrwt>
<pdfrwt beam="1">  1       21 0.18487619E-01 0.19701408E+03</pdfrwt>
<pdfrwt beam="2">  1       21 0.83996067E-01 0.19701408E+03</pdfrwt>
<totfact> 0.32820256E+04</totfact>
</mgrwt>
</event>
<event>
12    1  0.1013215E-001  0.2422676E+03  0.7546771E-02  0.1118305E+00
         21   -1    0    0  501  502  0.00000000000E+00  0.00000000000E+00  0.15019790009E+03  0.15019790009E+03  0.00000000000E+00 0. -1.
         21   -1    0    0  502  503 -0.00000000000E+00 -0.00000000000E+00 -0.10882396549E+04  0.10882396549E+04  0.00000000000E+00 0. -1.
         -6    2    1    2    0  503 -0.15873184371E+03 -0.59147712193E+02 -0.96482323654E+03  0.99477507267E+03  0.17320311020E+03 0.  0.
        -24    2    3    3    0    0 -0.14076266683E+03 -0.74083883062E+02 -0.52873376439E+03  0.55803476283E+03  0.80875539105E+02 0.  0.
          6    2    1    2  501    0  0.15873184371E+03  0.59147712193E+02  0.26781481712E+02  0.24366248234E+03  0.17308930490E+03 0.  0.
         24    2    5    5    0    0  0.15815770241E+03 -0.54698687118E+01  0.27915954185E+02  0.17886172286E+03  0.78539398469E+02 0.  0.
          5    1    5    5  501    0  0.57414129471E+00  0.64617580905E+02 -0.11344724730E+01  0.64800759471E+02  0.47000000000E+01 0. -1.
        -13    1    6    6    0    0  0.12320692952E+02 -0.96578682080E+01 -0.19908411511E+02  0.25326246110E+02  0.00000000000E+00 0.  1.
         14    1    6    6    0    0  0.14583700946E+03  0.41879994962E+01  0.47824365695E+02  0.15353547675E+03  0.00000000000E+00 0. -1.
         -5    1    3    3    0  503 -0.17969176879E+02  0.14936170869E+02 -0.43608947215E+03  0.43674030984E+03  0.47000000000E+01 0.  1.
         11    1    4    4    0    0 -0.27629022812E+02 -0.24875148064E+02 -0.42835937540E+02  0.56719074725E+02  0.00000000000E+00 0. -1.
        -12    1    4    4    0    0 -0.11313364402E+03 -0.49208734998E+02 -0.48589782685E+03  0.50131568811E+03  0.00000000000E+00 0.  1.
<mgrwt>
<rscale>  2 0.24224721E+03</rscale>
<asrwt>0</asrwt>
<pdfrwt beam="1">  1       21 0.23107369E-01 0.24226755E+03</pdfrwt>
<pdfrwt beam="2">  1       21 0.16742148E+00 0.24226755E+03</pdfrwt>
<totfact> 0.37577987E+03</totfact>
</mgrwt>
</event>
<event>
12    1  0.1013215E-001  0.1764266E+03  0.7546771E-02  0.1171509E+00
         21   -1    0    0  503  502  0.00000000000E+00  0.00000000000E+00  0.73535783068E+02  0.73535783068E+02  0.00000000000E+00 0. -1.
         21   -1    0    0  501  503 -0.00000000000E+00 -0.00000000000E+00 -0.10410303301E+04  0.10410303301E+04  0.00000000000E+00 0. -1.
          6    2    1    2  501    0 -0.18858041211E+02 -0.23365888658E+02 -0.91416348344E+03  0.93103233593E+03  0.17385265492E+03 0.  0.
         24    2    3    3    0    0  0.15835953815E+02  0.31777997105E+02 -0.22621897948E+03  0.23999380448E+03  0.71842751732E+02 0.  0.
         -6    2    1    2    0  502  0.18858041211E+02  0.23365888658E+02 -0.53331063572E+02  0.18353377722E+03  0.17302847906E+03 0.  0.
        -24    2    5    5    0    0  0.17983948978E+02  0.53341864477E+02  0.23106881950E+02  0.10128918664E+03  0.80974035405E+02 0.  0.
          5    1    3    3  501    0 -0.34693995026E+02 -0.55143885763E+02 -0.68794450396E+03  0.69103853145E+03  0.47000000000E+01 0. -1.
        -13    1    4    4    0    0 -0.23182863767E+02  0.14035618246E+02 -0.36314595943E+02  0.45312179715E+02  0.00000000000E+00 0.  1.
         14    1    4    4    0    0  0.39018817582E+02  0.17742378859E+02 -0.18990438354E+03  0.19468162476E+03  0.00000000000E+00 0. -1.
         -5    1    5    5    0  502  0.87409223264E+00 -0.29975975819E+02 -0.76437945522E+02  0.82244590577E+02  0.47000000000E+01 0.  1.
         11    1    6    6    0    0  0.38966343847E+02  0.44177224127E+02 -0.11279844974E+02  0.59976978809E+02  0.00000000000E+00 0. -1.
        -12    1    6    6    0    0 -0.20982394869E+02  0.91646403504E+01  0.34386726925E+02  0.41312207830E+02  0.00000000000E+00 0.  1.
<mgrwt>
<rscale>  2 0.17622320E+03</rscale>
<asrwt>0</asrwt>
<pdfrwt beam="1">  1       21 0.11313198E-01 0.17642657E+03</pdfrwt>
<pdfrwt beam="2">  1       21 0.16015850E+00 0.17642657E+03</pdfrwt>
<totfact> 0.16558461E+04</totfact>
</mgrwt>
</event>
<event>
12    1  0.1013215E-001  0.1863089E+03  0.7546771E-02  0.1162149E+00
         21   -1    0    0  501  502  0.00000000000E+00  0.00000000000E+00  0.15250379345E+03  0.15250379345E+03  0.00000000000E+00 0. -1.
         21   -1    0    0  502  503 -0.00000000000E+00 -0.00000000000E+00 -0.39101703251E+03  0.39101703251E+03  0.00000000000E+00 0.  1.
         -6    2    1    2    0  503 -0.57217770608E+02 -0.35460612937E+02 -0.29557477012E+03  0.34866954359E+03  0.17226339587E+03 0.  0.
        -24    2    3    3    0    0  0.18372100789E+02 -0.21075980188E+02 -0.23733317937E+03  0.25205215795E+03  0.80134395018E+02 0.  0.
          6    2    1    2  501    0  0.57217770608E+02  0.35460612937E+02  0.57061531052E+02  0.19485128236E+03  0.17372298515E+03 0.  0.
         24    2    5    5    0    0  0.69115704647E+02  0.40503432403E+02 -0.21324970501E+02  0.11526783881E+03  0.80090022047E+02 0.  0.
          5    1    5    5  501    0 -0.11897934040E+02 -0.50428194652E+01  0.78386501553E+02  0.79583443556E+02  0.47000000000E+01 0. -1.
        -11    1    6    6    0    0  0.29736473053E+02 -0.45601928544E+01 -0.42253037422E+02  0.51868799484E+02  0.00000000000E+00 0.  1.
         12    1    6    6    0    0  0.39379231594E+02  0.45063625257E+02  0.20928066921E+02  0.63399039325E+02  0.00000000000E+00 0. -1.
         -5    1    3    3    0  503 -0.75589871397E+02 -0.14384632749E+02 -0.58241590743E+02  0.96617385648E+02  0.47000000000E+01 0.  1.
         13    1    4    4    0    0  0.28117624391E+02  0.50129662747E+01 -0.25170648662E+02  0.38069570346E+02  0.00000000000E+00 0. -1.
        -14    1    4    4    0    0 -0.97455236014E+01 -0.26088946463E+02 -0.21216253071E+03  0.21398258760E+03  0.00000000000E+00 0.  1.
<mgrwt>
<rscale>  2 0.18596790E+03</rscale>
<asrwt>0</asrwt>
<pdfrwt beam="1">  1       21 0.23462122E-01 0.18630889E+03</pdfrwt>
<pdfrwt beam="2">  1       21 0.60156466E-01 0.18630889E+03</pdfrwt>
<totfact> 0.44177872E+04</totfact>
</mgrwt>
</event>
<event>
12    1  0.1013215E-001  0.1743879E+03  0.7546771E-02  0.1173860E+00
         21   -1    0    0  503  502  0.00000000000E+00  0.00000000000E+00  0.55517897641E+03  0.55517897641E+03  0.00000000000E+00 0.  1.
         21   -1    0    0  501  503 -0.00000000000E+00 -0.00000000000E+00 -0.59134936574E+02  0.59134936574E+02  0.00000000000E+00 0.  1.
          6    2    1    2  501    0  0.11224567937E+02  0.79246204260E+01  0.33592616403E+03  0.37756745001E+03  0.17181967609E+03 0.  0.
         24    2    3    3    0    0  0.19092420111E+02 -0.57914891765E+02  0.20937457452E+03  0.23461942004E+03  0.86544235008E+02 0.  0.
         -6    2    1    2    0  502 -0.11224567937E+02 -0.79246204260E+01  0.16011787581E+03  0.23674646298E+03  0.17384580249E+03 0.  0.
        -24    2    5    5    0    0 -0.70399386538E+02  0.10475837938E+02  0.67407960155E+02  0.12513349561E+03  0.77773657655E+02 0.  0.
          5    1    3    3  501    0 -0.78678521740E+01  0.65839512191E+02  0.12655158951E+03  0.14294802997E+03  0.47000000000E+01 0. -1.
        -13    1    4    4    0    0 -0.29080731322E+02 -0.22092982473E+02  0.36565665063E+02  0.51680138063E+02  0.00000000000E+00 0.  1.
         14    1    4    4    0    0  0.48173151432E+02 -0.35821909292E+02  0.17280890946E+03  0.18293928198E+03  0.00000000000E+00 0. -1.
         -5    1    5    5    0  502  0.59174818601E+02 -0.18400458364E+02  0.92709915654E+02  0.11161296737E+03  0.47000000000E+01 0.  1.
         11    1    6    6    0    0 -0.43705279541E+01 -0.27827584503E+02  0.25786262259E+02  0.38189099166E+02  0.00000000000E+00 0. -1.
        -12    1    6    6    0    0 -0.66028858584E+02  0.38303422441E+02  0.41621697896E+02  0.86944396440E+02  0.00000000000E+00 0.  1.
<mgrwt>
<rscale>  2 0.17388079E+03</rscale>
<asrwt>0</asrwt>
<pdfrwt beam="1">  1       21 0.85412147E-01 0.17438794E+03</pdfrwt>
<pdfrwt beam="2">  1       21 0.90976829E-02 0.17438794E+03</pdfrwt>
<totfact> 0.11438932E+05</totfact>
</mgrwt>
</event>
<event>
12    1  0.1013215E-001  0.1932294E+03  0.7546771E-02  0.1156471E+00
         21   -1    0    0  503  502  0.00000000000E+00  0.00000000000E+00  0.13888984590E+03  0.13888984590E+03  0.00000000000E+00 0. -1.
         21   -1    0    0  501  503 -0.00000000000E+00 -0.00000000000E+00 -0.42702145800E+03  0.42702145800E+03  0.00000000000E+00 0.  1.
          6    2    1    2  501    0  0.93999650242E+01 -0.79106121636E+02 -0.31833653696E+03  0.37033542589E+03  0.17165092218E+03 0.  0.
         24    2    3    3    0    0 -0.24354767144E+02 -0.63437258751E+01 -0.70665701283E+02  0.10995746787E+03  0.80396553794E+02 0.  0.
         -6    2    1    2    0  502 -0.93999650242E+01  0.79106121636E+02  0.30204924850E+02  0.19557587801E+03  0.17604388303E+03 0.  0.
        -24    2    5    5    0    0  0.61007485140E+02  0.58172505158E+02  0.33335049818E+02  0.12190557857E+03  0.81509453073E+02 0.  0.
          5    1    3    3  501    0  0.33754732169E+02 -0.72762395760E+02 -0.24767083567E+03  0.26037795802E+03  0.47000000000E+01 0. -1.
        -11    1    4    4    0    0 -0.18019924670E+02  0.51398008388E+01 -0.87008257426E+02  0.89003213976E+02  0.00000000000E+00 0.  1.
         12    1    4    4    0    0 -0.63348424746E+01 -0.11483526714E+02  0.16342556143E+02  0.20954253894E+02  0.00000000000E+00 0. -1.
         -5    1    5    5    0  502 -0.70407450164E+02  0.20933616478E+02 -0.31301249674E+01  0.73670299441E+02  0.47000000000E+01 0.  1.
         11    1    6    6    0    0  0.42648931939E+02  0.26224036294E+02  0.58715352744E+02  0.77162971190E+02  0.00000000000E+00 0. -1.
        -12    1    6    6    0    0  0.18358553201E+02  0.31948468864E+02 -0.25380302926E+02  0.44742607378E+02  0.00000000000E+00 0.  1.
<mgrwt>
<rscale>  2 0.19222313E+03</rscale>
<asrwt>0</asrwt>
<pdfrwt beam="1">  1       21 0.21367669E-01 0.19322936E+03</pdfrwt>
<pdfrwt beam="2">  1       21 0.65695608E-01 0.19322936E+03</pdfrwt>
<totfact> 0.43416699E+04</totfact>
</mgrwt>
</event>
<event>
12    1  0.1013215E-001  0.2363030E+03  0.7546771E-02  0.1123049E+00
         21   -1    0    0  501  502  0.00000000000E+00  0.00000000000E+00  0.18008868851E+03  0.18008868851E+03  0.00000000000E+00 0. -1.
         21   -1    0    0  502  503 -0.00000000000E+00 -0.00000000000E+00 -0.81134228335E+03  0.81134228335E+03  0.00000000000E+00 0. -1.
         -6    2    1    2    0  503  0.78386677808E+02  0.13964818786E+03 -0.70639937525E+03  0.74346726128E+03  0.16762280159E+03 0.  0.
        -24    2    3    3    0    0 -0.27097020664E+02  0.60212001953E+02 -0.26704535206E+03  0.28467431673E+03  0.73256486693E+02 0.  0.
          6    2    1    2  501    0 -0.78386677808E+02 -0.13964818786E+03  0.75145780412E+02  0.24796371058E+03  0.17376140487E+03 0.  0.
         24    2    5    5    0    0 -0.73673106448E+02 -0.11046185358E+03  0.11662972373E+03  0.19680642941E+03  0.86606757762E+02 0.  0.
          5    1    5    5  501    0 -0.47135713596E+01 -0.29186334284E+02 -0.41483943319E+02  0.51157281175E+02  0.47000000000E+01 0. -1.
        -11    1    6    6    0    0 -0.69002336755E+02 -0.58343712580E+02  0.29288948211E+02  0.94990282464E+02  0.00000000000E+00 0.  1.
         12    1    6    6    0    0 -0.46707696935E+01 -0.52118140995E+02  0.87340775520E+02  0.10181614695E+03  0.00000000000E+00 0. -1.
         -5    1    3    3    0  503  0.10548369847E+03  0.79436185907E+02 -0.43935402319E+03  0.45879294454E+03  0.47000000000E+01 0.  1.
         11    1    4    4    0    0 -0.18650807636E+02 -0.69423693054E+00 -0.11695563171E+02  0.22025457731E+02  0.00000000000E+00 0. -1.
        -12    1    4    4    0    0 -0.84462130278E+01  0.60906238883E+02 -0.25534978889E+03  0.26264885900E+03  0.00000000000E+00 0.  1.
<mgrwt>
<rscale>  2 0.23517583E+03</rscale>
<asrwt>0</asrwt>
<pdfrwt beam="1">  1       21 0.27705952E-01 0.23630301E+03</pdfrwt>
<pdfrwt beam="2">  1       21 0.12482189E+00 0.23630301E+03</pdfrwt>
<totfact> 0.57637537E+03</totfact>
</mgrwt>
</event>
<event>
12    1  0.1013215E-001  0.1809256E+03  0.7546771E-02  0.1168164E+00
         21   -1    0    0  503  502  0.00000000000E+00  0.00000000000E+00  0.18244291762E+03  0.18244291762E+03  0.00000000000E+00 0.  1.
         21   -1    0    0  501  503 -0.00000000000E+00 -0.00000000000E+00 -0.19807710692E+03  0.19807710692E+03  0.00000000000E+00 0.  1.
          6    2    1    2  501    0  0.17875235183E+02 -0.51563800180E+02 -0.73543521472E+02  0.19055271592E+03  0.16710277817E+03 0.  0.
         24    2    3    3    0    0  0.29869177417E+02 -0.10537922016E+02  0.17171922431E+02  0.90161684988E+02  0.82650099575E+02 0.  0.
         -6    2    1    2    0  502 -0.17875235183E+02  0.51563800180E+02  0.57909332164E+02  0.18996730862E+03  0.17249851614E+03 0.  0.
        -24    2    5    5    0    0  0.28947609500E+02  0.86384354927E+02  0.24130212684E+02  0.12238055896E+03  0.78067363053E+02 0.  0.
          5    1    3    3  501    0 -0.11993942234E+02 -0.41025878165E+02 -0.90715443903E+02  0.10039103093E+03  0.47000000000E+01 0. -1.
        -11    1    4    4    0    0 -0.25613319321E+02  0.28782831902E+01 -0.90875682187E+01  0.27329664046E+02  0.00000000000E+00 0.  1.
         12    1    4    4    0    0  0.55482496738E+02 -0.13416205206E+02  0.26259490650E+02  0.62832020942E+02  0.00000000000E+00 0. -1.
         -5    1    5    5    0  502 -0.46822844683E+02 -0.34820554747E+02  0.33779119481E+02  0.67586749663E+02  0.47000000000E+01 0.  1.
         11    1    6    6    0    0  0.80565549768E+01  0.80032193023E+02 -0.10829098691E+02  0.81162364287E+02  0.00000000000E+00 0. -1.
        -12    1    6    6    0    0  0.20891054524E+02  0.63521619042E+01  0.34959311374E+02  0.41218194668E+02  0.00000000000E+00 0.  1.
<mgrwt>
<rscale>  2 0.17962752E+03</rscale>
<asrwt>0</asrwt>
<pdfrwt beam="1">  1       21 0.28068141E-01 0.18092564E+03</pdfrwt>
<pdfrwt beam="2">  1       21 0.30473401E-01 0.18092564E+03</pdfrwt>
<totfact> 0.12584017E+05</totfact>
</mgrwt>
</event>
<event>
12    1  0.1013215E-001  0.1831843E+03  0.7546771E-02  0.1167863E+00
         21   -1    0    0  503  502  0.00000000000E+00  0.00000000000E+00  0.35092860634E+03  0.35092860634E+03  0.00000000000E+00 0. -1.
         21   -1    0    0  501  503 -0.00000000000E+00 -0.00000000000E+00 -0.15036538067E+03  0.15036538067E+03  0.00000000000E+00 0. -1.
          6    2    1    2  501    0 -0.14025690169E+02 -0.43306829295E+02 -0.57477607536E+02  0.19198998186E+03  0.17743809151E+03 0.  0.
         24    2    3    3    0    0 -0.67802637963E+02  0.58499321021E+01 -0.53965948774E+02  0.11889573412E+03  0.81193919387E+02 0.  0.
         -6    2    1    2    0  502  0.14025690169E+02  0.43306829295E+02  0.25804083321E+03  0.30930400515E+03  0.16435234879E+03 0.  0.
        -24    2    5    5    0    0 -0.45909844605E+02  0.10008494380E+02  0.19459134183E+03  0.21576804740E+03  0.80511962909E+02 0.  0.
          5    1    3    3  501    0  0.53776947795E+02 -0.49156761397E+02 -0.35116587620E+01  0.73094247738E+02  0.47000000000E+01 0. -1.
        -13    1    4    4    0    0 -0.80047648689E+02  0.16632508084E+02 -0.24730799816E+02  0.85415916815E+02  0.00000000000E+00 0.  1.
         14    1    4    4    0    0  0.12245010725E+02 -0.10782575982E+02 -0.29235148958E+02  0.33479817309E+02  0.00000000000E+00 0. -1.
         -5    1    5    5    0  502  0.59935534774E+02  0.33298334914E+02  0.63449491381E+02  0.93535957755E+02  0.47000000000E+01 0.  1.
         13    1    6    6    0    0  0.87697621726E+01  0.43333944673E+01  0.13240882273E+03  0.13276966284E+03  0.00000000000E+00 0. -1.
        -14    1    6    6    0    0 -0.54679606778E+02  0.56750999131E+01  0.62182519104E+02  0.82998384554E+02  0.00000000000E+00 0.  1.
<mgrwt>
<rscale>  2 0.17993793E+03</rscale>
<asrwt>0</asrwt>
<pdfrwt beam="1">  1       21 0.53989016E-01 0.18318427E+03</pdfrwt>
<pdfrwt beam="2">  1       21 0.23133135E-01 0.18318427E+03</pdfrwt>
<totfact> 0.57192009E+04</totfact>
</mgrwt>
</event>
<event>
12    1  0.1013215E-001  0.1806918E+03  0.7546771E-02  0.1167935E+00
         21   -1    0    0  503  502  0.00000000000E+00  0.00000000000E+00  0.82617662277E+03  0.82617662277E+03  0.00000000000E+00 0.  1.
         21   -1    0    0  501  503 -0.00000000000E+00 -0.00000000000E+00 -0.38845484819E+02  0.38845484819E+02  0.00000000000E+00 0.  1.
          6    2    1    2  501    0  0.18572696638E+02  0.33815391041E+02  0.37566133061E+03  0.41544279895E+03  0.17315558943E+03 0.  0.
         24    2    3    3    0    0  0.43682308442E+02  0.61927165449E+02  0.35459901552E+03  0.37200922228E+03  0.83110058118E+02 0.  0.
         -6    2    1    2    0  502 -0.18572696638E+02 -0.33815391041E+02  0.41166980734E+03  0.44957930864E+03  0.17652506551E+03 0.  0.
        -24    2    5    5    0    0 -0.21521444736E+02 -0.91332142301E+02  0.28725868808E+03  0.31240391586E+03  0.79208080162E+02 0.  0.
          5    1    3    3  501    0 -0.25109611804E+02 -0.28111774408E+02  0.21062315090E+02  0.43433576669E+02  0.47000000000E+01 0. -1.
        -11    1    4    4    0    0  0.51036143210E+02  0.14000240938E+02  0.26398892433E+03  0.26924124280E+03  0.00000000000E+00 0.  1.
         12    1    4    4    0    0 -0.73538347675E+01  0.47926924511E+02  0.90610091198E+02  0.10276797948E+03  0.00000000000E+00 0. -1.
         -5    1    5    5    0  502  0.29487480979E+01  0.57516751260E+02  0.12441111926E+03  0.13717539279E+03  0.47000000000E+01 0.  1.
         11    1    6    6    0    0  0.12470979254E+02 -0.34062974727E+01  0.11765461227E+03  0.11836273051E+03  0.00000000000E+00 0. -1.
        -12    1    6    6    0    0 -0.33992423990E+02 -0.87925844828E+02  0.16960407581E+03  0.19404118534E+03  0.00000000000E+00 0.  1.
<mgrwt>
<rscale>  2 0.17986354E+03</rscale>
<asrwt>0</asrwt>
<pdfrwt beam="1">  1       21 0.12710408E+00 0.18069179E+03</pdfrwt>
<pdfrwt beam="2">  1       21 0.59762291E-02 0.18069179E+03</pdfrwt>
<totfact> 0.91312460E+04</totfact>
</mgrwt>
</event>
<event>
12    1  0.1013215E-001  0.1858924E+03  0.7546771E-02  0.1162559E+00
         21   -1    0    0  501  502  0.00000000000E+00  0.00000000000E+00  0.32867661546E+02  0.32867661546E+02  0.00000000000E+00 0.  1.
         21   -1    0    0  502  503 -0.00000000000E+00 -0.00000000000E+00 -0.14091504896E+04  0.14091504896E+04  0.00000000000E+00 0.  1.
         -6    2    1    2    0  503  0.39848296171E+02  0.51999306641E+02 -0.10576070234E+04  0.10738196320E+04  0.17396600703E+03 0.  0.
        -24    2    3    3    0    0 -0.29533788217E+02  0.70769607972E+02 -0.61932538590E+03  0.62965853332E+03  0.83817378264E+02 0.  0.
          6    2    1    2  501    0 -0.39848296171E+02 -0.51999306641E+02 -0.31867580473E+03  0.36819851919E+03  0.17240668900E+03 0.  0.
         24    2    5    5    0    0 -0.14817098789E+02 -0.99876583686E+02 -0.20013934320E+03  0.23784600785E+03  0.79498983438E+02 0.  0.
          5    1    5    5  501    0 -0.25031197382E+02  0.47877277045E+02 -0.11853646154E+03  0.13035251134E+03  0.47000000000E+01 0. -1.
        -11    1    6    6    0    0  0.24812213292E+02 -0.32737124440E+02 -0.30543016606E+02  0.51188290735E+02  0.00000000000E+00 0.  1.
         12    1    6    6    0    0 -0.39629312081E+02 -0.67139459247E+02 -0.16959632659E+03  0.18665771711E+03  0.00000000000E+00 0. -1.
         -5    1    3    3    0  503  0.69382084388E+02 -0.18770301330E+02 -0.43828163745E+03  0.44416109867E+03  0.47000000000E+01 0.  1.
         11    1    4    4    0    0  0.28554790162E+02  0.16513525551E+02 -0.14371884793E+03  0.14745568764E+03  0.00000000000E+00 0. -1.
        -12    1    4    4    0    0 -0.58088578379E+02  0.54256082420E+02 -0.47560653798E+03  0.48220284568E+03  0.00000000000E+00 0.  1.
<mgrwt>
<rscale>  2 0.18552671E+03</rscale>
<asrwt>0</asrwt>
<pdfrwt beam="1">  1       21 0.50565626E-02 0.18589240E+03</pdfrwt>
<pdfrwt beam="2">  1       21 0.21679241E+00 0.18589240E+03</pdfrwt>
<totfact> 0.27926997E+04</totfact>
</mgrwt>
</event>
<event>
12    1  0.1013215E-001  0.2312517E+03  0.7546771E-02  0.1126183E+00
         21   -1    0    0  503  502  0.00000000000E+00  0.00000000000E+00  0.40515049670E+02  0.40515049670E+02  0.00000000000E+00 0. -1.
         21   -1    0    0  501  503 -0.00000000000E+00 -0.00000000000E+00 -0.13292458277E+04  0.13292458277E+04  0.00000000000E+00 0.  1.
          6    2    1    2  501    0 -0.63732436489E+02 -0.13720367415E+03 -0.73769409830E+03  0.77309113863E+03  0.17490184191E+03 0.  0.
         24    2    3    3    0    0 -0.27847289281E+02 -0.70159602262E+02 -0.63941171851E+03  0.64873613253E+03  0.79456796899E+02 0.  0.
         -6    2    1    2    0  502  0.63732436489E+02  0.13720367415E+03 -0.55103667977E+03  0.59666973877E+03  0.17171686888E+03 0.  0.
        -24    2    5    5    0    0  0.17999179309E+02  0.11824442837E+03 -0.51640093922E+03  0.53606686478E+03  0.79950223236E+02 0.  0.
          5    1    3    3  501    0 -0.35885147208E+02 -0.67044071887E+02 -0.98282379788E+02  0.12435500610E+03  0.47000000000E+01 0. -1.
        -13    1    4    4    0    0  0.12297740421E+02  0.23670972836E+01 -0.26329248681E+03  0.26359015759E+03  0.00000000000E+00 0.  1.
         14    1    4    4    0    0 -0.40145029702E+02 -0.72526699546E+02 -0.37611923170E+03  0.38514597494E+03  0.00000000000E+00 0. -1.
         -5    1    5    5    0  502  0.45733257180E+02  0.18959245773E+02 -0.34635740549E+02  0.60602873991E+02  0.47000000000E+01 0.  1.
         11    1    6    6    0    0  0.64372021186E+01  0.53887560183E+02 -0.93242698397E+02  0.10788654929E+03  0.00000000000E+00 0. -1.
        -12    1    6    6    0    0  0.11561977191E+02  0.64356868192E+02 -0.42315824082E+03  0.42818031549E+03  0.00000000000E+00 0.  1.
<mgrwt>
<rscale>  2 0.23064945E+03</rscale>
<asrwt>0</asrwt>
<pdfrwt beam="1">  1       21 0.62330847E-02 0.23125165E+03</pdfrwt>
<pdfrwt beam="2">  1       21 0.20449935E+00 0.23125165E+03</pdfrwt>
<totfact> 0.22584045E+04</totfact>
</mgrwt>
</event>
<event>
12    1  0.1013215E-001  0.2208614E+03  0.7546771E-02  0.1133301E+00
         21   -1    0    0  503  502  0.00000000000E+00  0.00000000000E+00  0.13485143955E+03  0.13485143955E+03  0.00000000000E+00 0.  1.
         21   -1    0    0  501  503 -0.00000000000E+00 -0.00000000000E+00 -0.37951800454E+03  0.37951800454E+03  0.00000000000E+00 0.  1.
          6    2    1    2  501    0 -0.12943708820E+03  0.48186000619E+02 -0.65928229749E+02  0.23049143990E+03  0.17234825770E+03 0.  0.
         24    2    3    3    0    0 -0.31094960488E+02  0.18791453164E+02  0.26442716169E+02  0.92325976948E+02  0.80652672003E+02 0.  0.
         -6    2    1    2    0  502  0.12943708820E+03 -0.48186000619E+02 -0.17873833524E+03  0.28387800418E+03  0.17194033359E+03 0.  0.
        -24    2    5    5    0    0  0.19130259440E+02 -0.58417925800E+02 -0.12507513632E+03  0.16069473550E+03  0.80002421274E+02 0.  0.
          5    1    3    3  501    0 -0.98342127717E+02  0.29394547454E+02 -0.92370945918E+02  0.13816546296E+03  0.47000000000E+01 0. -1.
        -11    1    4    4    0    0 -0.37953458396E+02  0.34396369112E+02 -0.99142383773E+01  0.52171518426E+02  0.00000000000E+00 0.  1.
         12    1    4    4    0    0  0.68584979077E+01 -0.15604915948E+02  0.36356954547E+02  0.40154458522E+02  0.00000000000E+00 0. -1.
         -5    1    5    5    0  502  0.11030682876E+03  0.10231925181E+02 -0.53663198916E+02  0.12318326868E+03  0.47000000000E+01 0.  1.
         13    1    6    6    0    0 -0.99229711971E-01  0.16649651569E+02 -0.42984121498E+01  0.17195845164E+02  0.00000000000E+00 0. -1.
        -14    1    6    6    0    0  0.19229489152E+02 -0.75067577369E+02 -0.12077672417E+03  0.14349889034E+03  0.00000000000E+00 0.  1.
<mgrwt>
<rscale>  2 0.22078185E+03</rscale>
<asrwt>0</asrwt>
<pdfrwt beam="1">  1       21 0.20746376E-01 0.22086143E+03</pdfrwt>
<pdfrwt beam="2">  1       21 0.58387384E-01 0.22086143E+03</pdfrwt>
<totfact> 0.58447266E+04</totfact>
</mgrwt>
</event>
<event>
12    1  0.1013215E-001  0.1832325E+03  0.7546771E-02  0.1166611E+00
         21   -1    0    0  503  502  0.00000000000E+00  0.00000000000E+00  0.15482844466E+04  0.15482844466E+04  0.00000000000E+00 0.  1.
         21   -1    0    0  501  503 -0.00000000000E+00 -0.00000000000E+00 -0.37851278829E+02  0.37851278829E+02  0.00000000000E+00 0.  1.
          6    2    1    2  501    0  0.13095923059E+01  0.59611716511E+02  0.23152889306E+03  0.29526223607E+03  0.17325959700E+03 0.  0.
         24    2    3    3    0    0 -0.32570012798E+02  0.54073000426E+02  0.23853085626E+03  0.25991223598E+03  0.81686632428E+02 0.  0.
         -6    2    1    2    0  502 -0.13095923059E+01 -0.59611716511E+02  0.12789042747E+04  0.12908734893E+04  0.16493316787E+03 0.  0.
        -24    2    5    5    0    0  0.35175443621E+01 -0.23788284866E+02  0.31039144144E+03  0.32167494534E+03  0.80954727634E+02 0.  0.
          5    1    3    3  501    0  0.33879605104E+02  0.55387160852E+01 -0.70019631995E+01  0.35350000092E+02  0.47000000000E+01 0. -1.
        -13    1    4    4    0    0 -0.77917225140E+01  0.50558296105E+02  0.56694505308E+02  0.76361765150E+02  0.00000000000E+00 0.  1.
         14    1    4    4    0    0 -0.24778290284E+02  0.35147043213E+01  0.18183635095E+03  0.18355047083E+03  0.00000000000E+00 0. -1.
         -5    1    5    5    0  502 -0.48271366680E+01 -0.35823431645E+02  0.96851283325E+03  0.96919854399E+03  0.47000000000E+01 0.  1.
         11    1    6    6    0    0  0.36367204257E+02  0.71255602973E+01  0.17778357393E+03  0.18160491820E+03  0.00000000000E+00 0. -1.
        -12    1    6    6    0    0 -0.32849659895E+02 -0.30913845163E+02  0.13260786751E+03  0.14007002714E+03  0.00000000000E+00 0.  1.
<mgrwt>
<rscale>  2 0.18123709E+03</rscale>
<asrwt>0</asrwt>
<pdfrwt beam="1">  1       21 0.23819756E+00 0.18323253E+03</pdfrwt>
<pdfrwt beam="2">  1       21 0.58232749E-02 0.18323253E+03</pdfrwt>
<totfact> 0.16341578E+04</totfact>
</mgrwt>
</event>
<event>
12    1  0.1013215E-001  0.2196522E+03  0.7546771E-02  0.1134336E+00
         21   -1    0    0  503  502  0.00000000000E+00  0.00000000000E+00  0.39069465480E+03  0.39069465480E+03  0.00000000000E+00 0. -1.
         21   -1    0    0  501  503 -0.00000000000E+00 -0.00000000000E+00 -0.24304710727E+03  0.24304710727E+03  0.00000000000E+00 0. -1.
          6    2    1    2  501    0 -0.11305633555E+03  0.75692808854E+02 -0.14904343598E+03  0.26459050681E+03  0.17112292121E+03 0.  0.
         24    2    3    3    0    0 -0.10306891784E+03  0.72394097715E+01 -0.42144184106E+02  0.13717325362E+03  0.79779435792E+02 0.  0.
         -6    2    1    2    0  502  0.11305633555E+03 -0.75692808854E+02  0.29669098351E+03  0.36915125526E+03  0.17244121677E+03 0.  0.
        -24    2    5    5    0    0  0.60274595290E+02 -0.95992423749E+02  0.27236392360E+03  0.30741081216E+03  0.86439159538E+02 0.  0.
          5    1    3    3  501    0 -0.99874177058E+01  0.68453399083E+02 -0.10689925188E+03  0.12741725319E+03  0.47000000000E+01 0. -1.
        -11    1    4    4    0    0 -0.11448165741E+03  0.38044797114E+01 -0.47629911636E+02  0.12405294205E+03  0.00000000000E+00 0.  1.
         12    1    4    4    0    0  0.11412739570E+02  0.34349300601E+01  0.54857275298E+01  0.13120311564E+02  0.00000000000E+00 0. -1.
         -5    1    5    5    0  502  0.52781740258E+02  0.20299614895E+02  0.24327059912E+02  0.61740443095E+02  0.47000000000E+01 0.  1.
         11    1    6    6    0    0 -0.14606555558E+02 -0.53518416841E+02  0.89551946770E+02  0.10534288574E+03  0.00000000000E+00 0. -1.
        -12    1    6    6    0    0  0.74881150848E+02 -0.42474006908E+02  0.18281197683E+03  0.20206792642E+03  0.00000000000E+00 0.  1.
<mgrwt>
<rscale>  2 0.21939343E+03</rscale>
<asrwt>0</asrwt>
<pdfrwt beam="1">  1       21 0.60106870E-01 0.21965225E+03</pdfrwt>
<pdfrwt beam="2">  1       21 0.37391863E-01 0.21965225E+03</pdfrwt>
<totfact> 0.17519852E+04</totfact>
</mgrwt>
</event>
<event>
12    1  0.1013215E-001  0.1750196E+03  0.7546771E-02  0.1172949E+00
         21   -1    0    0  501  502  0.00000000000E+00  0.00000000000E+00  0.62957273354E+03  0.62957273354E+03  0.00000000000E+00 0. -1.
         21   -1    0    0  502  503 -0.00000000000E+00 -0.00000000000E+00 -0.10127094103E+03  0.10127094103E+03  0.00000000000E+00 0. -1.
         -6    2    1    2    0  503 -0.25066351373E+02  0.27946535090E+01  0.44135882290E+00  0.17502011603E+03  0.17319270815E+03 0.  0.
        -24    2    3    3    0    0 -0.51939395516E+02  0.86863171563E+01 -0.56116948422E+02  0.11195027918E+03  0.81305597563E+02 0.  0.
          6    2    1    2  501    0  0.25066351373E+02 -0.27946535090E+01  0.52786043369E+03  0.55582355854E+03  0.17224128053E+03 0.  0.
         24    2    5    5    0    0 -0.28885861027E+02  0.40324484067E+02  0.20784421748E+03  0.22840552318E+03  0.80680897951E+02 0.  0.
          5    1    5    5  501    0  0.53952212400E+02 -0.43119137576E+02  0.32001621621E+03  0.32741803537E+03  0.47000000000E+01 0. -1.
        -13    1    6    6    0    0  0.17812260706E+02 -0.74998272363E+01  0.15488986800E+02  0.24767574611E+02  0.00000000000E+00 0.  1.
         14    1    6    6    0    0 -0.46698121733E+02  0.47824311304E+02  0.19235523068E+03  0.20363794857E+03  0.00000000000E+00 0. -1.
         -5    1    3    3    0  503  0.26873044143E+02 -0.58916636473E+01  0.56558307245E+02  0.63069836851E+02  0.47000000000E+01 0.  1.
         11    1    4    4    0    0 -0.18228644552E+02  0.43177146720E+02 -0.38332033722E+02  0.60546629058E+02  0.00000000000E+00 0. -1.
        -12    1    4    4    0    0 -0.33710750964E+02 -0.34490829563E+02 -0.17784914700E+02  0.51403650118E+02  0.00000000000E+00 0.  1.
<mgrwt>
<rscale>  2 0.17478372E+03</rscale>
<asrwt>0</asrwt>
<pdfrwt beam="1">  1       21 0.96857341E-01 0.17501956E+03</pdfrwt>
<pdfrwt beam="2">  1       21 0.15580145E-01 0.17501956E+03</pdfrwt>
<totfact> 0.32723739E+04</totfact>
</mgrwt>
</event>
<event>
12    1  0.1013215E-001  0.1783181E+03  0.7546771E-02  0.1169872E+00
         21   -1    0    0  503  502  0.00000000000E+00  0.00000000000E+00  0.14959403442E+04  0.14959403442E+04  0.00000000000E+00 0. -1.
         21   -1    0    0  501  503 -0.00000000000E+00 -0.00000000000E+00 -0.22233358391E+02  0.22233358391E+02  0.00000000000E+00 0. -1.
          6    2    1    2  501    0 -0.39524093034E+02 -0.29401816435E+01  0.56499135669E+03  0.59246314482E+03  0.17385783341E+03 0.  0.
         24    2    3    3    0    0  0.10802981809E+01  0.62055744703E+02  0.30976980701E+03  0.32594238306E+03  0.80181177634E+02 0.  0.
         -6    2    1    2    0  502  0.39524093034E+02  0.29401816435E+01  0.90871562916E+03  0.92571055781E+03  0.17206145287E+03 0.  0.
        -24    2    5    5    0    0  0.59392565596E+02  0.57690634430E+02  0.65315176769E+03  0.66355154963E+03  0.82690635665E+02 0.  0.
          5    1    3    3  501    0 -0.40604391215E+02 -0.64995926346E+02  0.25522154969E+03  0.26652076177E+03  0.47000000000E+01 0. -1.
        -11    1    4    4    0    0  0.21700599643E+02  0.47099439008E+02  0.83846761654E+02  0.98587791433E+02  0.00000000000E+00 0.  1.
         12    1    4    4    0    0 -0.20620301462E+02  0.14956305695E+02  0.22592304535E+03  0.22735459163E+03  0.00000000000E+00 0. -1.
         -5    1    5    5    0  502 -0.19868472563E+02 -0.54750452786E+02  0.25556386147E+03  0.26215900818E+03  0.47000000000E+01 0.  1.
         13    1    6    6    0    0  0.22895261637E+02 -0.87205518684E+01  0.50232366981E+02  0.55888565225E+02  0.00000000000E+00 0. -1.
        -14    1    6    6    0    0  0.36497303960E+02  0.66411186298E+02  0.60291940071E+03  0.60766298440E+03  0.00000000000E+00 0.  1.
<mgrwt>
<rscale>  2 0.17787873E+03</rscale>
<asrwt>0</asrwt>
<pdfrwt beam="1">  1       21 0.23014459E+00 0.17831810E+03</pdfrwt>
<pdfrwt beam="2">  1       21 0.34205179E-02 0.17831810E+03</pdfrwt>
<totfact> 0.44898355E+04</totfact>
</mgrwt>
</event>
<event>
12    1  0.1013215E-001  0.1933737E+03  0.7546771E-02  0.1156176E+00
         21   -1    0    0  503  502  0.00000000000E+00  0.00000000000E+00  0.59569059499E+03  0.59569059499E+03  0.00000000000E+00 0. -1.
         21   -1    0    0  501  503 -0.00000000000E+00 -0.00000000000E+00 -0.38206279352E+03  0.38206279352E+03  0.00000000000E+00 0. -1.
          6    2    1    2  501    0  0.70946401100E+02 -0.20782125927E+02 -0.34097857764E+03  0.39040202527E+03  0.17516295938E+03 0.  0.
         24    2    3    3    0    0  0.11224384296E+03 -0.38762264992E+02 -0.24262719261E+03  0.28212530089E+03  0.81397403754E+02 0.  0.
         -6    2    1    2    0  502 -0.70946401100E+02  0.20782125927E+02  0.55460637910E+03  0.58735136324E+03  0.17868435737E+03 0.  0.
        -24    2    5    5    0    0 -0.10262984976E+03 -0.11977099271E+02  0.28389020201E+03  0.31278562194E+03  0.81023833079E+02 0.  0.
          5    1    3    3  501    0 -0.41297441861E+02  0.17980139065E+02 -0.98351385027E+02  0.10827672438E+03  0.47000000000E+01 0. -1.
        -13    1    4    4    0    0  0.22301521301E+02  0.25122074294E+02 -0.59937052947E+02  0.68709000757E+02  0.00000000000E+00 0.  1.
         14    1    4    4    0    0  0.89942321660E+02 -0.63884339286E+02 -0.18269013966E+03  0.21341630013E+03  0.00000000000E+00 0. -1.
         -5    1    5    5    0  502  0.31683448660E+02  0.32759225198E+02  0.27071617709E+03  0.27456574130E+03  0.47000000000E+01 0.  1.
         13    1    6    6    0    0 -0.81842940402E+02  0.19157486012E+02  0.13311283367E+03  0.15743031046E+03  0.00000000000E+00 0. -1.
        -14    1    6    6    0    0 -0.20786909357E+02 -0.31134585283E+02  0.15077736834E+03  0.15535531148E+03  0.00000000000E+00 0.  1.
<mgrwt>
<rscale>  2 0.19255625E+03</rscale>
<asrwt>0</asrwt>
<pdfrwt beam="1">  1       21 0.91644707E-01 0.19337370E+03</pdfrwt>
<pdfrwt beam="2">  1       21 0.58778891E-01 0.19337370E+03</pdfrwt>
<totfact> 0.27264139E+03</totfact>
</mgrwt>
</event>
<event>
12    1  0.1013215E-001  0.2384579E+03  0.7546771E-02  0.1120906E+00
         21   -1    0    0  503  502  0.00000000000E+00  0.00000000000E+00  0.35944124313E+02  0.35944124313E+02  0.00000000000E+00 0. -1.
         21   -1    0    0  501  503 -0.00000000000E+00 -0.00000000000E+00 -0.15858688699E+04  0.15858688699E+04  0.00000000000E+00 0. -1.
          6    2    1    2  501    0  0.35289457062E+02  0.15722597167E+03 -0.83008546416E+03  0.86365735712E+03  0.17577485810E+03 0.  0.
         24    2    3    3    0    0  0.84396484204E+02  0.10645562899E+03 -0.44223166219E+03  0.46939628940E+03  0.79425852036E+02 0.  0.
         -6    2    1    2    0  502 -0.35289457062E+02 -0.15722597167E+03 -0.71983928139E+03  0.75815563706E+03  0.17511718086E+03 0.  0.
        -24    2    5    5    0    0  0.26408960175E+02 -0.78404031524E+02 -0.54146948292E+03  0.55356465988E+03  0.80000039992E+02 0.  0.
          5    1    3    3  501    0 -0.49107027142E+02  0.50770342683E+02 -0.38785380198E+03  0.39426106772E+03  0.47000000000E+01 0. -1.
        -13    1    4    4    0    0  0.47207180131E+02  0.10989125279E+03 -0.32183997189E+03  0.34334468512E+03  0.00000000000E+00 0.  1.
         14    1    4    4    0    0  0.37189304073E+02 -0.34356237997E+01 -0.12039169030E+03  0.12605160428E+03  0.00000000000E+00 0. -1.
         -5    1    5    5    0  502 -0.61698417237E+02 -0.78821940146E+02 -0.17836979847E+03  0.20459097718E+03  0.47000000000E+01 0.  1.
         13    1    6    6    0    0  0.31313959722E+02 -0.41477057406E+02 -0.12418895955E+03  0.13462469327E+03  0.00000000000E+00 0. -1.
        -14    1    6    6    0    0 -0.49049995469E+01 -0.36926974118E+02 -0.41728052338E+03  0.41893996661E+03  0.00000000000E+00 0.  1.
<mgrwt>
<rscale>  2 0.23833668E+03</rscale>
<asrwt>0</asrwt>
<pdfrwt beam="1">  1       21 0.55298663E-02 0.23845786E+03</pdfrwt>
<pdfrwt beam="2">  1       21 0.24397978E+00 0.23845786E+03</pdfrwt>
<totfact> 0.15755244E+04</totfact>
</mgrwt>
</event>
<event>
12    1  0.1013215E-001  0.1885767E+03  0.7546771E-02  0.1160769E+00
         21   -1    0    0  501  502  0.00000000000E+00  0.00000000000E+00  0.91674869920E+03  0.91674869920E+03  0.00000000000E+00 0.  1.
         21   -1    0    0  502  503 -0.00000000000E+00 -0.00000000000E+00 -0.64481794962E+02  0.64481794962E+02  0.00000000000E+00 0.  1.
         -6    2    1    2    0  503  0.25160189575E+02  0.68343555841E+02  0.74415730291E+03  0.76767914300E+03  0.17394625139E+03 0.  0.
        -24    2    3    3    0    0  0.24476332202E+02 -0.30964285863E+02  0.37231702073E+03  0.38277681704E+03  0.79625686183E+02 0.  0.
          6    2    1    2  501    0 -0.25160189575E+02 -0.68343555841E+02  0.10810960134E+03  0.21355135116E+03  0.16915264384E+03 0.  0.
         24    2    5    5    0    0 -0.80990153283E+02 -0.43321781394E+02  0.87414019149E+02  0.14879433481E+03  0.77861169122E+02 0.  0.
          5    1    5    5  501    0  0.55829963709E+02 -0.25021774447E+02  0.20695582189E+02  0.64757016348E+02  0.47000000000E+01 0. -1.
        -11    1    6    6    0    0 -0.65322915607E+02 -0.14924570353E+02  0.13884132859E+02  0.68429491076E+02  0.00000000000E+00 0.  1.
         12    1    6    6    0    0 -0.15667237676E+02 -0.28397211041E+02  0.73529886290E+02  0.80364843738E+02  0.00000000000E+00 0. -1.
         -5    1    3    3    0  503  0.68385737297E+00  0.99307841704E+02  0.37184028217E+03  0.38490232596E+03  0.47000000000E+01 0.  1.
         11    1    4    4    0    0 -0.19821521221E+02 -0.37116751579E+02  0.13969327845E+03  0.14589296761E+03  0.00000000000E+00 0. -1.
        -12    1    4    4    0    0  0.44297853423E+02  0.61524657160E+01  0.23262374228E+03  0.23688384943E+03  0.00000000000E+00 0.  1.
<mgrwt>
<rscale>  2 0.18746380E+03</rscale>
<asrwt>0</asrwt>
<pdfrwt beam="1">  1       21 0.14103825E+00 0.18857671E+03</pdfrwt>
<pdfrwt beam="2">  1       21 0.99202768E-02 0.18857671E+03</pdfrwt>
<totfact> 0.28964116E+04</totfact>
</mgrwt>
</event>
<event>
12    1  0.1013215E-001  0.2848731E+03  0.7546771E-02  0.1093082E+00
         21   -1    0    0  503  502  0.00000000000E+00  0.00000000000E+00  0.87499093532E+02  0.87499093532E+02  0.00000000000E+00 0. -1.
         21   -1    0    0  501  503 -0.00000000000E+00 -0.00000000000E+00 -0.10858418482E+04  0.10858418482E+04  0.00000000000E+00 0.  1.
          6    2    1    2  501    0 -0.54750188952E+01 -0.22619823390E+03 -0.72380173210E+03  0.77784421422E+03  0.17308107161E+03 0.  0.
         24    2    3    3    0    0  0.58557649816E+02 -0.15145650340E+03 -0.52849340976E+03  0.55908878065E+03  0.83107819812E+02 0.  0.
         -6    2    1    2    0  502  0.54750188952E+01  0.22619823390E+03 -0.27454102261E+03  0.39549672755E+03  0.17276941731E+03 0.  0.
        -24    2    5    5    0    0  0.12313681781E+02  0.64941505861E+02 -0.41483856752E+02  0.11196854164E+03  0.80293324777E+02 0.  0.
          5    1    3    3  501    0 -0.64032668711E+02 -0.74741730501E+02 -0.19530832233E+03  0.21875543356E+03  0.47000000000E+01 0. -1.
        -13    1    4    4    0    0  0.36051801575E+02 -0.14637141978E+03 -0.37991360277E+03  0.40872811317E+03  0.00000000000E+00 0.  1.
         14    1    4    4    0    0  0.22505848241E+02 -0.50850836283E+01 -0.14857980700E+03  0.15036066749E+03  0.00000000000E+00 0. -1.
         -5    1    5    5    0  502 -0.68386628863E+01  0.16125672804E+03 -0.23305716585E+03  0.28352818591E+03  0.47000000000E+01 0.  1.
         11    1    6    6    0    0  0.28012019162E+02  0.15737047059E+01 -0.37132946413E+02  0.46540363915E+02  0.00000000000E+00 0. -1.
        -12    1    6    6    0    0 -0.15698337381E+02  0.63367801156E+02 -0.43509103395E+01  0.65428177726E+02  0.00000000000E+00 0.  1.
<mgrwt>
<rscale>  2 0.28482576E+03</rscale>
<asrwt>0</asrwt>
<pdfrwt beam="1">  1       21 0.13461398E-01 0.28487308E+03</pdfrwt>
<pdfrwt beam="2">  1       21 0.16705260E+00 0.28487308E+03</pdfrwt>
<totfact> 0.10058100E+04</totfact>
</mgrwt>
</event>
<event>
12    1  0.1013215E-001  0.1821500E+03  0.7546771E-02  0.1166170E+00
         21   -1    0    0  501  502  0.00000000000E+00  0.00000000000E+00  0.11780422170E+03  0.11780422170E+03  0.00000000000E+00 0.  1.
         21   -1    0    0  502  503 -0.00000000000E+00 -0.00000000000E+00 -0.30351282268E+03  0.30351282268E+03  0.00000000000E+00 0.  1.
         -6    2    1    2    0  503  0.32862277412E+02  0.47511683158E+02 -0.15331654194E+03  0.23808527392E+03  0.17274647988E+03 0.  0.
        -24    2    3    3    0    0  0.12923216932E+02 -0.30761361034E+02 -0.33408547151E+02  0.93433095248E+02  0.80624694706E+02 0.  0.
          6    2    1    2  501    0 -0.32862277412E+02 -0.47511683158E+02 -0.32392059035E+02  0.18323177046E+03  0.17084304757E+03 0.  0.
         24    2    5    5    0    0 -0.61942429515E+02 -0.85728385084E+02 -0.29330387323E+02  0.13488267133E+03  0.78401803692E+02 0.  0.
          5    1    5    5  501    0  0.29080152104E+02  0.38216701925E+02 -0.30616717122E+01  0.48349099124E+02  0.47000000000E+01 0. -1.
        -11    1    6    6    0    0 -0.49437616887E+02 -0.46013859932E+02 -0.54012925569E+02  0.86479762938E+02  0.00000000000E+00 0.  1.
         12    1    6    6    0    0 -0.12504812628E+02 -0.39714525152E+02  0.24682538246E+02  0.48402908396E+02  0.00000000000E+00 0. -1.
         -5    1    3    3    0  503  0.19939060479E+02  0.78273044192E+02 -0.11990799479E+03  0.14465217867E+03  0.47000000000E+01 0.  1.
         13    1    4    4    0    0 -0.33185880247E+02 -0.23273148045E+02 -0.16212654440E+02  0.43655380329E+02  0.00000000000E+00 0. -1.
        -14    1    4    4    0    0  0.46109097179E+02 -0.74882129885E+01 -0.17195892711E+02  0.49777714919E+02  0.00000000000E+00 0.  1.
<mgrwt>
<rscale>  2 0.18169731E+03</rscale>
<asrwt>0</asrwt>
<pdfrwt beam="1">  1       21 0.18123727E-01 0.18215004E+03</pdfrwt>
<pdfrwt beam="2">  1       21 0.46694280E-01 0.18215004E+03</pdfrwt>
<totfact> 0.12218886E+05</totfact>
</mgrwt>
</event>
<event>
12    1  0.1013215E-001  0.1826531E+03  0.7546771E-02  0.1166739E+00
         21   -1    0    0  501  502  0.00000000000E+00  0.00000000000E+00  0.11184403918E+03  0.11184403918E+03  0.00000000000E+00 0.  1.
         21   -1    0    0  502  503 -0.00000000000E+00 -0.00000000000E+00 -0.45423320920E+03  0.45423320920E+03  0.00000000000E+00 0.  1.
         -6    2    1    2    0  503  0.10434226871E+02  0.34194726822E+02 -0.34035343508E+03  0.38341280026E+03  0.17287788233E+03 0.  0.
        -24    2    3    3    0    0 -0.31364839007E+02 -0.45626263656E+01 -0.30335745575E+03  0.31529461751E+03  0.79877275783E+02 0.  0.
          6    2    1    2  501    0 -0.10434226871E+02 -0.34194726822E+02 -0.20357349461E+01  0.18266444812E+03  0.17912008250E+03 0.  0.
         24    2    5    5    0    0 -0.10754519262E+02 -0.46404463266E+02  0.64972645646E+02  0.11439005086E+03  0.81207174300E+02 0.  0.
          5    1    5    5  501    0  0.32029239133E+00  0.12209736445E+02 -0.67008380592E+02  0.68274397257E+02  0.47000000000E+01 0. -1.
        -13    1    6    6    0    0 -0.90107202812E+01  0.21086992277E+02  0.31693909451E+02  0.39119793194E+02  0.00000000000E+00 0.  1.
         14    1    6    6    0    0 -0.17437989808E+01 -0.67491455543E+02  0.33278736195E+02  0.75270257665E+02  0.00000000000E+00 0. -1.
         -5    1    3    3    0  503  0.41799065878E+02  0.38757353187E+02 -0.36995979327E+02  0.68118182747E+02  0.47000000000E+01 0.  1.
         13    1    4    4    0    0  0.15730461381E+02  0.26462830241E+01 -0.11727797082E+02  0.19798774040E+02  0.00000000000E+00 0. -1.
        -14    1    4    4    0    0 -0.47095300388E+02 -0.72089093897E+01 -0.29162965867E+03  0.29549584347E+03  0.00000000000E+00 0.  1.
<mgrwt>
<rscale>  2 0.18110421E+03</rscale>
<asrwt>0</asrwt>
<pdfrwt beam="1">  1       21 0.17206775E-01 0.18265310E+03</pdfrwt>
<pdfrwt beam="2">  1       21 0.69882032E-01 0.18265310E+03</pdfrwt>
<totfact> 0.57004876E+04</totfact>
</mgrwt>
</event>
<event>
11    1  0.1013215E-001  0.2154246E+03  0.7546771E-02  0.1137557E+00
         21   -1    0    0  503  502  0.00000000000E+00  0.00000000000E+00  0.61805362938E+03  0.61805362938E+03  0.00000000000E+00 0. -1.
         21   -1    0    0  501  503 -0.00000000000E+00 -0.00000000000E+00 -0.22029108675E+03  0.22029108675E+03  0.00000000000E+00 0. -1.
          6    2    1    2  501    0  0.41438654787E+02  0.11973714766E+03 -0.14171792419E+03  0.25785986332E+03  0.17422282410E+03 0.  0.
         -6    2    1    2    0  502 -0.41438654787E+02 -0.11973714766E+03  0.53948046683E+03  0.58048485281E+03  0.17282749669E+03 0.  0.
        -24    2    4    4    0    0  0.30939793640E+02 -0.56723789476E+02  0.17589896239E+03  0.20442245975E+03  0.81689888947E+02 0.  0.
          5    1    3    3  501    0  0.86784301832E+02  0.11047863016E+03 -0.13836216752E+03  0.19723899758E+03  0.47000000000E+01 0. -1.
        -13    1    3    3    0    0 -0.27438046564E+02  0.23556199093E+02 -0.84711985768E+01  0.37141649402E+02  0.00000000000E+00 0.  1.
         14    1    3    3    0    0 -0.17907600480E+02 -0.14297681593E+02  0.51154419098E+01  0.23479216338E+02  0.00000000000E+00 0. -1.
         -5    1    4    4    0  502 -0.72378448428E+02 -0.63013358185E+02  0.36358150443E+03  0.37606239306E+03  0.47000000000E+01 0.  1.
         13    1    5    5    0    0 -0.78748952875E+01 -0.59816673804E+02  0.13544029893E+03  0.14827043878E+03  0.00000000000E+00 0. -1.
        -14    1    5    5    0    0  0.38814688928E+02  0.30928843282E+01  0.40458663457E+02  0.56152020967E+02  0.00000000000E+00 0.  1.
<mgrwt>
<rscale>  2 0.21514228E+03</rscale>
<asrwt>0</asrwt>
<pdfrwt beam="1">  1       21 0.95085173E-01 0.21542456E+03</pdfrwt>
<pdfrwt beam="2">  1       21 0.33890937E-01 0.21542456E+03</pdfrwt>
<totfact> 0.76279300E+03</totfact>
</mgrwt>
</event>
<event>
12    1  0.1013215E-001  0.2164269E+03  0.7546771E-02  0.1136896E+00
         21   -1    0    0  503  502  0.00000000000E+00  0.00000000000E+00  0.19449454700E+03  0.19449454700E+03  0.00000000000E+00 0.  1.
         21   -1    0    0  501  503 -0.00000000000E+00 -0.00000000000E+00 -0.24562286529E+03  0.24562286529E+03  0.00000000000E+00 0.  1.
          6    2    1    2  501    0  0.10334847196E+03  0.74226395995E+02  0.10561147722E+02  0.21668445461E+03  0.17507184385E+03 0.  0.
         24    2    3    3    0    0 -0.89540702057E+00  0.78092538924E+02  0.92648948832E+01  0.11225503520E+03  0.80100613369E+02 0.  0.
         -6    2    1    2    0  502 -0.10334847196E+03 -0.74226395995E+02 -0.61689466010E+02  0.22343295769E+03  0.17299199937E+03 0.  0.
        -24    2    5    5    0    0 -0.24148773478E+02  0.75574967416E+01  0.18124014966E+02  0.84316175467E+02  0.78361077771E+02 0.  0.
          5    1    3    3  501    0  0.10424387898E+03 -0.38661429297E+01  0.12962528390E+01  0.10442941940E+03  0.47000000000E+01 0. -1.
        -13    1    4    4    0    0  0.14550335520E+02  0.60581653796E+02  0.39712821478E+02  0.73884756413E+02  0.00000000000E+00 0.  1.
         14    1    4    4    0    0 -0.15445742540E+02  0.17510885128E+02 -0.30447926595E+02  0.38370278792E+02  0.00000000000E+00 0. -1.
         -5    1    5    5    0  502 -0.79199698479E+02 -0.81783892736E+02 -0.79813480976E+02  0.13911678222E+03  0.47000000000E+01 0.  1.
         11    1    6    6    0    0  0.29873378182E+01 -0.17859659943E+02  0.38045432157E+02  0.42134861439E+02  0.00000000000E+00 0. -1.
        -12    1    6    6    0    0 -0.27136111296E+02  0.25417156685E+02 -0.19921417191E+02  0.42181314028E+02  0.00000000000E+00 0.  1.
<mgrwt>
<rscale>  2 0.21600597E+03</rscale>
<asrwt>0</asrwt>
<pdfrwt beam="1">  1       21 0.29922238E-01 0.21642693E+03</pdfrwt>
<pdfrwt beam="2">  1       21 0.37788133E-01 0.21642693E+03</pdfrwt>
<totfact> 0.71593199E+04</totfact>
</mgrwt>
</event>
<event>
12    1  0.1013215E-001  0.1943934E+03  0.7546771E-02  0.1154587E+00
         21   -1    0    0  503  502  0.00000000000E+00  0.00000000000E+00  0.10806886417E+04  0.10806886417E+04  0.00000000000E+00 0. -1.
         21   -1    0    0  501  503 -0.00000000000E+00 -0.00000000000E+00 -0.40549747489E+02  0.40549747489E+02  0.00000000000E+00 0. -1.
          6    2    1    2  501    0 -0.88107441958E+02  0.32356756768E+01  0.31176228496E+03  0.36740238797E+03  0.17324953518E+03 0.  0.
         24    2    3    3    0    0 -0.25955439093E+02 -0.20516221166E+02  0.28384973055E+03  0.29509592383E+03  0.73595751075E+02 0.  0.
         -6    2    1    2    0  502  0.88107441958E+02 -0.32356756768E+01  0.72837660924E+03  0.75383600120E+03  0.17309777842E+03 0.  0.
        -24    2    5    5    0    0  0.15861217358E+02 -0.14431231425E+02  0.60250754353E+03  0.60819957327E+03  0.80196896827E+02 0.  0.
          5    1    3    3  501    0 -0.62152002865E+02  0.23751896843E+02  0.27912554407E+02  0.72306464146E+02  0.47000000000E+01 0. -1.
        -13    1    4    4    0    0 -0.19497013170E+02 -0.34834002128E+02  0.69324303674E+02  0.79996251829E+02  0.00000000000E+00 0.  1.
         14    1    4    4    0    0 -0.64584259228E+01  0.14317780962E+02  0.21452542687E+03  0.21509967200E+03  0.00000000000E+00 0. -1.
         -5    1    5    5    0  502  0.72246224600E+02  0.11195555748E+02  0.12586906571E+03  0.14563642793E+03  0.47000000000E+01 0.  1.
         11    1    6    6    0    0  0.23696653863E+02 -0.41585602945E+02  0.24862152221E+03  0.25318679879E+03  0.00000000000E+00 0. -1.
        -12    1    6    6    0    0 -0.78354365056E+01  0.27154371520E+02  0.35388602132E+03  0.35501277448E+03  0.00000000000E+00 0.  1.
<mgrwt>
<rscale>  2 0.19435958E+03</rscale>
<asrwt>0</asrwt>
<pdfrwt beam="1">  1       21 0.16625977E+00 0.19439340E+03</pdfrwt>
<pdfrwt beam="2">  1       21 0.62384235E-02 0.19439340E+03</pdfrwt>
<totfact> 0.41787292E+04</totfact>
</mgrwt>
</event>
<event>
12    1  0.1013215E-001  0.1849008E+03  0.7546771E-02  0.1164581E+00
         21   -1    0    0  503  502  0.00000000000E+00  0.00000000000E+00  0.35428611744E+03  0.35428611744E+03  0.00000000000E+00 0.  1.
         21   -1    0    0  501  503 -0.00000000000E+00 -0.00000000000E+00 -0.13905670391E+03  0.13905670391E+03  0.00000000000E+00 0. -1.
          6    2    1    2  501    0  0.67690882245E+02 -0.20788138141E+02 -0.32562592250E+02  0.18774619490E+03  0.17080430047E+03 0.  0.
         24    2    3    3    0    0  0.56568551246E+02  0.47802499396E+02 -0.40755748498E+02  0.11762059605E+03  0.81783211246E+02 0.  0.
         -6    2    1    2    0  502 -0.67690882245E+02  0.20788138141E+02  0.24779200578E+03  0.30559662645E+03  0.16423829561E+03 0.  0.
        -24    2    5    5    0    0  0.13030565257E+02 -0.18833567321E+02  0.16467891168E+03  0.18305802828E+03  0.76593726101E+02 0.  0.
          5    1    3    3  501    0  0.11122330999E+02 -0.68590637537E+02  0.81931562482E+01  0.70125598849E+02  0.47000000000E+01 0. -1.
        -11    1    4    4    0    0 -0.20142842378E+01  0.27883054509E+02  0.17214635735E+02  0.32830865861E+02  0.00000000000E+00 0.  1.
         12    1    4    4    0    0  0.58582835483E+02  0.19919444887E+02 -0.57970384233E+02  0.84789730192E+02  0.00000000000E+00 0. -1.
         -5    1    5    5    0  502 -0.80721447502E+02  0.39621705462E+02  0.83113094096E+02  0.12253859817E+03  0.47000000000E+01 0.  1.
         11    1    6    6    0    0 -0.18950692498E+02 -0.37341521586E+02  0.10257023660E+03  0.11078885962E+03  0.00000000000E+00 0. -1.
        -12    1    6    6    0    0  0.31981257755E+02  0.18507954264E+02  0.62108675084E+02  0.72269168664E+02  0.00000000000E+00 0.  1.
<mgrwt>
<rscale>  2 0.18336997E+03</rscale>
<asrwt>0</asrwt>
<pdfrwt beam="1">  1       21 0.54505556E-01 0.18490081E+03</pdfrwt>
<pdfrwt beam="2">  1       21 0.21393339E-01 0.18490081E+03</pdfrwt>
<totfact> 0.64905860E+04</totfact>
</mgrwt>
</event>
<event>
12    1  0.1013215E-001  0.2139129E+03  0.7546771E-02  0.1138769E+00
         21   -1    0    0  501  502  0.00000000000E+00  0.00000000000E+00  0.18269771017E+03  0.18269771017E+03  0.00000000000E+00 0. -1.
         21   -1    0    0  502  503 -0.00000000000E+00 -0.00000000000E+00 -0.27216127466E+03  0.27216127466E+03  0.00000000000E+00 0.  1.
         -6    2    1    2    0  503  0.59186739125E+02  0.10937492463E+03 -0.11139894102E+03  0.24118137587E+03  0.17404823406E+03 0.  0.
        -24    2    3    3    0    0  0.10874273154E+03  0.92342089782E+02 -0.86334723125E+02  0.18290428890E+03  0.75154848643E+02 0.  0.
          6    2    1    2  501    0 -0.59186739125E+02 -0.10937492463E+03  0.21935376522E+02  0.21367760896E+03  0.17236883593E+03 0.  0.
         24    2    5    5    0    0 -0.35366130217E+02 -0.50289067796E+02  0.81013234623E+02  0.12666701647E+03  0.75509174089E+02 0.  0.
          5    1    5    5  501    0 -0.23820608908E+02 -0.59085856839E+02 -0.59077858102E+02  0.87010592488E+02  0.47000000000E+01 0. -1.
        -13    1    6    6    0    0  0.12523901302E+02  0.10464926727E+02  0.26179365608E+01  0.16529258515E+02  0.00000000000E+00 0.  1.
         14    1    6    6    0    0 -0.47890031519E+02 -0.60753994523E+02  0.78395298062E+02  0.11013775796E+03  0.00000000000E+00 0. -1.
         -5    1    3    3    0  503 -0.49555992410E+02  0.17032834852E+02 -0.25064217891E+02  0.58277086967E+02  0.47000000000E+01 0.  1.
         13    1    4    4    0    0  0.11087793927E+03  0.55273999930E+02 -0.62292090165E+02  0.13867024549E+03  0.00000000000E+00 0. -1.
        -14    1    4    4    0    0 -0.21352077382E+01  0.37068089852E+02 -0.24042632960E+02  0.44234043417E+02  0.00000000000E+00 0.  1.
<mgrwt>
<rscale>  2 0.21357104E+03</rscale>
<asrwt>0</asrwt>
<pdfrwt beam="1">  1       21 0.28107340E-01 0.21391291E+03</pdfrwt>
<pdfrwt beam="2">  1       21 0.41870965E-01 0.21391291E+03</pdfrwt>
<totfact> 0.65772729E+04</totfact>
</mgrwt>
</event>
<event>
12    1  0.1013215E-001  0.1733538E+03  0.7546771E-02  0.1174442E+00
         21   -1    0    0  503  502  0.00000000000E+00  0.00000000000E+00  0.12317578779E+03  0.12317578779E+03  0.00000000000E+00 0. -1.
         21   -1    0    0  501  503 -0.00000000000E+00 -0.00000000000E+00 -0.24372443190E+03  0.24372443190E+03  0.00000000000E+00 0. -1.
          6    2    1    2  501    0 -0.29111346574E+01 -0.14877705480E+02 -0.58978182034E+02  0.18311193393E+03  0.17268970313E+03 0.  0.
         24    2    3    3    0    0 -0.12569629229E+02 -0.75924872485E+02 -0.49310145182E+02  0.12037754102E+03  0.78336965250E+02 0.  0.
         -6    2    1    2    0  502  0.29111346574E+01  0.14877705480E+02 -0.61570462077E+02  0.18378828577E+03  0.17250330826E+03 0.  0.
        -24    2    5    5    0    0 -0.42546835065E+02  0.54821739393E+02 -0.61485940776E+02  0.12309191025E+03  0.80965678982E+02 0.  0.
          5    1    3    3  501    0  0.96584945717E+01  0.61047167004E+02 -0.96680368520E+01  0.62734392906E+02  0.47000000000E+01 0. -1.
        -11    1    4    4    0    0  0.17352230505E+02 -0.67014683824E+02 -0.96356598121E+01  0.69892157582E+02  0.00000000000E+00 0.  1.
         12    1    4    4    0    0 -0.29921859735E+02 -0.89101886608E+01 -0.39674485370E+02  0.50485383442E+02  0.00000000000E+00 0. -1.
         -5    1    5    5    0  502  0.45457969723E+02 -0.39944033913E+02 -0.84521300643E-01  0.60696375512E+02  0.47000000000E+01 0.  1.
         11    1    6    6    0    0  0.13056516993E+02 -0.91659702572E+01 -0.27438290622E+02  0.31738737199E+02  0.00000000000E+00 0. -1.
        -12    1    6    6    0    0 -0.55603352058E+02  0.63987709650E+02 -0.34047650154E+02  0.91353173055E+02  0.00000000000E+00 0.  1.
<mgrwt>
<rscale>  2 0.17330740E+03</rscale>
<asrwt>0</asrwt>
<pdfrwt beam="1">  1       21 0.18950121E-01 0.17335384E+03</pdfrwt>
<pdfrwt beam="2">  1       21 0.37496066E-01 0.17335384E+03</pdfrwt>
<totfact> 0.17610809E+05</totfact>
</mgrwt>
</event>
<event>
12    1  0.1013215E-001  0.1791781E+03  0.7546771E-02  0.1169573E+00
         21   -1    0    0  501  502  0.00000000000E+00  0.00000000000E+00  0.41395571141E+03  0.41395571141E+03  0.00000000000E+00 0. -1.
         21   -1    0    0  502  503 -0.00000000000E+00 -0.00000000000E+00 -0.28304517163E+03  0.28304517163E+03  0.00000000000E+00 0. -1.
         -6    2    1    2    0  503  0.38081940178E+02  0.18808447583E+01 -0.23290058477E+03  0.29146009374E+03  0.17103371629E+03 0.  0.
        -24    2    3    3    0    0 -0.39282106049E+02  0.12953941568E+02 -0.84698077632E+02  0.12384779632E+03  0.80334449907E+02 0.  0.
          6    2    1    2  501    0 -0.38081940178E+02 -0.18808447583E+01  0.36381112455E+03  0.40554078930E+03  0.17507434333E+03 0.  0.
         24    2    5    5    0    0 -0.12763701822E+02  0.63060691300E+02  0.15325954557E+03  0.18370194303E+03  0.78219899611E+02 0.  0.
          5    1    5    5  501    0 -0.25318238356E+02 -0.64941536059E+02  0.21055157899E+03  0.22183884627E+03  0.47000000000E+01 0. -1.
        -11    1    6    6    0    0  0.96886472936E+01  0.30115915843E+02  0.13706771733E+03  0.14067123873E+03  0.00000000000E+00 0.  1.
         12    1    6    6    0    0 -0.22452349115E+02  0.32944775458E+02  0.16191828239E+02  0.43030704299E+02  0.00000000000E+00 0. -1.
         -5    1    3    3    0  503  0.77364046226E+02 -0.11073096810E+02 -0.14820250714E+03  0.16761229741E+03  0.47000000000E+01 0.  1.
         13    1    4    4    0    0 -0.47503140934E+02 -0.23058310323E+02 -0.56836035992E+02  0.77579437100E+02  0.00000000000E+00 0. -1.
        -14    1    4    4    0    0  0.82210348850E+01  0.36012251891E+02 -0.27862041640E+02  0.46268359223E+02  0.00000000000E+00 0.  1.
<mgrwt>
<rscale>  2 0.17818337E+03</rscale>
<asrwt>0</asrwt>
<pdfrwt beam="1">  1       21 0.63685494E-01 0.17917812E+03</pdfrwt>
<pdfrwt beam="2">  1       21 0.43545411E-01 0.17917812E+03</pdfrwt>
<totfact> 0.11653879E+04</totfact>
</mgrwt>
</event>
<event>
12    1  0.1013215E-001  0.1777386E+03  0.7546771E-02  0.1170081E+00
         21   -1    0    0  501  502  0.00000000000E+00  0.00000000000E+00  0.87273652756E+03  0.87273652756E+03  0.00000000000E+00 0. -1.
         21   -1    0    0  502  503 -0.00000000000E+00 -0.00000000000E+00 -0.36581822772E+02  0.36581822772E+02  0.00000000000E+00 0. -1.
         -6    2    1    2    0  503  0.22274586945E+02  0.37554627730E+02  0.46776634655E+03  0.50029392429E+03  0.17199461746E+03 0.  0.
        -24    2    3    3    0    0  0.41135172171E+02  0.69781066086E+02  0.19393300968E+03  0.22388652319E+03  0.77159986060E+02 0.  0.
          6    2    1    2  501    0 -0.22274586945E+02 -0.37554627730E+02  0.36838835825E+03  0.40902442604E+03  0.17229187828E+03 0.  0.
         24    2    5    5    0    0  0.27683195395E+02  0.14561382363E+02  0.28636289656E+03  0.29965292661E+03  0.82521359263E+02 0.  0.
          5    1    5    5  501    0 -0.49957782341E+02 -0.52116010094E+02  0.82025461686E+02  0.10937149944E+03  0.47000000000E+01 0. -1.
        -13    1    6    6    0    0  0.31097557714E+02  0.33888379872E+02  0.79385831570E+02  0.91747428521E+02  0.00000000000E+00 0.  1.
         14    1    6    6    0    0 -0.34143623192E+01 -0.19326997508E+02  0.20697706499E+03  0.20790549809E+03  0.00000000000E+00 0. -1.
         -5    1    3    3    0  503 -0.18860585226E+02 -0.32226438356E+02  0.27383333687E+03  0.27640740110E+03  0.47000000000E+01 0.  1.
         13    1    4    4    0    0 -0.59823023130E+01  0.46385727516E+02  0.41132970142E+02  0.62284387216E+02  0.00000000000E+00 0. -1.
        -14    1    4    4    0    0  0.47117474484E+02  0.23395338570E+02  0.15280003954E+03  0.16160213597E+03  0.00000000000E+00 0.  1.
<mgrwt>
<rscale>  2 0.17766649E+03</rscale>
<asrwt>0</asrwt>
<pdfrwt beam="1">  1       21 0.13426714E+00 0.17773857E+03</pdfrwt>
<pdfrwt beam="2">  1       21 0.56279734E-02 0.17773857E+03</pdfrwt>
<totfact> 0.88231328E+04</totfact>
</mgrwt>
</event>
<event>
12    1  0.1013215E-001  0.1805942E+03  0.7546771E-02  0.1168256E+00
         21   -1    0    0  503  502  0.00000000000E+00  0.00000000000E+00  0.87066791816E+02  0.87066791816E+02  0.00000000000E+00 0.  1.
         21   -1    0    0  501  503 -0.00000000000E+00 -0.00000000000E+00 -0.36659262001E+03  0.36659262001E+03  0.00000000000E+00 0. -1.
          6    2    1    2  501    0 -0.21968126607E+02 -0.48066510461E+02 -0.12833066741E+03  0.21812971840E+03  0.16828198310E+03 0.  0.
         24    2    3    3    0    0 -0.63053094897E+02 -0.77750781911E+01 -0.35226712076E+02  0.10857694284E+03  0.80696261721E+02 0.  0.
         -6    2    1    2    0  502  0.21968126607E+02  0.48066510461E+02 -0.15119516079E+03  0.23552969343E+03  0.17268836622E+03 0.  0.
        -24    2    5    5    0    0 -0.37157182593E+02  0.47648481177E+02 -0.41366238295E+02  0.11070798397E+03  0.83030464697E+02 0.  0.
          5    1    3    3  501    0  0.41084968290E+02 -0.40291432270E+02 -0.93103955330E+02  0.10955277556E+03  0.47000000000E+01 0. -1.
        -13    1    4    4    0    0 -0.13746140734E+01  0.26276627873E+02  0.59440112865E+01  0.26975581670E+02  0.00000000000E+00 0.  1.
         14    1    4    4    0    0 -0.61678480824E+02 -0.34051706064E+02 -0.41170723362E+02  0.81601361170E+02  0.00000000000E+00 0. -1.
         -5    1    5    5    0  502  0.59125309199E+02  0.41802928417E+00 -0.10982892250E+03  0.12482170946E+03  0.47000000000E+01 0.  1.
         11    1    6    6    0    0  0.22853905167E+02  0.33716776623E+02 -0.12022195267E+02  0.42469461808E+02  0.00000000000E+00 0. -1.
        -12    1    6    6    0    0 -0.60011087760E+02  0.13931704554E+02 -0.29344043028E+02  0.68238522164E+02  0.00000000000E+00 0.  1.
<mgrwt>
<rscale>  2 0.17953267E+03</rscale>
<asrwt>0</asrwt>
<pdfrwt beam="1">  1       21 0.13394891E-01 0.18059419E+03</pdfrwt>
<pdfrwt beam="2">  1       21 0.56398864E-01 0.18059419E+03</pdfrwt>
<totfact> 0.14301093E+05</totfact>
</mgrwt>
</event>
<event>
12    1  0.1013215E-001  0.1740868E+03  0.7546771E-02  0.1177821E+00
         21   -1    0    0  503  502  0.00000000000E+00  0.00000000000E+00  0.19589548796E+03  0.19589548796E+03  0.00000000000E+00 0.  1.
         21   -1    0    0  501  503 -0.00000000000E+00 -0.00000000000E+00 -0.22776298809E+03  0.22776298809E+03  0.00000000000E+00 0.  1.
          6    2    1    2  501    0  0.12436507315E+02  0.18458867867E+02 -0.14605703254E+03  0.21546271391E+03  0.15683152686E+03 0.  0.
         24    2    3    3    0    0  0.48703356527E+02  0.51807105462E+02 -0.85190899040E+02  0.13701422439E+03  0.80370487690E+02 0.  0.
         -6    2    1    2    0  502 -0.12436507315E+02 -0.18458867867E+02  0.11418953241E+03  0.20819576213E+03  0.17265812909E+03 0.  0.
        -24    2    5    5    0    0  0.34213094635E+02 -0.45932391683E+02  0.22005744228E+02  0.10118678738E+03  0.80462368297E+02 0.  0.
          5    1    3    3  501    0 -0.36266849211E+02 -0.33348237596E+02 -0.60866133495E+02  0.78448489527E+02  0.47000000000E+01 0. -1.
        -11    1    4    4    0    0  0.35155349924E+02 -0.25923612902E+01 -0.70869978936E+02  0.79152845052E+02  0.00000000000E+00 0.  1.
         12    1    4    4    0    0  0.13548006602E+02  0.54399466752E+02 -0.14320920103E+02  0.57861379334E+02  0.00000000000E+00 0. -1.
         -5    1    5    5    0  502 -0.46649601950E+02  0.27473523816E+02  0.92183788182E+02  0.10700897475E+03  0.47000000000E+01 0.  1.
         13    1    6    6    0    0  0.32232986199E+02  0.16558547700E+02  0.85757949353E+01  0.37238356033E+02  0.00000000000E+00 0. -1.
        -14    1    6    6    0    0  0.19801084360E+01 -0.62490939383E+02  0.13429949293E+02  0.63948431352E+02  0.00000000000E+00 0.  1.
<mgrwt>
<rscale>  2 0.17002600E+03</rscale>
<asrwt>0</asrwt>
<pdfrwt beam="1">  1       21 0.30137767E-01 0.17408683E+03</pdfrwt>
<pdfrwt beam="2">  1       21 0.35040460E-01 0.17408683E+03</pdfrwt>
<totfact> 0.83547131E+04</totfact>
</mgrwt>
</event>
<event>
12    1  0.1013215E-001  0.1880255E+03  0.7546771E-02  0.1162249E+00
         21   -1    0    0  501  502  0.00000000000E+00  0.00000000000E+00  0.23108370699E+03  0.23108370699E+03  0.00000000000E+00 0. -1.
         21   -1    0    0  502  503 -0.00000000000E+00 -0.00000000000E+00 -0.23219926043E+03  0.23219926043E+03  0.00000000000E+00 0. -1.
         -6    2    1    2    0  503 -0.57048057783E+01 -0.73115010567E+02 -0.14156016289E+03  0.23535692201E+03  0.17313362309E+03 0.  0.
        -24    2    3    3    0    0 -0.48444906438E+02 -0.92641948937E+02 -0.99141565137E+02  0.17187901277E+03  0.93722491591E+02 0.  0.
          6    2    1    2  501    0  0.57048057783E+01  0.73115010567E+02  0.14044460945E+03  0.22792604541E+03  0.16385128707E+03 0.  0.
         24    2    5    5    0    0 -0.12073240637E+02 -0.56486560045E+00  0.17143924255E+02  0.83116059375E+02  0.80425636302E+02 0.  0.
          5    1    5    5  501    0  0.17778046415E+02  0.73679876167E+02  0.12330068519E+03  0.14480998604E+03  0.47000000000E+01 0. -1.
        -13    1    6    6    0    0  0.15153587417E+02 -0.31458625833E+02  0.22575223227E+02  0.41580248372E+02  0.00000000000E+00 0.  1.
         14    1    6    6    0    0 -0.27226828054E+02  0.30893760233E+02 -0.54312989720E+01  0.41535811004E+02  0.00000000000E+00 0. -1.
         -5    1    3    3    0  503  0.42740100660E+02  0.19526938371E+02 -0.42418597754E+02  0.63477909244E+02  0.47000000000E+01 0.  1.
         11    1    4    4    0    0  0.97462343811E+01 -0.62965768782E+02 -0.82921960630E+02  0.10457403443E+03  0.00000000000E+00 0. -1.
        -12    1    4    4    0    0 -0.58191140819E+02 -0.29676180156E+02 -0.16219604507E+02  0.67304978336E+02  0.00000000000E+00 0.  1.
<mgrwt>
<rscale>  2 0.18586077E+03</rscale>
<asrwt>0</asrwt>
<pdfrwt beam="1">  1       21 0.35551339E-01 0.18802553E+03</pdfrwt>
<pdfrwt beam="2">  1       21 0.35722963E-01 0.18802553E+03</pdfrwt>
<totfact> 0.57763293E+04</totfact>
</mgrwt>
</event>
<event>
12    1  0.1013215E-001  0.2529412E+03  0.7546771E-02  0.1111974E+00
         21   -1    0    0  501  502  0.00000000000E+00  0.00000000000E+00  0.51610653645E+03  0.51610653645E+03  0.00000000000E+00 0. -1.
         21   -1    0    0  502  503 -0.00000000000E+00 -0.00000000000E+00 -0.21712707067E+03  0.21712707067E+03  0.00000000000E+00 0. -1.
         -6    2    1    2    0  503  0.36554719486E+02  0.17645836133E+03 -0.92157867850E+02  0.26920687902E+03  0.17749780367E+03 0.  0.
        -24    2    3    3    0    0  0.28350678442E+01  0.82833005671E+02 -0.11491964096E+03  0.16701631956E+03  0.88422749795E+02 0.  0.
          6    2    1    2  501    0 -0.36554719486E+02 -0.17645836133E+03  0.39113733362E+03  0.46402672809E+03  0.17279638258E+03 0.  0.
         24    2    5    5    0    0  0.25756969435E+01 -0.18687988584E+02  0.95527220953E+02  0.12663954885E+03  0.80970675297E+02 0.  0.
          5    1    5    5  501    0 -0.39130416429E+02 -0.15777037275E+03  0.29561011267E+03  0.33738717924E+03  0.47000000000E+01 0. -1.
        -11    1    6    6    0    0  0.22547819623E+02 -0.44578296609E+02  0.64297035542E+02  0.81423199874E+02  0.00000000000E+00 0.  1.
         12    1    6    6    0    0 -0.19972122679E+02  0.25890308025E+02  0.31230185411E+02  0.45216348976E+02  0.00000000000E+00 0. -1.
         -5    1    3    3    0  503  0.33719651641E+02  0.93625355659E+02  0.22761773112E+02  0.10219055947E+03  0.47000000000E+01 0.  1.
         13    1    4    4    0    0  0.39720659118E+02  0.51577064174E+02 -0.93989936981E+02  0.11433298983E+03  0.00000000000E+00 0. -1.
        -14    1    4    4    0    0 -0.36885591274E+02  0.31255941497E+02 -0.20929703981E+02  0.52683329728E+02  0.00000000000E+00 0.  1.
<mgrwt>
<rscale>  2 0.25211806E+03</rscale>
<asrwt>0</asrwt>
<pdfrwt beam="1">  1       21 0.79401005E-01 0.25294124E+03</pdfrwt>
<pdfrwt beam="2">  1       21 0.33404165E-01 0.25294124E+03</pdfrwt>
<totfact> 0.11639923E+04</totfact>
</mgrwt>
</event>
<event>
12    1  0.1013215E-001  0.1806916E+03  0.7546771E-02  0.1167261E+00
         21   -1    0    0  503  502  0.00000000000E+00  0.00000000000E+00  0.31094602340E+02  0.31094602340E+02  0.00000000000E+00 0. -1.
         21   -1    0    0  501  503 -0.00000000000E+00 -0.00000000000E+00 -0.11725208845E+04  0.11725208845E+04  0.00000000000E+00 0. -1.
          6    2    1    2  501    0 -0.27180323383E+02  0.40704783226E+02 -0.37453077819E+03  0.41583983492E+03  0.17393623871E+03 0.  0.
         24    2    3    3    0    0 -0.78521527608E+02  0.27686263723E+02 -0.28519033731E+03  0.31187250602E+03  0.94861857563E+02 0.  0.
         -6    2    1    2    0  502  0.27180323383E+02 -0.40704783226E+02 -0.76689550398E+03  0.78777565193E+03  0.17339583154E+03 0.  0.
        -24    2    5    5    0    0  0.67486939737E+02 -0.39379581961E+01 -0.65295125314E+03  0.66135648786E+03  0.80480249190E+02 0.  0.
          5    1    3    3  501    0  0.51341204225E+02  0.13018519503E+02 -0.89340440886E+02  0.10396732890E+03  0.47000000000E+01 0. -1.
        -11    1    4    4    0    0  0.17036360022E+02  0.15171148346E+02 -0.10582182351E+03  0.10825275810E+03  0.00000000000E+00 0.  1.
         12    1    4    4    0    0 -0.95557887630E+02  0.12515115377E+02 -0.17936851379E+03  0.20361974791E+03  0.00000000000E+00 0. -1.
         -5    1    5    5    0  502 -0.40306616354E+02 -0.36766825030E+02 -0.11394425084E+03  0.12641916407E+03  0.47000000000E+01 0.  1.
         11    1    6    6    0    0  0.50213334169E+02  0.10313156231E+02 -0.16248602277E+03  0.17038030319E+03  0.00000000000E+00 0. -1.
        -12    1    6    6    0    0  0.17273605568E+02 -0.14251114427E+02 -0.49046523037E+03  0.49097618467E+03  0.00000000000E+00 0.  1.
<mgrwt>
<rscale>  2 0.18056145E+03</rscale>
<asrwt>0</asrwt>
<pdfrwt beam="1">  1       21 0.47837847E-02 0.18069163E+03</pdfrwt>
<pdfrwt beam="2">  1       21 0.18038784E+00 0.18069163E+03</pdfrwt>
<totfact> 0.52815170E+04</totfact>
</mgrwt>
</event>
<event>
12    1  0.1013215E-001  0.1783225E+03  0.7546771E-02  0.1169487E+00
         21   -1    0    0  501  502  0.00000000000E+00  0.00000000000E+00  0.92446866139E+02  0.92446866139E+02  0.00000000000E+00 0. -1.
         21   -1    0    0  502  503 -0.00000000000E+00 -0.00000000000E+00 -0.37103419295E+03  0.37103419295E+03  0.00000000000E+00 0. -1.
         -6    2    1    2    0  503  0.42150961361E+02  0.29434177265E+02 -0.76168627436E+02  0.19371774581E+03  0.17053395821E+03 0.  0.
        -24    2    3    3    0    0  0.20024809029E+02  0.83650611112E+02 -0.59328369480E+02  0.13260577805E+03  0.81645693275E+02 0.  0.
          6    2    1    2  501    0 -0.42150961361E+02 -0.29434177265E+02 -0.20241869938E+03  0.26976331328E+03  0.17075081551E+03 0.  0.
         24    2    5    5    0    0  0.15747078252E+01 -0.74326362703E+02 -0.16029168721E+03  0.19410607560E+03  0.80354562395E+02 0.  0.
          5    1    5    5  501    0 -0.43725669187E+02  0.44892185438E+02 -0.42127012165E+02  0.75657237679E+02  0.47000000000E+01 0. -1.
        -11    1    6    6    0    0 -0.43035406847E+01 -0.45909802509E+02 -0.19011396855E+02  0.49876483830E+02  0.00000000000E+00 0.  1.
         12    1    6    6    0    0  0.58782485098E+01 -0.28416560195E+02 -0.14128029035E+03  0.14422959177E+03  0.00000000000E+00 0. -1.
         -5    1    3    3    0  503  0.22126152332E+02 -0.54216433847E+02 -0.16840257956E+02  0.61111967765E+02  0.47000000000E+01 0.  1.
         11    1    4    4    0    0  0.45932546346E+02  0.46930239432E+02 -0.10948910734E+02  0.66574205464E+02  0.00000000000E+00 0. -1.
        -12    1    4    4    0    0 -0.25907737317E+02  0.36720371680E+02 -0.48379458746E+02  0.66031572583E+02  0.00000000000E+00 0.  1.
<mgrwt>
<rscale>  2 0.17827057E+03</rscale>
<asrwt>0</asrwt>
<pdfrwt beam="1">  1       21 0.14222595E-01 0.17832250E+03</pdfrwt>
<pdfrwt beam="2">  1       21 0.57082184E-01 0.17832250E+03</pdfrwt>
<totfact> 0.12519642E+05</totfact>
</mgrwt>
</event>
<event>
12    1  0.1013215E-001  0.5234572E+03  0.7546771E-02  0.1007837E+00
         21   -1    0    0  501  502  0.00000000000E+00  0.00000000000E+00  0.65695251778E+03  0.65695251778E+03  0.00000000000E+00 0.  1.
         21   -1    0    0  502  503 -0.00000000000E+00 -0.00000000000E+00 -0.78747002420E+03  0.78747002420E+03  0.00000000000E+00 0. -1.
         -6    2    1    2    0  503 -0.40767055303E+03 -0.27883563666E+03 -0.56061121657E+03  0.76693598926E+03  0.17309327948E+03 0.  0.
        -24    2    3    3    0    0 -0.31904493708E+03 -0.23814323335E+03 -0.52368682592E+03  0.66255269503E+03  0.78906974242E+02 0.  0.
          6    2    1    2  501    0  0.40767055303E+03  0.27883563666E+03  0.43009371014E+03  0.67748655272E+03  0.17338638219E+03 0.  0.
         24    2    5    5    0    0  0.34337932328E+03  0.22980395599E+03  0.27914088252E+03  0.50617889352E+03  0.87052984495E+02 0.  0.
          5    1    5    5  501    0  0.64291229752E+02  0.49031680675E+02  0.15095282762E+03  0.17130765920E+03  0.47000000000E+01 0. -1.
        -13    1    6    6    0    0  0.22453136405E+03  0.19120718667E+03  0.17086568873E+03  0.34083662547E+03  0.00000000000E+00 0.  1.
         14    1    6    6    0    0  0.11884795923E+03  0.38596769320E+02  0.10827519379E+03  0.16534226805E+03  0.00000000000E+00 0. -1.
         -5    1    3    3    0  503 -0.88625615949E+02 -0.40692403307E+02 -0.36924390649E+02  0.10438329423E+03  0.47000000000E+01 0.  1.
         13    1    4    4    0    0 -0.96484711639E+02 -0.71475218492E+02 -0.22119370283E+03  0.25168365185E+03  0.00000000000E+00 0. -1.
        -14    1    4    4    0    0 -0.22256022544E+03 -0.16666801486E+03 -0.30249312309E+03  0.41086904318E+03  0.00000000000E+00 0.  1.
<mgrwt>
<rscale>  2 0.52343294E+03</rscale>
<asrwt>0</asrwt>
<pdfrwt beam="1">  1       21 0.10106962E+00 0.52345719E+03</pdfrwt>
<pdfrwt beam="2">  1       21 0.12114923E+00 0.52345719E+03</pdfrwt>
<totfact> 0.33130967E+02</totfact>
</mgrwt>
</event>
<event>
12    1  0.1013215E-001  0.1919420E+03  0.7546771E-02  0.1156754E+00
         21   -1    0    0  501  502  0.00000000000E+00  0.00000000000E+00  0.10509831113E+04  0.10509831113E+04  0.00000000000E+00 0. -1.
         21   -1    0    0  502  503 -0.00000000000E+00 -0.00000000000E+00 -0.40151731932E+02  0.40151731932E+02  0.00000000000E+00 0. -1.
         -6    2    1    2    0  503  0.80839272651E+02 -0.30813438478E+02  0.31036121289E+03  0.36484275248E+03  0.17117738045E+03 0.  0.
        -24    2    3    3    0    0  0.11647805182E+02 -0.29268846416E+02  0.27068302055E+03  0.28492846163E+03  0.83202126741E+02 0.  0.
          6    2    1    2  501    0 -0.80839272651E+02  0.30813438478E+02  0.70047016645E+03  0.72629209072E+03  0.17133969467E+03 0.  0.
         24    2    5    5    0    0  0.13757438274E+02 -0.19483924467E+02  0.34874878528E+03  0.35858516611E+03  0.79929442007E+02 0.  0.
          5    1    5    5  501    0 -0.94596710925E+02  0.50297362946E+02  0.35172138117E+03  0.36770692461E+03  0.47000000000E+01 0. -1.
        -11    1    6    6    0    0  0.28053259604E+02  0.22159847593E+02  0.10573881946E+03  0.11161873571E+03  0.00000000000E+00 0.  1.
         12    1    6    6    0    0 -0.14295821330E+02 -0.41643772061E+02  0.24300996581E+03  0.24696643040E+03  0.00000000000E+00 0. -1.
         -5    1    3    3    0  503  0.69191467468E+02 -0.15445920627E+01  0.39678192338E+02  0.79914290851E+02  0.47000000000E+01 0.  1.
         13    1    4    4    0    0  0.42988627818E+02 -0.89481955377E+01  0.86622291720E+02  0.97115980909E+02  0.00000000000E+00 0. -1.
        -14    1    4    4    0    0 -0.31340822635E+02 -0.20320650878E+02  0.18406072883E+03  0.18781248072E+03  0.00000000000E+00 0.  1.
<mgrwt>
<rscale>  2 0.19190581E+03</rscale>
<asrwt>0</asrwt>
<pdfrwt beam="1">  1       21 0.16168969E+00 0.19194204E+03</pdfrwt>
<pdfrwt beam="2">  1       21 0.61771903E-02 0.19194204E+03</pdfrwt>
<totfact> 0.45914430E+04</totfact>
</mgrwt>
</event>
<event>
12    1  0.1013215E-001  0.1850165E+03  0.7546771E-02  0.1163591E+00
         21   -1    0    0  501  502  0.00000000000E+00  0.00000000000E+00  0.31646753817E+03  0.31646753817E+03  0.00000000000E+00 0. -1.
         21   -1    0    0  502  503 -0.00000000000E+00 -0.00000000000E+00 -0.11379185804E+03  0.11379185804E+03  0.00000000000E+00 0. -1.
         -6    2    1    2    0  503 -0.34619553610E+02 -0.48511764235E+02  0.48576242201E+02  0.19128713339E+03  0.17515482104E+03 0.  0.
        -24    2    3    3    0    0  0.44527653596E+02 -0.28787599757E+01  0.37276152417E+02  0.99111032829E+02  0.80265098864E+02 0.  0.
          6    2    1    2  501    0  0.34619553610E+02  0.48511764235E+02  0.15409943793E+03  0.23897226281E+03  0.17265341254E+03 0.  0.
         24    2    5    5    0    0  0.65996886728E+02  0.20345954989E+02  0.16597488295E+03  0.19491586670E+03  0.75332505449E+02 0.  0.
          5    1    5    5  501    0 -0.31377333118E+02  0.28165809245E+02 -0.11875445023E+02  0.44056396114E+02  0.47000000000E+01 0. -1.
        -13    1    6    6    0    0  0.27786067928E+02  0.29109238609E+01  0.47863139052E+01  0.28345155660E+02  0.00000000000E+00 0.  1.
         14    1    6    6    0    0  0.38210818800E+02  0.17435031128E+02  0.16118856905E+03  0.16657071104E+03  0.00000000000E+00 0. -1.
         -5    1    3    3    0  503 -0.79147207206E+02 -0.45633004259E+02  0.11300089784E+02  0.92176100565E+02  0.47000000000E+01 0.  1.
         13    1    4    4    0    0  0.38722871869E+02  0.31680870157E+02  0.30466164293E+01  0.50124048234E+02  0.00000000000E+00 0. -1.
        -14    1    4    4    0    0  0.58047817271E+01 -0.34559630133E+02  0.34229535988E+02  0.48986984595E+02  0.00000000000E+00 0.  1.
<mgrwt>
<rscale>  2 0.18442210E+03</rscale>
<asrwt>0</asrwt>
<pdfrwt beam="1">  1       21 0.48687313E-01 0.18501653E+03</pdfrwt>
<pdfrwt beam="2">  1       21 0.17506440E-01 0.18501653E+03</pdfrwt>
<totfact> 0.11934908E+05</totfact>
</mgrwt>
</event>
<event>
12    1  0.1013215E-001  0.2041431E+03  0.7546771E-02  0.1146523E+00
         21   -1    0    0  501  502  0.00000000000E+00  0.00000000000E+00  0.38552710714E+03  0.38552710714E+03  0.00000000000E+00 0.  1.
         21   -1    0    0  502  503 -0.00000000000E+00 -0.00000000000E+00 -0.19753056779E+03  0.19753056779E+03  0.00000000000E+00 0.  1.
         -6    2    1    2    0  503  0.10323534552E+03  0.13021410956E+02 -0.10267551087E+03  0.22850965659E+03  0.17563401981E+03 0.  0.
        -24    2    3    3    0    0  0.44131158274E+02 -0.47362695779E+02 -0.10022685068E+03  0.14384779249E+03  0.80349123988E+02 0.  0.
          6    2    1    2  501    0 -0.10323534552E+03 -0.13021410956E+02  0.29067205022E+03  0.35454801834E+03  0.17431856705E+03 0.  0.
         24    2    5    5    0    0  0.42286447165E+01  0.17270343619E+02  0.17269336331E+03  0.19204521787E+03  0.82111033191E+02 0.  0.
          5    1    5    5  501    0 -0.10746399024E+03 -0.30291754575E+02  0.11797868692E+03  0.16250280047E+03  0.47000000000E+01 0. -1.
        -11    1    6    6    0    0 -0.21613011736E+02 -0.18497962431E+02  0.11994991159E+03  0.12327724113E+03  0.00000000000E+00 0.  1.
         12    1    6    6    0    0  0.25841656452E+02  0.35768306049E+02  0.52743451719E+02  0.68767976741E+02  0.00000000000E+00 0. -1.
         -5    1    3    3    0  503  0.59104187246E+02  0.60384106734E+02 -0.24486601920E+01  0.84661864100E+02  0.47000000000E+01 0.  1.
         11    1    4    4    0    0 -0.51805460501E+01 -0.41353918701E+01  0.12090537080E+02  0.13788423049E+02  0.00000000000E+00 0. -1.
        -12    1    4    4    0    0  0.49311704324E+02 -0.43227303909E+02 -0.11231738776E+03  0.13005936944E+03  0.00000000000E+00 0.  1.
<mgrwt>
<rscale>  2 0.20385984E+03</rscale>
<asrwt>0</asrwt>
<pdfrwt beam="1">  1       21 0.59311862E-01 0.20414309E+03</pdfrwt>
<pdfrwt beam="2">  1       21 0.30389318E-01 0.20414309E+03</pdfrwt>
<totfact> 0.27423234E+04</totfact>
</mgrwt>
</event>
<event>
12    1  0.1013215E-001  0.2075743E+03  0.7546771E-02  0.1145646E+00
         21   -1    0    0  503  502  0.00000000000E+00  0.00000000000E+00  0.13332053152E+03  0.13332053152E+03  0.00000000000E+00 0. -1.
         21   -1    0    0  501  503 -0.00000000000E+00 -0.00000000000E+00 -0.66022460425E+03  0.66022460425E+03  0.00000000000E+00 0.  1.
          6    2    1    2  501    0  0.14661347817E+02 -0.11356221089E+03 -0.55667822420E+03  0.59411930950E+03  0.17313514304E+03 0.  0.
         24    2    3    3    0    0  0.56940787784E+02 -0.52090246134E+02 -0.18689959734E+03  0.21685988101E+03  0.78365180101E+02 0.  0.
         -6    2    1    2    0  502 -0.14661347817E+02  0.11356221089E+03  0.29774151476E+02  0.19942582627E+03  0.16053918283E+03 0.  0.
        -24    2    5    5    0    0  0.24499495574E+02  0.21889849066E+02  0.46726907405E+02  0.98198954778E+02  0.79876404953E+02 0.  0.
          5    1    3    3  501    0 -0.42279439967E+02 -0.61471964759E+02 -0.36977862687E+03  0.37725942849E+03  0.47000000000E+01 0. -1.
        -11    1    4    4    0    0 -0.70143195786E+01 -0.15682314295E+02 -0.10645296223E+03  0.10783027788E+03  0.00000000000E+00 0.  1.
         12    1    4    4    0    0  0.63955107363E+02 -0.36407931839E+02 -0.80446635107E+02  0.10902960313E+03  0.00000000000E+00 0. -1.
         -5    1    5    5    0  502 -0.39160843392E+02  0.91672361827E+02 -0.16952755929E+02  0.10122687149E+03  0.47000000000E+01 0.  1.
         13    1    6    6    0    0  0.77294855410E+01  0.40549238138E+02  0.57593267788E+02  0.70858804356E+02  0.00000000000E+00 0. -1.
        -14    1    6    6    0    0  0.16770010034E+02 -0.18659389072E+02 -0.10866360383E+02  0.27340150421E+02  0.00000000000E+00 0.  1.
<mgrwt>
<rscale>  2 0.20492826E+03</rscale>
<asrwt>0</asrwt>
<pdfrwt beam="1">  1       21 0.20510851E-01 0.20757434E+03</pdfrwt>
<pdfrwt beam="2">  1       21 0.10157301E+00 0.20757434E+03</pdfrwt>
<totfact> 0.17253210E+04</totfact>
</mgrwt>
</event>
<event>
12    1  0.1013215E-001  0.2167112E+03  0.7546771E-02  0.1136978E+00
         21   -1    0    0  501  502  0.00000000000E+00  0.00000000000E+00  0.17484271500E+03  0.17484271500E+03  0.00000000000E+00 0. -1.
         21   -1    0    0  502  503 -0.00000000000E+00 -0.00000000000E+00 -0.27836775261E+03  0.27836775261E+03  0.00000000000E+00 0. -1.
         -6    2    1    2    0  503 -0.88521227484E+02 -0.88468840939E+02 -0.17645551598E+01  0.21671837050E+03  0.17692087193E+03 0.  0.
        -24    2    3    3    0    0 -0.43893533203E+00 -0.10378796279E+02  0.42248804134E+02  0.90957442301E+02  0.79877298294E+02 0.  0.
          6    2    1    2  501    0  0.88521227484E+02  0.88468840939E+02 -0.10176048245E+03  0.23649209711E+03  0.17294673364E+03 0.  0.
         24    2    5    5    0    0  0.32721847645E+02 -0.15439472862E+02 -0.11552247972E+02  0.87931927369E+02  0.79306196366E+02 0.  0.
          5    1    5    5  501    0  0.55799379839E+02  0.10390831380E+03 -0.90208234476E+02  0.14856016974E+03  0.47000000000E+01 0. -1.
        -13    1    6    6    0    0  0.49424713058E+02  0.12667946891E+02  0.50333869398E+01  0.51270011930E+02  0.00000000000E+00 0.  1.
         14    1    6    6    0    0 -0.16702865412E+02 -0.28107419753E+02 -0.16585634912E+02  0.36661915438E+02  0.00000000000E+00 0. -1.
         -5    1    3    3    0  503 -0.88082292152E+02 -0.78090044659E+02 -0.44013359294E+02  0.12576092820E+03  0.47000000000E+01 0.  1.
         11    1    4    4    0    0 -0.18869910808E+02 -0.17054698818E+02 -0.15627016350E+02  0.29851966864E+02  0.00000000000E+00 0. -1.
        -12    1    4    4    0    0  0.18430975476E+02  0.66759025386E+01  0.57875820484E+02  0.61105475437E+02  0.00000000000E+00 0.  1.
<mgrwt>
<rscale>  2 0.21589860E+03</rscale>
<asrwt>0</asrwt>
<pdfrwt beam="1">  1       21 0.26898879E-01 0.21671119E+03</pdfrwt>
<pdfrwt beam="2">  1       21 0.42825808E-01 0.21671119E+03</pdfrwt>
<totfact> 0.68306435E+04</totfact>
</mgrwt>
</event>
<event>
12    1  0.1013215E-001  0.1753355E+03  0.7546771E-02  0.1172428E+00
         21   -1    0    0  503  502  0.00000000000E+00  0.00000000000E+00  0.20263946027E+03  0.20263946027E+03  0.00000000000E+00 0. -1.
         21   -1    0    0  501  503 -0.00000000000E+00 -0.00000000000E+00 -0.19396106357E+03  0.19396106357E+03  0.00000000000E+00 0. -1.
          6    2    1    2  501    0  0.10423333131E+02 -0.23856548582E+02 -0.88335958401E+02  0.19633078464E+03  0.17339191062E+03 0.  0.
         24    2    3    3    0    0  0.25385779152E+02 -0.49778158305E+02  0.48155649998E+01  0.98376198463E+02  0.80823164566E+02 0.  0.
         -6    2    1    2    0  502 -0.10423333131E+02  0.23856548582E+02  0.97014355100E+02  0.20026973920E+03  0.17325819623E+03 0.  0.
        -24    2    5    5    0    0  0.60535860936E+01  0.54133187638E+02 -0.13593248259E+01  0.95925910240E+02  0.78948619893E+02 0.  0.
          5    1    3    3  501    0 -0.14962446021E+02  0.25921609723E+02 -0.93151523401E+02  0.97954586179E+02  0.47000000000E+01 0. -1.
        -13    1    4    4    0    0 -0.33484558916E+01 -0.30713222433E+02  0.39043989849E+02  0.49789028233E+02  0.00000000000E+00 0.  1.
         14    1    4    4    0    0  0.28734235044E+02 -0.19064935872E+02 -0.34228424849E+02  0.48587170230E+02  0.00000000000E+00 0. -1.
         -5    1    5    5    0  502 -0.16476919224E+02 -0.30276639056E+02  0.98373679926E+02  0.10434382896E+03  0.47000000000E+01 0.  1.
         13    1    6    6    0    0  0.22253104021E+01  0.26099419190E+02  0.38791580350E+02  0.46807247243E+02  0.00000000000E+00 0. -1.
        -14    1    6    6    0    0  0.38282756915E+01  0.28033768448E+02 -0.40150905176E+02  0.49118662997E+02  0.00000000000E+00 0.  1.
<mgrwt>
<rscale>  2 0.17530243E+03</rscale>
<asrwt>0</asrwt>
<pdfrwt beam="1">  1       21 0.31175301E-01 0.17533549E+03</pdfrwt>
<pdfrwt beam="2">  1       21 0.29840164E-01 0.17533549E+03</pdfrwt>
<totfact> 0.10712812E+05</totfact>
</mgrwt>
</event>
<event>
12    1  0.1013215E-001  0.2033586E+03  0.7546771E-02  0.1147191E+00
         21   -1    0    0  503  502  0.00000000000E+00  0.00000000000E+00  0.52395313678E+02  0.52395313678E+02  0.00000000000E+00 0.  1.
         21   -1    0    0  501  503 -0.00000000000E+00 -0.00000000000E+00 -0.19716525870E+04  0.19716525870E+04  0.00000000000E+00 0.  1.
          6    2    1    2  501    0  0.10438317789E+03 -0.22994422805E+02 -0.17437525113E+04  0.17554280280E+04  0.17155217693E+03 0.  0.
         24    2    3    3    0    0  0.13383951298E+03 -0.36267345338E+02 -0.14449832635E+04  0.14548801955E+04  0.97321200148E+02 0.  0.
         -6    2    1    2    0  502 -0.10438317789E+03  0.22994422805E+02 -0.17550476200E+03  0.26861987268E+03  0.17300324624E+03 0.  0.
        -24    2    5    5    0    0  0.84229301194E+01 -0.20988427990E+01 -0.90662861845E+02  0.12517954361E+03  0.85876729838E+02 0.  0.
          5    1    3    3  501    0 -0.29456335085E+02  0.13272922533E+02 -0.29876924786E+03  0.30054783249E+03  0.47000000000E+01 0. -1.
        -13    1    4    4    0    0  0.12765862668E+03  0.19387005774E+01 -0.97850277147E+03  0.98679691797E+03  0.00000000000E+00 0.  1.
         14    1    4    4    0    0  0.61808862940E+01 -0.38206045915E+02 -0.46648049202E+03  0.46808327756E+03  0.00000000000E+00 0. -1.
         -5    1    5    5    0  502 -0.11280610801E+03  0.25093265604E+02 -0.84841900154E+02  0.14344032907E+03  0.47000000000E+01 0.  1.
         13    1    6    6    0    0 -0.30466232065E+02  0.83285751694E+01 -0.76048500081E+02  0.82346407482E+02  0.00000000000E+00 0. -1.
        -14    1    6    6    0    0  0.38889162184E+02 -0.10427417968E+02 -0.14614361764E+02  0.42833136129E+02  0.00000000000E+00 0.  1.
<mgrwt>
<rscale>  2 0.20304963E+03</rscale>
<asrwt>0</asrwt>
<pdfrwt beam="1">  1       21 0.80608203E-02 0.20335859E+03</pdfrwt>
<pdfrwt beam="2">  1       21 0.30333106E+00 0.20335859E+03</pdfrwt>
<totfact> 0.38199401E+03</totfact>
</mgrwt>
</event>
<event>
11    1  0.1013215E-001  0.1921336E+03  0.7546771E-02  0.1156602E+00
         21   -1    0    0  501  502  0.00000000000E+00  0.00000000000E+00  0.54365071764E+02  0.54365071764E+02  0.00000000000E+00 0.  1.
         21   -1    0    0  502  503 -0.00000000000E+00 -0.00000000000E+00 -0.10081855622E+04  0.10081855622E+04  0.00000000000E+00 0.  1.
         -6    2    1    2    0  503  0.56779859542E+02 -0.59769452500E+02 -0.78065686399E+03  0.80389842096E+03  0.17329510101E+03 0.  0.
        -24    2    3    3    0    0  0.10410101743E+03 -0.27704175961E+02 -0.51128649733E+03  0.52848970945E+03  0.79265045553E+02 0.  0.
          6    2    1    2  501    0 -0.56779859542E+02  0.59769452500E+02 -0.17316362649E+03  0.25865221304E+03  0.17354822348E+03 0.  0.
          5    1    5    5  501    0 -0.59286770048E+02  0.19150705461E+02 -0.83683921540E+02  0.10443543147E+03  0.47000000000E+01 0. -1.
        -13    1    5    5    0    0 -0.31468920944E+02  0.72320495067E+02 -0.51429363280E+02  0.94156924331E+02  0.00000000000E+00 0.  1.
         14    1    5    5    0    0  0.33975831449E+02 -0.31701748028E+02 -0.38050341671E+02  0.60059857242E+02  0.00000000000E+00 0. -1.
         -5    1    3    3    0  503 -0.47321157891E+02 -0.32065276539E+02 -0.26937036666E+03  0.27540871151E+03  0.47000000000E+01 0.  1.
         11    1    4    4    0    0  0.82476027892E+01 -0.12558906402E+02 -0.23820016383E+03  0.23867355766E+03  0.00000000000E+00 0. -1.
        -12    1    4    4    0    0  0.95853414644E+02 -0.15145269559E+02 -0.27308633350E+03  0.28981615179E+03  0.00000000000E+00 0.  1.
<mgrwt>
<rscale>  2 0.19207644E+03</rscale>
<asrwt>0</asrwt>
<pdfrwt beam="1">  1       21 0.83638567E-02 0.19213361E+03</pdfrwt>
<pdfrwt beam="2">  1       21 0.15510548E+00 0.19213361E+03</pdfrwt>
<totfact> 0.30392105E+04</totfact>
</mgrwt>
</event>
<event>
12    1  0.1013215E-001  0.2120636E+03  0.7546771E-02  0.1142541E+00
         21   -1    0    0  501  502  0.00000000000E+00  0.00000000000E+00  0.27181866472E+02  0.27181866472E+02  0.00000000000E+00 0. -1.
         21   -1    0    0  502  503 -0.00000000000E+00 -0.00000000000E+00 -0.16242647314E+04  0.16242647314E+04  0.00000000000E+00 0. -1.
         -6    2    1    2    0  503 -0.85889904634E+02 -0.49750812076E+02 -0.99205888793E+03  0.10144712063E+04  0.18740003274E+03 0.  0.
        -24    2    3    3    0    0 -0.72454081684E+02 -0.10617891655E+03 -0.78026090581E+03  0.79482347118E+03  0.80085659971E+02 0.  0.
          6    2    1    2  501    0  0.85889904634E+02  0.49750812076E+02 -0.60502397696E+03  0.63697539153E+03  0.17271773998E+03 0.  0.
         24    2    5    5    0    0 -0.14617257623E+02  0.65803794229E+01 -0.22905425254E+03  0.24538798163E+03  0.86558912338E+02 0.  0.
          5    1    5    5  501    0  0.10050716226E+03  0.43170432653E+02 -0.37596972441E+03  0.39158740990E+03  0.47000000000E+01 0. -1.
        -11    1    6    6    0    0 -0.22403374357E+02 -0.78845699473E+01 -0.22766664250E+03  0.22890211387E+03  0.00000000000E+00 0.  1.
         12    1    6    6    0    0  0.77861167345E+01  0.14464949370E+02 -0.13876100413E+01  0.16485867757E+02  0.00000000000E+00 0. -1.
         -5    1    3    3    0  503 -0.13435822950E+02  0.56428104472E+02 -0.21179798213E+03  0.21964773513E+03  0.47000000000E+01 0.  1.
         11    1    4    4    0    0 -0.13613564033E+02 -0.34946810595E+02 -0.78415863900E+02  0.86923278860E+02  0.00000000000E+00 0. -1.
        -12    1    4    4    0    0 -0.58840517652E+02 -0.71232105952E+02 -0.70184504191E+03  0.70790019232E+03  0.00000000000E+00 0.  1.
<mgrwt>
<rscale>  2 0.20877385E+03</rscale>
<asrwt>0</asrwt>
<pdfrwt beam="1">  1       21 0.41818243E-02 0.21206365E+03</pdfrwt>
<pdfrwt beam="2">  1       21 0.24988696E+00 0.21206365E+03</pdfrwt>
<totfact> 0.23832805E+04</totfact>
</mgrwt>
</event>
<event>
12    1  0.1013215E-001  0.2523752E+03  0.7546771E-02  0.1111992E+00
         21   -1    0    0  501  502  0.00000000000E+00  0.00000000000E+00  0.22656478531E+04  0.22656478531E+04  0.00000000000E+00 0. -1.
         21   -1    0    0  502  503 -0.00000000000E+00 -0.00000000000E+00 -0.28751011297E+02  0.28751011297E+02  0.00000000000E+00 0.  1.
         -6    2    1    2    0  503 -0.45539558220E+02 -0.17675968108E+03  0.13081949027E+04  0.13323164660E+04  0.17428547195E+03 0.  0.
        -24    2    3    3    0    0 -0.85701546246E+02 -0.11873742052E+03  0.10976682192E+04  0.11102283247E+04  0.79297436973E+02 0.  0.
          6    2    1    2  501    0  0.45539558220E+02  0.17675968108E+03  0.92870193909E+03  0.96208239845E+03  0.17261927332E+03 0.  0.
         24    2    5    5    0    0  0.19578436670E+02  0.19860377990E+03  0.75669896663E+03  0.78670207738E+03  0.80498794228E+02 0.  0.
          5    1    5    5  501    0  0.25961121550E+02 -0.21844098824E+02  0.17200297246E+03  0.17538032107E+03  0.47000000000E+01 0. -1.
        -13    1    6    6    0    0  0.26803674953E+02  0.14478712281E+03  0.65572165728E+03  0.67205106930E+03  0.00000000000E+00 0.  1.
         14    1    6    6    0    0 -0.72252382830E+01  0.53816657089E+02  0.10097730935E+03  0.11465100807E+03  0.00000000000E+00 0. -1.
         -5    1    3    3    0  503  0.40161988026E+02 -0.58022260554E+02  0.21052668351E+03  0.22208814122E+03  0.47000000000E+01 0.  1.
         13    1    4    4    0    0  0.13963474834E+02 -0.73475361402E+01  0.15257782047E+03  0.15339151286E+03  0.00000000000E+00 0. -1.
        -14    1    4    4    0    0 -0.99665021080E+02 -0.11138988438E+03  0.94509039873E+03  0.95683681187E+03  0.00000000000E+00 0.  1.
<mgrwt>
<rscale>  2 0.25208781E+03</rscale>
<asrwt>0</asrwt>
<pdfrwt beam="1">  1       21 0.34856107E+00 0.25237524E+03</pdfrwt>
<pdfrwt beam="2">  1       21 0.44232343E-02 0.25237524E+03</pdfrwt>
<totfact> 0.55261399E+03</totfact>
</mgrwt>
</event>
<event>
12    1  0.1013215E-001  0.1736872E+03  0.7546771E-02  0.1174214E+00
         21   -1    0    0  503  502  0.00000000000E+00  0.00000000000E+00  0.32551260390E+03  0.32551260390E+03  0.00000000000E+00 0.  1.
         21   -1    0    0  501  503 -0.00000000000E+00 -0.00000000000E+00 -0.13571311657E+03  0.13571311657E+03  0.00000000000E+00 0.  1.
          6    2    1    2  501    0 -0.56658656284E+01  0.14745074251E+02 -0.35349253673E+02  0.17724789539E+03  0.17296741727E+03 0.  0.
         24    2    3    3    0    0  0.61705854881E+02  0.33840723351E+01 -0.14616523372E+01  0.10083794438E+03  0.79668626991E+02 0.  0.
         -6    2    1    2    0  502  0.56658656284E+01 -0.14745074251E+02  0.22514874100E+03  0.28397782508E+03  0.17234247972E+03 0.  0.
        -24    2    5    5    0    0  0.68947079089E+02 -0.25592391692E+02  0.14954607215E+03  0.18468014228E+03  0.79586789290E+02 0.  0.
          5    1    3    3  501    0 -0.67371720509E+02  0.11361001916E+02 -0.33887601335E+02  0.76409951009E+02  0.47000000000E+01 0. -1.
        -13    1    4    4    0    0  0.41105512598E+01 -0.17704035268E+02 -0.28504845544E+02  0.33806149084E+02  0.00000000000E+00 0.  1.
         14    1    4    4    0    0  0.57595303621E+02  0.21088107603E+02  0.27043193206E+02  0.67031795293E+02  0.00000000000E+00 0. -1.
         -5    1    5    5    0  502 -0.63281213461E+02  0.10847317441E+02  0.75602668852E+02  0.99297682804E+02  0.47000000000E+01 0.  1.
         13    1    6    6    0    0  0.75914177730E+01 -0.38578223449E+02  0.29205526369E+02  0.48978278030E+02  0.00000000000E+00 0. -1.
        -14    1    6    6    0    0  0.61355661316E+02  0.12985831757E+02  0.12034054578E+03  0.13570186425E+03  0.00000000000E+00 0.  1.
<mgrwt>
<rscale>  2 0.17353142E+03</rscale>
<asrwt>0</asrwt>
<pdfrwt beam="1">  1       21 0.50078862E-01 0.17368721E+03</pdfrwt>
<pdfrwt beam="2">  1       21 0.20878941E-01 0.17368721E+03</pdfrwt>
<totfact> 0.81520830E+04</totfact>
</mgrwt>
</event>
<event>
12    1  0.1013215E-001  0.2231019E+03  0.7546771E-02  0.1133746E+00
         21   -1    0    0  501  502  0.00000000000E+00  0.00000000000E+00  0.21041180908E+03  0.21041180908E+03  0.00000000000E+00 0. -1.
         21   -1    0    0  502  503 -0.00000000000E+00 -0.00000000000E+00 -0.35279917729E+03  0.35279917729E+03  0.00000000000E+00 0. -1.
         -6    2    1    2    0  503 -0.91807311192E+02  0.78713527611E+02 -0.23973203422E+03  0.31979687094E+03  0.17370719217E+03 0.  0.
        -24    2    3    3    0    0 -0.73888566933E+02  0.37233389921E+02 -0.52050799508E+02  0.12669581169E+03  0.80602092542E+02 0.  0.
          6    2    1    2  501    0  0.91807311192E+02 -0.78713527611E+02  0.97344666010E+02  0.24341411543E+03  0.18748345466E+03 0.  0.
         24    2    5    5    0    0  0.43528524701E+02  0.34392925050E+02  0.55755400282E+02  0.11350773420E+03  0.81839692738E+02 0.  0.
          5    1    5    5  501    0  0.48278786491E+02 -0.11310645266E+03  0.41589265728E+02  0.12990638122E+03  0.47000000000E+01 0. -1.
        -13    1    6    6    0    0 -0.91048115414E+01  0.35357559302E+02 -0.43093055267E+00  0.36513563153E+02  0.00000000000E+00 0.  1.
         14    1    6    6    0    0  0.52633336243E+02 -0.96463425218E+00  0.56186330835E+02  0.76994171052E+02  0.00000000000E+00 0. -1.
         -5    1    3    3    0  503 -0.17918744258E+02  0.41480137690E+02 -0.18768123472E+03  0.19310105925E+03  0.47000000000E+01 0.  1.
         13    1    4    4    0    0 -0.71464274776E+02  0.19482562087E+02 -0.69582781379E+02  0.10162911128E+03  0.00000000000E+00 0. -1.
        -14    1    4    4    0    0 -0.24242921573E+01  0.17750827834E+02  0.17531981871E+02  0.25066700413E+02  0.00000000000E+00 0.  1.
<mgrwt>
<rscale>  2 0.22018385E+03</rscale>
<asrwt>0</asrwt>
<pdfrwt beam="1">  1       21 0.32371047E-01 0.22310188E+03</pdfrwt>
<pdfrwt beam="2">  1       21 0.54276797E-01 0.22310188E+03</pdfrwt>
<totfact> 0.28976142E+04</totfact>
</mgrwt>
</event>
<event>
12    1  0.1013215E-001  0.1987294E+03  0.7546771E-02  0.1151129E+00
         21   -1    0    0  503  502  0.00000000000E+00  0.00000000000E+00  0.52676317446E+03  0.52676317446E+03  0.00000000000E+00 0.  1.
         21   -1    0    0  501  503 -0.00000000000E+00 -0.00000000000E+00 -0.87759594174E+02  0.87759594174E+02  0.00000000000E+00 0.  1.
          6    2    1    2  501    0  0.48557492577E+02 -0.79130762406E+02  0.99017543890E+02  0.22071583828E+03  0.17404453346E+03 0.  0.
         24    2    3    3    0    0  0.73948783903E+02 -0.10728951955E+03  0.56087326611E+02  0.16324648267E+03  0.80772286403E+02 0.  0.
         -6    2    1    2    0  502 -0.48557492577E+02  0.79130762406E+02  0.33998603640E+03  0.39380693035E+03  0.17570966337E+03 0.  0.
        -24    2    5    5    0    0 -0.82592655461E+02  0.90974944199E+02  0.31931596510E+03  0.35199761557E+03  0.82714258695E+02 0.  0.
          5    1    3    3  501    0 -0.25391291326E+02  0.28158757147E+02  0.42930217279E+02  0.57469355616E+02  0.47000000000E+01 0. -1.
        -11    1    4    4    0    0  0.27622331013E+02 -0.95922117607E+02  0.58110817346E+02  0.11550286970E+03  0.00000000000E+00 0.  1.
         12    1    4    4    0    0  0.46326452890E+02 -0.11367401946E+02 -0.20234907352E+01  0.47743612967E+02  0.00000000000E+00 0. -1.
         -5    1    5    5    0  502  0.34035162884E+02 -0.11844181793E+02  0.20670071295E+02  0.41809314778E+02  0.47000000000E+01 0.  1.
         13    1    6    6    0    0 -0.16105734048E+02  0.36108314160E+01  0.14536429553E+03  0.14629836358E+03  0.00000000000E+00 0. -1.
        -14    1    6    6    0    0 -0.66486921413E+02  0.87364112783E+02  0.17395166957E+03  0.20569925199E+03  0.00000000000E+00 0.  1.
<mgrwt>
<rscale>  2 0.19836074E+03</rscale>
<asrwt>0</asrwt>
<pdfrwt beam="1">  1       21 0.81040487E-01 0.19872945E+03</pdfrwt>
<pdfrwt beam="2">  1       21 0.13501476E-01 0.19872945E+03</pdfrwt>
<totfact> 0.63234729E+04</totfact>
</mgrwt>
</event>
<event>
12    1  0.1013215E-001  0.2604576E+03  0.7546771E-02  0.1108651E+00
         21   -1    0    0  503  502  0.00000000000E+00  0.00000000000E+00  0.96644243624E+02  0.96644243624E+02  0.00000000000E+00 0.  1.
         21   -1    0    0  501  503 -0.00000000000E+00 -0.00000000000E+00 -0.98583169113E+03  0.98583169113E+03  0.00000000000E+00 0. -1.
          6    2    1    2  501    0 -0.21361242748E+02 -0.17769749076E+03 -0.74350178332E+03  0.78404254223E+03  0.17290201075E+03 0.  0.
         24    2    3    3    0    0 -0.52604929297E+02 -0.34083401833E+02 -0.24906681800E+03  0.26820419603E+03  0.77267419211E+02 0.  0.
         -6    2    1    2    0  502  0.21361242748E+02  0.17769749076E+03 -0.14568566419E+03  0.29843339252E+03  0.18922334980E+03 0.  0.
        -24    2    5    5    0    0 -0.49904146583E+02  0.12365891577E+03 -0.13856964780E+03  0.20859102506E+03  0.80788100271E+02 0.  0.
          5    1    3    3  501    0  0.31243686549E+02 -0.14361408893E+03 -0.49443496532E+03  0.51583834620E+03  0.47000000000E+01 0. -1.
        -13    1    4    4    0    0 -0.72572064341E+01 -0.40708867738E+02 -0.55063198609E+02  0.68860981686E+02  0.00000000000E+00 0.  1.
         14    1    4    4    0    0 -0.45347722863E+02  0.66254659052E+01 -0.19400361939E+03  0.19934321434E+03  0.00000000000E+00 0. -1.
         -5    1    5    5    0  502  0.71265389331E+02  0.54038574989E+02 -0.71160163882E+01  0.89842367469E+02  0.47000000000E+01 0.  1.
         11    1    6    6    0    0  0.79550762238E+01  0.67994779156E+02 -0.95434558794E+02  0.11744925816E+03  0.00000000000E+00 0. -1.
        -12    1    6    6    0    0 -0.57859222807E+02  0.55664136615E+02 -0.43135089010E+02  0.91141766895E+02  0.00000000000E+00 0.  1.
<mgrwt>
<rscale>  2 0.25750670E+03</rscale>
<asrwt>0</asrwt>
<pdfrwt beam="1">  1       21 0.14868345E-01 0.26045763E+03</pdfrwt>
<pdfrwt beam="2">  1       21 0.15166641E+00 0.26045763E+03</pdfrwt>
<totfact> 0.11066720E+04</totfact>
</mgrwt>
</event>
<event>
12    1  0.1013215E-001  0.1952726E+03  0.7546771E-02  0.1154794E+00
         21   -1    0    0  501  502  0.00000000000E+00  0.00000000000E+00  0.30263720760E+03  0.30263720760E+03  0.00000000000E+00 0. -1.
         21   -1    0    0  502  503 -0.00000000000E+00 -0.00000000000E+00 -0.13674119304E+03  0.13674119304E+03  0.00000000000E+00 0. -1.
         -6    2    1    2    0  503  0.59367897527E+02 -0.65293428026E+02  0.15151775162E+03  0.24357712677E+03  0.16906924212E+03 0.  0.
        -24    2    3    3    0    0 -0.15649337947E+02  0.11241327326E+02  0.50729994046E+02  0.96385359097E+02  0.79657616925E+02 0.  0.
          6    2    1    2  501    0 -0.59367897527E+02  0.65293428026E+02  0.14378262939E+02  0.19580127386E+03  0.17419421747E+03 0.  0.
         24    2    5    5    0    0  0.78692802898E+01 -0.16223193238E+02 -0.20244571758E+02  0.84506043477E+02  0.80039434826E+02 0.  0.
          5    1    5    5  501    0 -0.67237177817E+02  0.81516621264E+02  0.34622834697E+02  0.11129523038E+03  0.47000000000E+01 0. -1.
        -13    1    6    6    0    0 -0.31830034186E+02 -0.23852785358E+02 -0.18950894378E+02  0.44059537485E+02  0.00000000000E+00 0.  1.
         14    1    6    6    0    0  0.39699314476E+02  0.76295921203E+01 -0.12936773798E+01  0.40446505992E+02  0.00000000000E+00 0. -1.
         -5    1    3    3    0  503  0.75017235474E+02 -0.76534755352E+02  0.10078775757E+03  0.14719176768E+03  0.47000000000E+01 0.  1.
         11    1    4    4    0    0 -0.23389747464E+02 -0.15540101449E+02 -0.98014211388E+01  0.29742946993E+02  0.00000000000E+00 0. -1.
        -12    1    4    4    0    0  0.77404095176E+01  0.26781428776E+02  0.60531415185E+02  0.66642412104E+02  0.00000000000E+00 0.  1.
<mgrwt>
<rscale>  2 0.19412310E+03</rscale>
<asrwt>0</asrwt>
<pdfrwt beam="1">  1       21 0.46559570E-01 0.19527264E+03</pdfrwt>
<pdfrwt beam="2">  1       21 0.21037107E-01 0.19527264E+03</pdfrwt>
<totfact> 0.92667785E+04</totfact>
</mgrwt>
</event>
<event>
12    1  0.1013215E-001  0.2080229E+03  0.7546771E-02  0.1143557E+00
         21   -1    0    0  503  502  0.00000000000E+00  0.00000000000E+00  0.17282679423E+03  0.17282679423E+03  0.00000000000E+00 0. -1.
         21   -1    0    0  501  503 -0.00000000000E+00 -0.00000000000E+00 -0.24811714049E+03  0.24811714049E+03  0.00000000000E+00 0. -1.
          6    2    1    2  501    0  0.46995617166E+02 -0.10005339749E+03 -0.31701422634E+02  0.21042454665E+03  0.17622213043E+03 0.  0.
         24    2    3    3    0    0  0.82870644707E+02 -0.11857473873E+03 -0.35433177914E+02  0.16960698083E+03  0.81138803484E+02 0.  0.
         -6    2    1    2    0  502 -0.46995617166E+02  0.10005339749E+03 -0.43588923622E+02  0.21051938806E+03  0.17377902090E+03 0.  0.
        -24    2    5    5    0    0 -0.93577498586E+02  0.54095383558E+02 -0.52494097369E+02  0.14431211625E+03  0.79920572287E+02 0.  0.
          5    1    3    3  501    0 -0.35875027540E+02  0.18521341236E+02  0.37317552800E+01  0.40817565822E+02  0.47000000000E+01 0. -1.
        -11    1    4    4    0    0  0.36457877798E+01 -0.17085425877E+02  0.22447481061E+02  0.28444559268E+02  0.00000000000E+00 0.  1.
         12    1    4    4    0    0  0.79224856927E+02 -0.10148931285E+03 -0.57880658975E+02  0.14116242156E+03  0.00000000000E+00 0. -1.
         -5    1    5    5    0  502  0.46581881420E+02  0.45958013932E+02  0.89051737477E+01  0.66207271811E+02  0.47000000000E+01 0.  1.
         13    1    6    6    0    0 -0.43876980190E+02  0.22299369918E+02  0.17980785979E+02  0.52399999559E+02  0.00000000000E+00 0. -1.
        -14    1    6    6    0    0 -0.49700518396E+02  0.31796013640E+02 -0.70474883348E+02  0.91912116694E+02  0.00000000000E+00 0.  1.
<mgrwt>
<rscale>  2 0.20750454E+03</rscale>
<asrwt>0</asrwt>
<pdfrwt beam="1">  1       21 0.26588738E-01 0.20802286E+03</pdfrwt>
<pdfrwt beam="2">  1       21 0.38171868E-01 0.20802286E+03</pdfrwt>
<totfact> 0.88522298E+04</totfact>
</mgrwt>
</event>
<event>
12    1  0.1013215E-001  0.1742376E+03  0.7546771E-02  0.1174252E+00
         21   -1    0    0  503  502  0.00000000000E+00  0.00000000000E+00  0.85499723292E+02  0.85499723292E+02  0.00000000000E+00 0.  1.
         21   -1    0    0  501  503 -0.00000000000E+00 -0.00000000000E+00 -0.42005187027E+03  0.42005187027E+03  0.00000000000E+00 0.  1.
          6    2    1    2  501    0  0.26308417147E+00 -0.16432011332E+02 -0.27236363972E+03  0.32332752827E+03  0.17346082579E+03 0.  0.
         24    2    3    3    0    0  0.11448629367E+02 -0.17467983407E+02 -0.29000042374E+03  0.30189540729E+03  0.81267395749E+02 0.  0.
         -6    2    1    2    0  502 -0.26308417147E+00  0.16432011332E+02 -0.62188507255E+02  0.18222406529E+03  0.17049375158E+03 0.  0.
        -24    2    5    5    0    0 -0.32065573252E+02  0.38620841479E+02 -0.93150345321E+02  0.13237962818E+03  0.79546267908E+02 0.  0.
          5    1    3    3  501    0 -0.11185545196E+02  0.10359720748E+01  0.17636784016E+02  0.21432120985E+02  0.47000000000E+01 0. -1.
        -13    1    4    4    0    0 -0.27255956845E+02 -0.20443669324E+02 -0.21252750550E+03  0.21524119354E+03  0.00000000000E+00 0.  1.
         14    1    4    4    0    0  0.38704586212E+02  0.29756859171E+01 -0.77472918236E+02  0.86654213749E+02  0.00000000000E+00 0. -1.
         -5    1    5    5    0  502  0.31802489081E+02 -0.22188830148E+02  0.30961838066E+02  0.49844437117E+02  0.47000000000E+01 0.  1.
         13    1    6    6    0    0 -0.74392747160E+01 -0.24830353351E+02 -0.28121487180E+02  0.38245356542E+02  0.00000000000E+00 0. -1.
        -14    1    6    6    0    0 -0.24626298536E+02  0.63451194830E+02 -0.65028858142E+02  0.94134271635E+02  0.00000000000E+00 0.  1.
<mgrwt>
<rscale>  2 0.17349445E+03</rscale>
<asrwt>0</asrwt>
<pdfrwt beam="1">  1       21 0.13153803E-01 0.17423759E+03</pdfrwt>
<pdfrwt beam="2">  1       21 0.64623366E-01 0.17423759E+03</pdfrwt>
<totfact> 0.11060647E+05</totfact>
</mgrwt>
</event>
<event>
12    1  0.1013215E-001  0.2041464E+03  0.7546771E-02  0.1146397E+00
         21   -1    0    0  503  502  0.00000000000E+00  0.00000000000E+00  0.18231875192E+03  0.18231875192E+03  0.00000000000E+00 0.  1.
         21   -1    0    0  501  503 -0.00000000000E+00 -0.00000000000E+00 -0.71233370805E+03  0.71233370805E+03  0.00000000000E+00 0. -1.
          6    2    1    2  501    0 -0.64484404619E+02  0.86381684190E+02 -0.63397553521E+03  0.66603357944E+03  0.17336584408E+03 0.  0.
         24    2    3    3    0    0 -0.95270432871E+02  0.51942634640E+02 -0.29675231929E+03  0.32562879830E+03  0.78725361885E+02 0.  0.
         -6    2    1    2    0  502  0.64484404619E+02 -0.86381684190E+02  0.10396057908E+03  0.22861888052E+03  0.17273898438E+03 0.  0.
        -24    2    5    5    0    0  0.72127303445E+02 -0.11121515160E+03  0.12113112723E+03  0.19712232944E+03  0.81322229003E+02 0.  0.
          5    1    3    3  501    0  0.30786028252E+02  0.34439049550E+02 -0.33722321592E+03  0.34040478114E+03  0.47000000000E+01 0. -1.
        -11    1    4    4    0    0 -0.62273990811E+00  0.37076348366E+02 -0.10324600415E+03  0.10970314847E+03  0.00000000000E+00 0.  1.
         12    1    4    4    0    0 -0.94647692963E+02  0.14866286274E+02 -0.19350631515E+03  0.21592564983E+03  0.00000000000E+00 0. -1.
         -5    1    5    5    0  502 -0.76428988264E+01  0.24833467414E+02 -0.17170548153E+02  0.31496551083E+02  0.47000000000E+01 0.  1.
         13    1    6    6    0    0  0.48904954118E+01 -0.80911816514E+02  0.72756286561E+02  0.10892252398E+03  0.00000000000E+00 0. -1.
        -14    1    6    6    0    0  0.67236808033E+02 -0.30303335089E+02  0.48374840673E+02  0.88199805454E+02  0.00000000000E+00 0.  1.
<mgrwt>
<rscale>  2 0.20401324E+03</rscale>
<asrwt>0</asrwt>
<pdfrwt beam="1">  1       21 0.28049039E-01 0.20414639E+03</pdfrwt>
<pdfrwt beam="2">  1       21 0.10958980E+00 0.20414639E+03</pdfrwt>
<totfact> 0.79345537E+03</totfact>
</mgrwt>
</event>
<event>
12    1  0.1013215E-001  0.1954229E+03  0.7546771E-02  0.1154167E+00
         21   -1    0    0  503  502  0.00000000000E+00  0.00000000000E+00  0.13640831342E+03  0.13640831342E+03  0.00000000000E+00 0. -1.
         21   -1    0    0  501  503 -0.00000000000E+00 -0.00000000000E+00 -0.60077535645E+03  0.60077535645E+03  0.00000000000E+00 0. -1.
          6    2    1    2  501    0 -0.87815498021E+02  0.22130447392E+02 -0.50355540979E+03  0.54014642111E+03  0.17317270890E+03 0.  0.
         24    2    3    3    0    0 -0.47111172808E+02 -0.30695677133E+02 -0.11536141573E+03  0.14623766448E+03  0.70110705846E+02 0.  0.
         -6    2    1    2    0  502  0.87815498021E+02 -0.22130447392E+02  0.39188366761E+02  0.19703724876E+03  0.17054803111E+03 0.  0.
        -24    2    5    5    0    0  0.32894219267E+02 -0.68332898883E+02  0.54075262644E+02  0.12358847033E+03  0.81231528600E+02 0.  0.
          5    1    3    3  501    0 -0.40704325213E+02  0.52826124524E+02 -0.38819399406E+03  0.39390875663E+03  0.47000000000E+01 0. -1.
        -13    1    4    4    0    0 -0.59415605188E+01  0.16607905275E+02 -0.34780768357E+01  0.17978366931E+02  0.00000000000E+00 0.  1.
         14    1    4    4    0    0 -0.41169612290E+02 -0.47303582408E+02 -0.11188333890E+03  0.12825929755E+03  0.00000000000E+00 0. -1.
         -5    1    5    5    0  502  0.54921278755E+02  0.46202451491E+02 -0.14886895882E+02  0.73448778430E+02  0.47000000000E+01 0.  1.
         11    1    6    6    0    0  0.56966428433E+02 -0.63291177915E+02  0.49737885206E+02  0.98614422855E+02  0.00000000000E+00 0. -1.
        -12    1    6    6    0    0 -0.24072209166E+02 -0.50417209677E+01  0.43373774373E+01  0.24974047479E+02  0.00000000000E+00 0.  1.
<mgrwt>
<rscale>  2 0.19483978E+03</rscale>
<asrwt>0</asrwt>
<pdfrwt beam="1">  1       21 0.20985894E-01 0.19542289E+03</pdfrwt>
<pdfrwt beam="2">  1       21 0.92426977E-01 0.19542289E+03</pdfrwt>
<totfact> 0.20799698E+04</totfact>
</mgrwt>
</event>
<event>
12    1  0.1013215E-001  0.1809652E+03  0.7546771E-02  0.1166873E+00
         21   -1    0    0  501  502  0.00000000000E+00  0.00000000000E+00  0.28178982062E+03  0.28178982062E+03  0.00000000000E+00 0.  1.
         21   -1    0    0  502  503 -0.00000000000E+00 -0.00000000000E+00 -0.15877454074E+03  0.15877454074E+03  0.00000000000E+00 0.  1.
         -6    2    1    2    0  503 -0.15641406791E+02 -0.53087695714E+02 -0.52541799898E+02  0.18843839484E+03  0.17229460488E+03 0.  0.
        -24    2    3    3    0    0  0.49268268432E+02 -0.85259839320E+00 -0.12301628913E+02  0.95793196958E+02  0.81221409192E+02 0.  0.
          6    2    1    2  501    0  0.15641406791E+02  0.53087695714E+02  0.17555707978E+03  0.25212596652E+03  0.17229120028E+03 0.  0.
         24    2    5    5    0    0  0.70460370730E+02  0.12401071898E+02  0.12985101368E+03  0.16983590246E+03  0.82852263605E+02 0.  0.
          5    1    5    5  501    0 -0.54818963939E+02  0.40686623816E+02  0.45706066099E+02  0.82290064061E+02  0.47000000000E+01 0. -1.
        -11    1    6    6    0    0  0.47942847236E+02 -0.19386102340E+02  0.11845052955E+03  0.12924730371E+03  0.00000000000E+00 0.  1.
         12    1    6    6    0    0  0.22517523494E+02  0.31787174238E+02  0.11400484124E+02  0.40588598751E+02  0.00000000000E+00 0. -1.
         -5    1    3    3    0  503 -0.64909675223E+02 -0.52235097320E+02 -0.40240170986E+02  0.92645197882E+02  0.47000000000E+01 0.  1.
         13    1    4    4    0    0  0.18749629145E+02 -0.39807721158E+02  0.26942946248E+01  0.44084719352E+02  0.00000000000E+00 0. -1.
        -14    1    4    4    0    0  0.30518639288E+02  0.38955122765E+02 -0.14995923538E+02  0.51708477606E+02  0.00000000000E+00 0.  1.
<mgrwt>
<rscale>  2 0.18096435E+03</rscale>
<asrwt>0</asrwt>
<pdfrwt beam="1">  1       21 0.43352280E-01 0.18096516E+03</pdfrwt>
<pdfrwt beam="2">  1       21 0.24426852E-01 0.18096516E+03</pdfrwt>
<totfact> 0.81360581E+04</totfact>
</mgrwt>
</event>
<event>
12    1  0.1013215E-001  0.2524403E+03  0.7546771E-02  0.1111824E+00
         21   -1    0    0  501  502  0.00000000000E+00  0.00000000000E+00  0.93290719286E+03  0.93290719286E+03  0.00000000000E+00 0. -1.
         21   -1    0    0  502  503 -0.00000000000E+00 -0.00000000000E+00 -0.88706783565E+02  0.88706783565E+02  0.00000000000E+00 0. -1.
         -6    2    1    2    0  503  0.53194798525E+02 -0.17590568656E+03  0.17640917138E+03  0.30770134015E+03  0.17259032947E+03 0.  0.
        -24    2    3    3    0    0  0.29571235606E+02 -0.12247459736E+03  0.32166014311E+02  0.15200569994E+03  0.78718456311E+02 0.  0.
          6    2    1    2  501    0 -0.53194798525E+02  0.17590568656E+03  0.66779123791E+03  0.71391263628E+03  0.17307113464E+03 0.  0.
         24    2    5    5    0    0 -0.14399996362E+01  0.99312585559E+02  0.53368866090E+03  0.55096892363E+03  0.94223695448E+02 0.  0.
          5    1    5    5  501    0 -0.51754798889E+02  0.76593101003E+02  0.13410257701E+03  0.16294371264E+03  0.47000000000E+01 0. -1.
        -13    1    6    6    0    0 -0.24934124107E+02 -0.74610316159E+00  0.43716437321E+02  0.50332833290E+02  0.00000000000E+00 0.  1.
         14    1    6    6    0    0  0.23494124470E+02  0.10005868872E+03  0.48997222358E+03  0.50063609034E+03  0.00000000000E+00 0. -1.
         -5    1    3    3    0  503  0.23623562920E+02 -0.53431089206E+02  0.14424315707E+03  0.15569564021E+03  0.47000000000E+01 0.  1.
         13    1    4    4    0    0 -0.19532722836E+02 -0.13205589776E+02 -0.91423912845E+01  0.25288301270E+02  0.00000000000E+00 0. -1.
        -14    1    4    4    0    0  0.49103958442E+02 -0.10926900758E+03  0.41308405595E+02  0.12671739867E+03  0.00000000000E+00 0.  1.
<mgrwt>
<rscale>  2 0.25235793E+03</rscale>
<asrwt>0</asrwt>
<pdfrwt beam="1">  1       21 0.14352418E+00 0.25244032E+03</pdfrwt>
<pdfrwt beam="2">  1       21 0.13647198E-01 0.25244032E+03</pdfrwt>
<totfact> 0.15045147E+04</totfact>
</mgrwt>
</event>
<event>
12    1  0.1013215E-001  0.2577304E+03  0.7546771E-02  0.1108734E+00
         21   -1    0    0  503  502  0.00000000000E+00  0.00000000000E+00  0.12851295332E+04  0.12851295332E+04  0.00000000000E+00 0. -1.
         21   -1    0    0  501  503 -0.00000000000E+00 -0.00000000000E+00 -0.57914926346E+02  0.57914926346E+02  0.00000000000E+00 0. -1.
          6    2    1    2  501    0  0.13215104404E+03 -0.13567815235E+03  0.38988785763E+03  0.46737296531E+03  0.17479269925E+03 0.  0.
         24    2    3    3    0    0  0.12121773908E+03 -0.27941673655E+02  0.21614577793E+03  0.26259238455E+03  0.82227037600E+02 0.  0.
         -6    2    1    2    0  502 -0.13215104404E+03  0.13567815235E+03  0.83732674925E+03  0.87567149426E+03  0.17266158051E+03 0.  0.
        -24    2    5    5    0    0 -0.39939422613E+02  0.90569859299E+02  0.27733878879E+03  0.30633297713E+03  0.84409905920E+02 0.  0.
          5    1    3    3  501    0  0.10933304961E+02 -0.10773647869E+03  0.17374207970E+03  0.20478058076E+03  0.47000000000E+01 0. -1.
        -11    1    4    4    0    0  0.65040181089E+01 -0.72362635267E+01  0.91186832608E+02  0.91704439383E+02  0.00000000000E+00 0.  1.
         12    1    4    4    0    0  0.11471372097E+03 -0.20705410128E+02  0.12495894532E+03  0.17088794516E+03  0.00000000000E+00 0. -1.
         -5    1    5    5    0  502 -0.92211621426E+02  0.45108293049E+02  0.55998796046E+03  0.56933851713E+03  0.47000000000E+01 0.  1.
         11    1    6    6    0    0 -0.49422307252E+02  0.74689600279E+02  0.27302686852E+03  0.28734086340E+03  0.00000000000E+00 0. -1.
        -12    1    6    6    0    0  0.94828846392E+01  0.15880259020E+02  0.43119202704E+01  0.18992113733E+02  0.00000000000E+00 0.  1.
<mgrwt>
<rscale>  2 0.25736948E+03</rscale>
<asrwt>0</asrwt>
<pdfrwt beam="1">  1       21 0.19771221E+00 0.25773038E+03</pdfrwt>
<pdfrwt beam="2">  1       21 0.89099897E-02 0.25773038E+03</pdfrwt>
<totfact> 0.13184141E+04</totfact>
</mgrwt>
</event>
<event>
11    1  0.1013215E-001  0.1852934E+03  0.7546771E-02  0.1162894E+00
         21   -1    0    0  503  502  0.00000000000E+00  0.00000000000E+00  0.25226181368E+03  0.25226181368E+03  0.00000000000E+00 0.  1.
         21   -1    0    0  501  503 -0.00000000000E+00 -0.00000000000E+00 -0.18576085194E+03  0.18576085194E+03  0.00000000000E+00 0.  1.
          6    2    1    2  501    0 -0.66053266578E+02  0.24158036855E+01 -0.80439254152E+02  0.20153788081E+03  0.17256353514E+03 0.  0.
         24    2    3    3    0    0 -0.77330066984E+02 -0.55880984897E+02 -0.42854000226E+02  0.13110760962E+03  0.79057676625E+02 0.  0.
         -6    2    1    2    0  502  0.66053266578E+02 -0.24158036855E+01  0.14694021590E+03  0.23648478481E+03  0.17310331096E+03 0.  0.
          5    1    3    3  501    0  0.11276800406E+02  0.58296788582E+02 -0.37585253926E+02  0.70430271184E+02  0.47000000000E+01 0. -1.
        -13    1    4    4    0    0 -0.61885621338E+02 -0.35591914514E+01 -0.44859446705E+02  0.76517108746E+02  0.00000000000E+00 0.  1.
         14    1    4    4    0    0 -0.15444445646E+02 -0.52321793445E+02  0.20054464786E+01  0.54590500879E+02  0.00000000000E+00 0. -1.
         -5    1    5    5    0  502  0.19763723219E+01 -0.17670788750E+02 -0.18202667381E+02  0.25876435659E+02  0.47000000000E+01 0.  1.
         13    1    5    5    0    0 -0.97742441463E+01  0.30961726219E+02  0.11615053227E+03  0.12060311142E+03  0.00000000000E+00 0. -1.
        -14    1    5    5    0    0  0.73851138403E+02 -0.15706741154E+02  0.48992351013E+02  0.90005237730E+02  0.00000000000E+00 0.  1.
<mgrwt>
<rscale>  2 0.18516718E+03</rscale>
<asrwt>0</asrwt>
<pdfrwt beam="1">  1       21 0.38809510E-01 0.18529335E+03</pdfrwt>
<pdfrwt beam="2">  1       21 0.28578592E-01 0.18529335E+03</pdfrwt>
<totfact> 0.75195608E+04</totfact>
</mgrwt>
</event>
<event>
12    1  0.1013215E-001  0.1800456E+03  0.7546771E-02  0.1168356E+00
         21   -1    0    0  503  502  0.00000000000E+00  0.00000000000E+00  0.17631749618E+03  0.17631749618E+03  0.00000000000E+00 0. -1.
         21   -1    0    0  501  503 -0.00000000000E+00 -0.00000000000E+00 -0.28800452711E+03  0.28800452711E+03  0.00000000000E+00 0. -1.
          6    2    1    2  501    0  0.35247725780E+02  0.35879244260E+02 -0.19735641900E+03  0.26714412667E+03  0.17287771965E+03 0.  0.
         24    2    3    3    0    0  0.55713016002E+02 -0.32092740505E+02 -0.14845900445E+03  0.18081877717E+03  0.80755619182E+02 0.  0.
         -6    2    1    2    0  502 -0.35247725780E+02 -0.35879244260E+02  0.85669388070E+02  0.19717789662E+03  0.17032368162E+03 0.  0.
        -24    2    5    5    0    0  0.23120703876E+02 -0.61033246281E+02  0.84563306899E+02  0.13343693009E+03  0.79967726864E+02 0.  0.
          5    1    3    3  501    0 -0.20465290222E+02  0.67971984765E+02 -0.48897414545E+02  0.86325349498E+02  0.47000000000E+01 0. -1.
        -11    1    4    4    0    0 -0.19131231799E+02 -0.10693630464E+01 -0.48507488953E+02  0.52154808522E+02  0.00000000000E+00 0.  1.
         12    1    4    4    0    0  0.74844247801E+02 -0.31023377459E+02 -0.99951515502E+02  0.12866396865E+03  0.00000000000E+00 0. -1.
         -5    1    5    5    0  502 -0.58368429657E+02  0.25154002021E+02  0.11060811716E+01  0.63740966527E+02  0.47000000000E+01 0.  1.
         11    1    6    6    0    0  0.36941104454E+01 -0.72398280108E+02  0.38297014716E+02  0.81986698620E+02  0.00000000000E+00 0. -1.
        -12    1    6    6    0    0  0.19426593431E+02  0.11365033827E+02  0.46266292183E+02  0.51450231473E+02  0.00000000000E+00 0.  1.
<mgrwt>
<rscale>  2 0.17942974E+03</rscale>
<asrwt>0</asrwt>
<pdfrwt beam="1">  1       21 0.27125769E-01 0.18004563E+03</pdfrwt>
<pdfrwt beam="2">  1       21 0.44308388E-01 0.18004563E+03</pdfrwt>
<totfact> 0.63710967E+04</totfact>
</mgrwt>
</event>
<event>
12    1  0.1013215E-001  0.2101427E+03  0.7546771E-02  0.1142004E+00
         21   -1    0    0  503  502  0.00000000000E+00  0.00000000000E+00  0.37906286402E+03  0.37906286402E+03  0.00000000000E+00 0. -1.
         21   -1    0    0  501  503 -0.00000000000E+00 -0.00000000000E+00 -0.23712090001E+03  0.23712090001E+03  0.00000000000E+00 0.  1.
          6    2    1    2  501    0  0.91377817866E+02 -0.71287176867E+02 -0.15038247480E+03  0.25616498897E+03  0.17197047905E+03 0.  0.
         24    2    3    3    0    0  0.92191324918E+02 -0.10375907157E+03 -0.15588194514E+03  0.22288706967E+03  0.78193859613E+02 0.  0.
         -6    2    1    2    0  502 -0.91377817866E+02  0.71287176867E+02  0.29232443881E+03  0.36001877506E+03  0.17529453411E+03 0.  0.
        -24    2    5    5    0    0 -0.43898276910E+02  0.66236394151E+02  0.29115610327E+03  0.31202635666E+03  0.79210177111E+02 0.  0.
          5    1    3    3  501    0 -0.81350705197E+00  0.32471894701E+02  0.54994703448E+01  0.33277919305E+02  0.47000000000E+01 0. -1.
        -11    1    4    4    0    0  0.16329382491E+02 -0.70213949730E+02 -0.47189314401E+02  0.86159612713E+02  0.00000000000E+00 0.  1.
         12    1    4    4    0    0  0.75861942427E+02 -0.33545121838E+02 -0.10869263074E+03  0.13672745695E+03  0.00000000000E+00 0. -1.
         -5    1    5    5    0  502 -0.47479540956E+02  0.50507827156E+01  0.11683355406E+01  0.47992418395E+02  0.47000000000E+01 0.  1.
         11    1    6    6    0    0 -0.28824381075E+02 -0.61678569883E+01  0.36875415441E+02  0.47208936316E+02  0.00000000000E+00 0. -1.
        -12    1    6    6    0    0 -0.15073895835E+02  0.72404251140E+02  0.25428068782E+03  0.26481742035E+03  0.00000000000E+00 0.  1.
<mgrwt>
<rscale>  2 0.20944805E+03</rscale>
<asrwt>0</asrwt>
<pdfrwt beam="1">  1       21 0.58317364E-01 0.21014267E+03</pdfrwt>
<pdfrwt beam="2">  1       21 0.36480139E-01 0.21014267E+03</pdfrwt>
<totfact> 0.19750437E+04</totfact>
</mgrwt>
</event>
<event>
12    1  0.1013215E-001  0.3068473E+03  0.7546771E-02  0.1081870E+00
         21   -1    0    0  503  502  0.00000000000E+00  0.00000000000E+00  0.45520969170E+03  0.45520969170E+03  0.00000000000E+00 0.  1.
         21   -1    0    0  501  503 -0.00000000000E+00 -0.00000000000E+00 -0.27789345142E+03  0.27789345142E+03  0.00000000000E+00 0. -1.
          6    2    1    2  501    0  0.13276553690E+03 -0.21634255004E+03 -0.96709421320E+02  0.32172658928E+03  0.17240794451E+03 0.  0.
         24    2    3    3    0    0  0.13090811851E+03 -0.14766298952E+03 -0.13005818803E+02  0.21333509925E+03  0.80008870014E+02 0.  0.
         -6    2    1    2    0  502 -0.13276553690E+03  0.21634255004E+03  0.27402566160E+03  0.41137655385E+03  0.17236536512E+03 0.  0.
        -24    2    5    5    0    0 -0.62238924199E+02  0.18685667672E+03  0.13161104325E+03  0.24967487375E+03  0.78911181464E+02 0.  0.
          5    1    3    3  501    0  0.18574183835E+01 -0.68679560517E+02 -0.83703602517E+02  0.10839149003E+03  0.47000000000E+01 0. -1.
        -13    1    4    4    0    0  0.94257744411E+02 -0.14893768045E+03 -0.10087439322E+02  0.17654662690E+03  0.00000000000E+00 0.  1.
         14    1    4    4    0    0  0.36650374104E+02  0.12746909226E+01 -0.29183794812E+01  0.36788472349E+02  0.00000000000E+00 0. -1.
         -5    1    5    5    0  502 -0.70526612700E+02  0.29485873324E+02  0.14241461835E+03  0.16170168009E+03  0.47000000000E+01 0.  1.
         11    1    6    6    0    0 -0.44260079402E+02  0.33608906390E+02  0.19302353162E+02  0.58831063691E+02  0.00000000000E+00 0. -1.
        -12    1    6    6    0    0 -0.17978844797E+02  0.15324777033E+03  0.11230869009E+03  0.19084381006E+03  0.00000000000E+00 0.  1.
<mgrwt>
<rscale>  2 0.30684135E+03</rscale>
<asrwt>0</asrwt>
<pdfrwt beam="1">  1       21 0.70032260E-01 0.30684733E+03</pdfrwt>
<pdfrwt beam="2">  1       21 0.42752839E-01 0.30684733E+03</pdfrwt>
<totfact> 0.91317804E+03</totfact>
</mgrwt>
</event>
<event>
12    1  0.1013215E-001  0.2097780E+03  0.7546771E-02  0.1141808E+00
         21   -1    0    0  503  502  0.00000000000E+00  0.00000000000E+00  0.25371451563E+02  0.25371451563E+02  0.00000000000E+00 0. -1.
         21   -1    0    0  501  503 -0.00000000000E+00 -0.00000000000E+00 -0.17555829258E+04  0.17555829258E+04  0.00000000000E+00 0. -1.
          6    2    1    2  501    0 -0.92126738905E+02 -0.72930870687E+02 -0.96818558374E+03  0.99058087457E+03  0.17338078495E+03 0.  0.
         24    2    3    3    0    0 -0.45995474430E+02  0.20685114237E+02 -0.33823662780E+03  0.35202796112E+03  0.83523717607E+02 0.  0.
         -6    2    1    2    0  502  0.92126738905E+02  0.72930870687E+02 -0.76202589052E+03  0.79037350282E+03  0.17378310679E+03 0.  0.
        -24    2    5    5    0    0  0.76727679616E+02 -0.19304999113E+02 -0.48012216563E+03  0.49332740065E+03  0.81208438539E+02 0.  0.
          5    1    3    3  501    0 -0.46131264475E+02 -0.93615984923E+02 -0.62994895593E+03  0.63855291345E+03  0.47000000000E+01 0. -1.
        -11    1    4    4    0    0 -0.45638998958E+02 -0.13645739603E+02 -0.93906623353E+02  0.10529757046E+03  0.00000000000E+00 0.  1.
         12    1    4    4    0    0 -0.35647547170E+00  0.34330853840E+02 -0.24433000445E+03  0.24673039066E+03  0.00000000000E+00 0. -1.
         -5    1    5    5    0  502  0.15399059288E+02  0.92235869799E+02 -0.28190372489E+03  0.29704610217E+03  0.47000000000E+01 0.  1.
         13    1    6    6    0    0  0.88931466222E+02 -0.54367452609E+01 -0.32097155035E+03  0.33310824070E+03  0.00000000000E+00 0. -1.
        -14    1    6    6    0    0 -0.12203786606E+02 -0.13868253852E+02 -0.15915061528E+03  0.16021915995E+03  0.00000000000E+00 0.  1.
<mgrwt>
<rscale>  2 0.20969467E+03</rscale>
<asrwt>0</asrwt>
<pdfrwt beam="1">  1       21 0.39032985E-02 0.20977802E+03</pdfrwt>
<pdfrwt beam="2">  1       21 0.27008980E+00 0.20977802E+03</pdfrwt>
<totfact> 0.20412914E+04</totfact>
</mgrwt>
</event>
<event>
12    1  0.1013215E-001  0.2217926E+03  0.7546771E-02  0.1132656E+00
         21   -1    0    0  501  502  0.00000000000E+00  0.00000000000E+00  0.24360131853E+03  0.24360131853E+03  0.00000000000E+00 0.  1.
         21   -1    0    0  502  503 -0.00000000000E+00 -0.00000000000E+00 -0.28144023162E+03  0.28144023162E+03  0.00000000000E+00 0. -1.
         -6    2    1    2    0  503 -0.13370249621E+03 -0.35364028186E+02 -0.15890733017E+03  0.27284332860E+03  0.17339253271E+03 0.  0.
        -24    2    3    3    0    0 -0.29095219797E+02 -0.10849600315E+02 -0.14029377159E+03  0.16370033059E+03  0.78429651581E+02 0.  0.
          6    2    1    2  501    0  0.13370249621E+03  0.35364028186E+02  0.12106841708E+03  0.25219822155E+03  0.17268297355E+03 0.  0.
         24    2    5    5    0    0  0.57543400676E+02  0.11789703440E+02  0.13837994021E+03  0.17048080937E+03  0.80401855967E+02 0.  0.
          5    1    5    5  501    0  0.76159095530E+02  0.23574324746E+02 -0.17311523131E+02  0.81717412173E+02  0.47000000000E+01 0. -1.
        -11    1    6    6    0    0  0.36850130008E+02 -0.89138052467E+01  0.10565889854E+02  0.39357668046E+02  0.00000000000E+00 0.  1.
         12    1    6    6    0    0  0.20693270668E+02  0.20703508687E+02  0.12781405036E+03  0.13112314133E+03  0.00000000000E+00 0. -1.
         -5    1    3    3    0  503 -0.10460727641E+03 -0.24514427872E+02 -0.18613558581E+02  0.10914299801E+03  0.47000000000E+01 0.  1.
         11    1    4    4    0    0 -0.32283707468E+02  0.27856962581E+02 -0.94365791511E+02  0.10355264719E+03  0.00000000000E+00 0. -1.
        -12    1    4    4    0    0  0.31884876708E+01 -0.38706562896E+02 -0.45927980080E+02  0.60147683405E+02  0.00000000000E+00 0.  1.
<mgrwt>
<rscale>  2 0.22165387E+03</rscale>
<asrwt>0</asrwt>
<pdfrwt beam="1">  1       21 0.37477126E-01 0.22179257E+03</pdfrwt>
<pdfrwt beam="2">  1       21 0.43298497E-01 0.22179257E+03</pdfrwt>
<totfact> 0.34687334E+04</totfact>
</mgrwt>
</event>
<event>
12    1  0.1013215E-001  0.1987511E+03  0.7546771E-02  0.1151084E+00
         21   -1    0    0  503  502  0.00000000000E+00  0.00000000000E+00  0.91807309569E+02  0.91807309569E+02  0.00000000000E+00 0. -1.
         21   -1    0    0  501  503 -0.00000000000E+00 -0.00000000000E+00 -0.49273847724E+03  0.49273847724E+03  0.00000000000E+00 0. -1.
          6    2    1    2  501    0  0.66571721484E+02 -0.67873005391E+02 -0.30633592160E+03  0.36443154821E+03  0.17300322975E+03 0.  0.
         24    2    3    3    0    0 -0.54154654863E+01 -0.90037742659E+02 -0.17367225841E+03  0.21180400090E+03  0.81010857827E+02 0.  0.
         -6    2    1    2    0  502 -0.66571721484E+02  0.67873005391E+02 -0.94595246072E+02  0.22011423860E+03  0.17453789988E+03 0.  0.
        -24    2    5    5    0    0 -0.76054953031E+02  0.41227320104E+02 -0.12925895792E+03  0.17512993974E+03  0.80489563207E+02 0.  0.
          5    1    3    3  501    0  0.71987186970E+02  0.22164737268E+02 -0.13266366319E+03  0.15262754730E+03  0.47000000000E+01 0. -1.
        -13    1    4    4    0    0 -0.27047522459E+02 -0.47830789418E+00 -0.57380531675E+02  0.63437549330E+02  0.00000000000E+00 0.  1.
         14    1    4    4    0    0  0.21632056973E+02 -0.89559434765E+02 -0.11629172674E+03  0.14836645157E+03  0.00000000000E+00 0. -1.
         -5    1    5    5    0  502  0.94832315469E+01  0.26645685288E+02  0.34663711853E+02  0.44984298866E+02  0.47000000000E+01 0.  1.
         13    1    6    6    0    0 -0.52017505866E+01 -0.12183709237E+02 -0.63034099375E+02  0.64411168783E+02  0.00000000000E+00 0. -1.
        -14    1    6    6    0    0 -0.70853202444E+02  0.53411029340E+02 -0.66224858550E+02  0.11071877095E+03  0.00000000000E+00 0.  1.
<mgrwt>
<rscale>  2 0.19841370E+03</rscale>
<asrwt>0</asrwt>
<pdfrwt beam="1">  1       21 0.14124201E-01 0.19875114E+03</pdfrwt>
<pdfrwt beam="2">  1       21 0.75805920E-01 0.19875114E+03</pdfrwt>
<totfact> 0.67739444E+04</totfact>
</mgrwt>
</event>
<event>
12    1  0.1013215E-001  0.1849403E+03  0.7546771E-02  0.1163865E+00
         21   -1    0    0  503  502  0.00000000000E+00  0.00000000000E+00  0.22963271975E+03  0.22963271975E+03  0.00000000000E+00 0.  1.
         21   -1    0    0  501  503 -0.00000000000E+00 -0.00000000000E+00 -0.55650736372E+03  0.55650736372E+03  0.00000000000E+00 0.  1.
          6    2    1    2  501    0 -0.47505273856E+02 -0.34460194497E+02 -0.50050069378E+03  0.53246918023E+03  0.17198321830E+03 0.  0.
         24    2    3    3    0    0 -0.69930626542E+02 -0.60734617497E+02 -0.24003546834E+03  0.26968130873E+03  0.80820764201E+02 0.  0.
         -6    2    1    2    0  502  0.47505273856E+02  0.34460194497E+02  0.17362604980E+03  0.25367090324E+03  0.17538148686E+03 0.  0.
        -24    2    5    5    0    0  0.23573859420E+01  0.80772976391E+01  0.96406173957E+01  0.81485825283E+02  0.80474829684E+02 0.  0.
          5    1    3    3  501    0  0.22425352686E+02  0.26274423001E+02 -0.26046522544E+03  0.26278787150E+03  0.47000000000E+01 0. -1.
        -13    1    4    4    0    0 -0.36163108833E+02 -0.89981641468E+01 -0.17899008779E+03  0.18282830450E+03  0.00000000000E+00 0.  1.
         14    1    4    4    0    0 -0.33767517709E+02 -0.51736453351E+02 -0.61045380547E+02  0.86853004229E+02  0.00000000000E+00 0. -1.
         -5    1    5    5    0  502  0.45147887914E+02  0.26382896857E+02  0.16398543241E+03  0.17218507796E+03  0.47000000000E+01 0.  1.
         11    1    6    6    0    0 -0.27686321637E+02 -0.38183201266E+00  0.32575703900E+02  0.42753417244E+02  0.00000000000E+00 0. -1.
        -12    1    6    6    0    0  0.30043707579E+02  0.84591296518E+01 -0.22935086504E+02  0.38732408039E+02  0.00000000000E+00 0.  1.
<mgrwt>
<rscale>  2 0.18413016E+03</rscale>
<asrwt>0</asrwt>
<pdfrwt beam="1">  1       21 0.35328111E-01 0.18494032E+03</pdfrwt>
<pdfrwt beam="2">  1       21 0.85616517E-01 0.18494032E+03</pdfrwt>
<totfact> 0.91543840E+03</totfact>
</mgrwt>
</event>
<event>
12    1  0.1013215E-001  0.2116400E+03  0.7546771E-02  0.1140600E+00
         21   -1    0    0  503  502  0.00000000000E+00  0.00000000000E+00  0.55899927616E+03  0.55899927616E+03  0.00000000000E+00 0. -1.
         21   -1    0    0  501  503 -0.00000000000E+00 -0.00000000000E+00 -0.94279459145E+02  0.94279459145E+02  0.00000000000E+00 0.  1.
          6    2    1    2  501    0 -0.10683619608E+03 -0.59542968324E+02  0.10381398462E+03  0.23573042517E+03  0.17271986590E+03 0.  0.
         24    2    3    3    0    0 -0.11330717400E+03 -0.99069023751E+02  0.90239230684E+02  0.19317990746E+03  0.80759957559E+02 0.  0.
         -6    2    1    2    0  502  0.10683619608E+03  0.59542968324E+02  0.36090583239E+03  0.41754831014E+03  0.17068753199E+03 0.  0.
        -24    2    5    5    0    0  0.70751033972E+02  0.12585736319E+01  0.32094881926E+03  0.33806332736E+03  0.79192019201E+02 0.  0.
          5    1    3    3  501    0  0.64709779192E+01  0.39526055427E+02  0.13574753940E+02  0.42550517710E+02  0.47000000000E+01 0. -1.
        -13    1    4    4    0    0 -0.10421261535E+03 -0.54221329871E+02  0.37409392236E+02  0.12328700028E+03  0.00000000000E+00 0.  1.
         14    1    4    4    0    0 -0.90945586495E+01 -0.44847693880E+02  0.52829838448E+02  0.69892907178E+02  0.00000000000E+00 0. -1.
         -5    1    5    5    0  502  0.36085162107E+02  0.58284394692E+02  0.39957013130E+02  0.79484982777E+02  0.47000000000E+01 0.  1.
         13    1    6    6    0    0  0.62133255468E+02  0.34896817845E+02  0.22564575278E+03  0.23663122169E+03  0.00000000000E+00 0. -1.
        -14    1    6    6    0    0  0.86177785043E+01 -0.33638244213E+02  0.95303066485E+02  0.10143210567E+03  0.00000000000E+00 0.  1.
<mgrwt>
<rscale>  2 0.21122495E+03</rscale>
<asrwt>0</asrwt>
<pdfrwt beam="1">  1       21 0.85999887E-01 0.21164000E+03</pdfrwt>
<pdfrwt beam="2">  1       21 0.14504533E-01 0.21164000E+03</pdfrwt>
<totfact> 0.48184882E+04</totfact>
</mgrwt>
</event>
<event>
12    1  0.1013215E-001  0.2192070E+03  0.7546771E-02  0.1134558E+00
         21   -1    0    0  501  502  0.00000000000E+00  0.00000000000E+00  0.35945530157E+03  0.35945530157E+03  0.00000000000E+00 0. -1.
         21   -1    0    0  502  503 -0.00000000000E+00 -0.00000000000E+00 -0.25240452774E+03  0.25240452774E+03  0.00000000000E+00 0.  1.
         -6    2    1    2    0  503  0.12605227873E+03  0.45970361649E+02 -0.15650224968E+03  0.26934115636E+03  0.17334720427E+03 0.  0.
        -24    2    3    3    0    0  0.20444830119E+02 -0.12004208976E+02 -0.17910595953E+02  0.85646517012E+02  0.80327108233E+02 0.  0.
          6    2    1    2  501    0 -0.12605227873E+03 -0.45970361649E+02  0.26355302352E+03  0.34251867295E+03  0.17279002862E+03 0.  0.
         24    2    5    5    0    0 -0.75330376916E+02  0.23015104481E+02  0.74973470583E+02  0.13535679507E+03  0.80598262763E+02 0.  0.
          5    1    5    5  501    0 -0.50721901817E+02 -0.68985466129E+02  0.18857955294E+03  0.20716187788E+03  0.47000000000E+01 0. -1.
        -13    1    6    6    0    0  0.82634404315E+01  0.19060703840E+01  0.42322060716E+02  0.43163345275E+02  0.00000000000E+00 0.  1.
         14    1    6    6    0    0 -0.83593817348E+02  0.21109034097E+02  0.32651409867E+02  0.92193449797E+02  0.00000000000E+00 0. -1.
         -5    1    3    3    0  503  0.10560744861E+03  0.57974570624E+02 -0.13859165373E+03  0.18369463935E+03  0.47000000000E+01 0.  1.
         11    1    4    4    0    0  0.27783935510E+02  0.23941970458E+02  0.11702903443E+02  0.38498350235E+02  0.00000000000E+00 0. -1.
        -12    1    4    4    0    0 -0.73391053909E+01 -0.35946179434E+02 -0.29613499397E+02  0.47148166776E+02  0.00000000000E+00 0.  1.
<mgrwt>
<rscale>  2 0.21909682E+03</rscale>
<asrwt>0</asrwt>
<pdfrwt beam="1">  1       21 0.55300816E-01 0.21920699E+03</pdfrwt>
<pdfrwt beam="2">  1       21 0.38831466E-01 0.21920699E+03</pdfrwt>
<totfact> 0.19411551E+04</totfact>
</mgrwt>
</event>
<event>
12    1  0.1013215E-001  0.2025263E+03  0.7546771E-02  0.1147705E+00
         21   -1    0    0  503  502  0.00000000000E+00  0.00000000000E+00  0.21101296615E+03  0.21101296615E+03  0.00000000000E+00 0. -1.
         21   -1    0    0  501  503 -0.00000000000E+00 -0.00000000000E+00 -0.25902767931E+03  0.25902767931E+03  0.00000000000E+00 0.  1.
          6    2    1    2  501    0  0.10458784375E+03 -0.11357287570E+02 -0.14177115916E+03  0.24721639433E+03  0.17305859994E+03 0.  0.
         24    2    3    3    0    0  0.13724632419E+03 -0.53968866652E+01 -0.14378611434E+03  0.21362692027E+03  0.78079027264E+02 0.  0.
         -6    2    1    2    0  502 -0.10458784375E+03  0.11357287570E+02  0.93756446003E+02  0.22282425114E+03  0.17260582460E+03 0.  0.
        -24    2    5    5    0    0 -0.10747674220E+03  0.62904169958E+02  0.53196358814E+02  0.15700147779E+03  0.79444488335E+02 0.  0.
          5    1    3    3  501    0 -0.32658480437E+02 -0.59604009048E+01  0.20149551714E+01  0.33589474061E+02  0.47000000000E+01 0. -1.
        -11    1    4    4    0    0  0.42779579420E+02  0.29984497592E+02 -0.25390181100E+02  0.58084626258E+02  0.00000000000E+00 0.  1.
         12    1    4    4    0    0  0.94466744767E+02 -0.35381384257E+02 -0.11839593324E+03  0.15554229401E+03  0.00000000000E+00 0. -1.
         -5    1    5    5    0  502  0.28888984469E+01 -0.51546882388E+02  0.40560087188E+02  0.65822773346E+02  0.47000000000E+01 0.  1.
         13    1    6    6    0    0 -0.63408887252E+02  0.27182771496E+02  0.69550687418E+02  0.97963708428E+02  0.00000000000E+00 0. -1.
        -14    1    6    6    0    0 -0.44067854946E+02  0.35721398462E+02 -0.16354328603E+02  0.59037769366E+02  0.00000000000E+00 0.  1.
<mgrwt>
<rscale>  2 0.20242950E+03</rscale>
<asrwt>0</asrwt>
<pdfrwt beam="1">  1       21 0.32463533E-01 0.20252626E+03</pdfrwt>
<pdfrwt beam="2">  1       21 0.39850412E-01 0.20252626E+03</pdfrwt>
<totfact> 0.55156266E+04</totfact>
</mgrwt>
</event>
<event>
12    1  0.1013215E-001  0.2248600E+03  0.7546771E-02  0.1132866E+00
         21   -1    0    0  501  502  0.00000000000E+00  0.00000000000E+00  0.26519164728E+03  0.26519164728E+03  0.00000000000E+00 0.  1.
         21   -1    0    0  502  503 -0.00000000000E+00 -0.00000000000E+00 -0.38833116235E+03  0.38833116235E+03  0.00000000000E+00 0.  1.
         -6    2    1    2    0  503  0.66703196620E+02 -0.12638168743E+03 -0.30037986686E+03  0.36720804014E+03  0.15553788275E+03 0.  0.
        -24    2    3    3    0    0 -0.17339633416E+02 -0.71092331394E+02 -0.16827191087E+03  0.20109147802E+03  0.82265205752E+02 0.  0.
          6    2    1    2  501    0 -0.66703196620E+02  0.12638168743E+03  0.17724035179E+03  0.28631476950E+03  0.17360978536E+03 0.  0.
         24    2    5    5    0    0 -0.34033648409E+02  0.74289066194E+00  0.76367971345E+02  0.12184673683E+03  0.88632494704E+02 0.  0.
          5    1    5    5  501    0 -0.32669548212E+02  0.12563879677E+03  0.10087238045E+03  0.16446803267E+03  0.47000000000E+01 0. -1.
        -11    1    6    6    0    0 -0.21868539895E+02  0.38703721010E+02  0.67799264974E+02  0.81073740435E+02  0.00000000000E+00 0.  1.
         12    1    6    6    0    0 -0.12165108513E+02 -0.37960830348E+02  0.85687063712E+01  0.40772996391E+02  0.00000000000E+00 0. -1.
         -5    1    3    3    0  503  0.84042830037E+02 -0.55289356035E+02 -0.13210795599E+03  0.16611656211E+03  0.47000000000E+01 0.  1.
         13    1    4    4    0    0  0.63597479666E+01 -0.81687445968E+02 -0.10880375127E+03  0.13620404368E+03  0.00000000000E+00 0. -1.
        -14    1    4    4    0    0 -0.23699381383E+02  0.10595114574E+02 -0.59468159593E+02  0.64887434347E+02  0.00000000000E+00 0.  1.
<mgrwt>
<rscale>  2 0.22136941E+03</rscale>
<asrwt>0</asrwt>
<pdfrwt beam="1">  1       21 0.40798715E-01 0.22485997E+03</pdfrwt>
<pdfrwt beam="2">  1       21 0.59743255E-01 0.22485997E+03</pdfrwt>
<totfact> 0.14839054E+04</totfact>
</mgrwt>
</event>
<event>
12    1  0.1013215E-001  0.2452474E+03  0.7546771E-02  0.1116460E+00
         21   -1    0    0  503  502  0.00000000000E+00  0.00000000000E+00  0.32100312177E+03  0.32100312177E+03  0.00000000000E+00 0.  1.
         21   -1    0    0  501  503 -0.00000000000E+00 -0.00000000000E+00 -0.21593177096E+03  0.21593177096E+03  0.00000000000E+00 0.  1.
          6    2    1    2  501    0 -0.10836064412E+03 -0.13670327931E+03 -0.45954672562E+02  0.24951576050E+03  0.17238464850E+03 0.  0.
         24    2    3    3    0    0 -0.39335814049E+02 -0.12492653614E+03  0.17799616302E+02  0.15470110870E+03  0.80384457425E+02 0.  0.
         -6    2    1    2    0  502  0.10836064412E+03  0.13670327931E+03  0.15102602337E+03  0.28741913223E+03  0.17137993485E+03 0.  0.
        -24    2    5    5    0    0  0.11201688687E+03  0.11589273154E+03  0.52525825587E+02  0.18656861923E+03  0.77910070990E+02 0.  0.
          5    1    3    3  501    0 -0.69024830073E+02 -0.11776743177E+02 -0.63754288863E+02  0.94814651794E+02  0.47000000000E+01 0. -1.
        -13    1    4    4    0    0  0.22987351267E+02 -0.32464465278E+02 -0.72064196216E+01  0.40426381335E+02  0.00000000000E+00 0.  1.
         14    1    4    4    0    0 -0.62323165316E+02 -0.92462070859E+02  0.25006035923E+02  0.11427472737E+03  0.00000000000E+00 0. -1.
         -5    1    5    5    0  502 -0.36562427486E+01  0.20810547777E+02  0.98500197780E+02  0.10085051300E+03  0.47000000000E+01 0.  1.
         13    1    6    6    0    0  0.25873944352E+02 -0.38999953600E+01 -0.75864748628E+01  0.27243816932E+02  0.00000000000E+00 0. -1.
        -14    1    6    6    0    0  0.86142942518E+02  0.11979272690E+03  0.60112300450E+02  0.15932480230E+03  0.00000000000E+00 0.  1.
<mgrwt>
<rscale>  2 0.24507091E+03</rscale>
<asrwt>0</asrwt>
<pdfrwt beam="1">  1       21 0.49385096E-01 0.24524739E+03</pdfrwt>
<pdfrwt beam="2">  1       21 0.33220273E-01 0.24524739E+03</pdfrwt>
<totfact> 0.33240387E+04</totfact>
</mgrwt>
</event>
<event>
12    1  0.1013215E-001  0.1903143E+03  0.7546771E-02  0.1158307E+00
         21   -1    0    0  503  502  0.00000000000E+00  0.00000000000E+00  0.40734796237E+02  0.40734796237E+02  0.00000000000E+00 0.  1.
         21   -1    0    0  501  503 -0.00000000000E+00 -0.00000000000E+00 -0.10701160275E+04  0.10701160275E+04  0.00000000000E+00 0.  1.
          6    2    1    2  501    0 -0.62711129525E+02 -0.48881516373E+02 -0.74542239656E+03  0.76933352495E+03  0.17290874735E+03 0.  0.
         24    2    3    3    0    0 -0.49334765234E+02 -0.26881427316E+02 -0.73515028956E+03  0.74121703118E+03  0.76159102301E+02 0.  0.
         -6    2    1    2    0  502  0.62711129525E+02  0.48881516373E+02 -0.28395883466E+03  0.34151729874E+03  0.17227697800E+03 0.  0.
        -24    2    5    5    0    0  0.24682026854E+02 -0.15004081030E+02 -0.58424562252E+02  0.10399807797E+03  0.81042247316E+02 0.  0.
          5    1    3    3  501    0 -0.13376364291E+02 -0.22000089057E+02 -0.10272106998E+02  0.28116493778E+02  0.47000000000E+01 0. -1.
        -11    1    4    4    0    0  0.14094346479E+02 -0.27585810988E+02 -0.21761422808E+03  0.21980805225E+03  0.00000000000E+00 0.  1.
         12    1    4    4    0    0 -0.63429111713E+02  0.70438367242E+00 -0.51753606148E+03  0.52140897893E+03  0.00000000000E+00 0. -1.
         -5    1    5    5    0  502  0.38029102672E+02  0.63885597403E+02 -0.22553427241E+03  0.23751922077E+03  0.47000000000E+01 0.  1.
         11    1    6    6    0    0  0.19057576824E+02  0.10858653285E+02 -0.71276812893E+02  0.74575368868E+02  0.00000000000E+00 0. -1.
        -12    1    6    6    0    0  0.56244500294E+01 -0.25862734315E+02  0.12852250642E+02  0.29422709102E+02  0.00000000000E+00 0.  1.
<mgrwt>
<rscale>  2 0.19017066E+03</rscale>
<asrwt>0</asrwt>
<pdfrwt beam="1">  1       21 0.62668913E-02 0.19031428E+03</pdfrwt>
<pdfrwt beam="2">  1       21 0.16463325E+00 0.19031428E+03</pdfrwt>
<totfact> 0.42693464E+04</totfact>
</mgrwt>
</event>
<event>
12    1  0.1013215E-001  0.1900275E+03  0.7546771E-02  0.1158499E+00
         21   -1    0    0  501  502  0.00000000000E+00  0.00000000000E+00  0.28076454552E+02  0.28076454552E+02  0.00000000000E+00 0. -1.
         21   -1    0    0  502  503 -0.00000000000E+00 -0.00000000000E+00 -0.25228879609E+04  0.25228879609E+04  0.00000000000E+00 0.  1.
         -6    2    1    2    0  503  0.67719728662E+02  0.39403306047E+02 -0.21406476983E+04  0.21490409498E+04  0.17281739924E+03 0.  0.
        -24    2    3    3    0    0  0.97913269118E+02  0.29636771178E+02 -0.20189265667E+04  0.20231633943E+04  0.81610612108E+02 0.  0.
          6    2    1    2  501    0 -0.67719728662E+02 -0.39403306047E+02 -0.35416380805E+03  0.40192346566E+03  0.17312390689E+03 0.  0.
         24    2    5    5    0    0 -0.87427809036E+02  0.24578857393E+02 -0.20291863670E+03  0.23645649757E+03  0.80547874595E+02 0.  0.
          5    1    5    5  501    0  0.19708080374E+02 -0.63982163440E+02 -0.15124517136E+03  0.16546696809E+03  0.47000000000E+01 0. -1.
        -11    1    6    6    0    0 -0.96022723504E+02  0.35620292745E+02 -0.19529879547E+03  0.22052389485E+03  0.00000000000E+00 0.  1.
         12    1    6    6    0    0  0.85949144683E+01 -0.11041435352E+02 -0.76198412212E+01  0.15932602725E+02  0.00000000000E+00 0. -1.
         -5    1    3    3    0  503 -0.30193540456E+02  0.97665348698E+01 -0.12172113161E+03  0.12587755547E+03  0.47000000000E+01 0.  1.
         13    1    4    4    0    0 -0.11089610810E+02  0.16813962033E+02 -0.41286036048E+03  0.41335138326E+03  0.00000000000E+00 0. -1.
        -14    1    4    4    0    0  0.10900287993E+03  0.12822809145E+02 -0.16060662062E+04  0.16098120111E+04  0.00000000000E+00 0.  1.
<mgrwt>
<rscale>  2 0.18995771E+03</rscale>
<asrwt>0</asrwt>
<pdfrwt beam="1">  1       21 0.43194544E-02 0.19002755E+03</pdfrwt>
<pdfrwt beam="2">  1       21 0.38813662E+00 0.19002755E+03</pdfrwt>
<totfact> 0.35651252E+03</totfact>
</mgrwt>
</event>
<event>
12    1  0.1013215E-001  0.2705196E+03  0.7546771E-02  0.1101443E+00
         21   -1    0    0  501  502  0.00000000000E+00  0.00000000000E+00  0.66673585913E+02  0.66673585913E+02  0.00000000000E+00 0.  1.
         21   -1    0    0  502  503 -0.00000000000E+00 -0.00000000000E+00 -0.11690149106E+04  0.11690149106E+04  0.00000000000E+00 0. -1.
         -6    2    1    2    0  503  0.15320465878E+03 -0.13437678657E+03 -0.38212364088E+03  0.46634177905E+03  0.17299534598E+03 0.  0.
        -24    2    3    3    0    0  0.34290316464E+02  0.32979350446E+01 -0.92667718607E+02  0.12443276964E+03  0.75561272550E+02 0.  0.
          6    2    1    2  501    0 -0.15320465878E+03  0.13437678657E+03 -0.72021768384E+03  0.76934671750E+03  0.17791029022E+03 0.  0.
         24    2    5    5    0    0 -0.91390443191E+02  0.85757048761E+02 -0.63913618093E+03  0.65629285305E+03  0.80738879528E+02 0.  0.
          5    1    5    5  501    0 -0.61814215584E+02  0.48619737805E+02 -0.81081502908E+02  0.11305386445E+03  0.47000000000E+01 0. -1.
        -11    1    6    6    0    0 -0.76371215222E+02  0.95245622276E+02 -0.44811551986E+03  0.46444785521E+03  0.00000000000E+00 0.  1.
         12    1    6    6    0    0 -0.15019227969E+02 -0.94885735152E+01 -0.19102066108E+03  0.19184499783E+03  0.00000000000E+00 0. -1.
         -5    1    3    3    0  503  0.11891434231E+03 -0.13767472161E+03 -0.28945592228E+03  0.34190900942E+03  0.47000000000E+01 0.  1.
         13    1    4    4    0    0  0.44839053530E+02  0.12402954850E+02 -0.20339919568E+02  0.50774859315E+02  0.00000000000E+00 0. -1.
        -14    1    4    4    0    0 -0.10548737066E+02 -0.91050198055E+01 -0.72327799039E+02  0.73657910323E+02  0.00000000000E+00 0.  1.
<mgrwt>
<rscale>  2 0.26971434E+03</rscale>
<asrwt>0</asrwt>
<pdfrwt beam="1">  1       21 0.10257475E-01 0.27051961E+03</pdfrwt>
<pdfrwt beam="2">  1       21 0.17984844E+00 0.27051961E+03</pdfrwt>
<totfact> 0.13436011E+04</totfact>
</mgrwt>
</event>
<event>
12    1  0.1013215E-001  0.1833876E+03  0.7546771E-02  0.1164572E+00
         21   -1    0    0  503  502  0.00000000000E+00  0.00000000000E+00  0.38973427333E+03  0.38973427333E+03  0.00000000000E+00 0.  1.
         21   -1    0    0  501  503 -0.00000000000E+00 -0.00000000000E+00 -0.86278424426E+02  0.86278424426E+02  0.00000000000E+00 0.  1.
          6    2    1    2  501    0  0.53153019576E+02  0.30093356339E+02  0.15077837186E+03  0.23738864533E+03  0.17288261313E+03 0.  0.
         24    2    3    3    0    0  0.32599316229E+02 -0.22851579553E+02  0.15620980632E+03  0.18014171145E+03  0.80402876244E+02 0.  0.
         -6    2    1    2    0  502 -0.53153019576E+02 -0.30093356339E+02  0.15267747705E+03  0.23862405243E+03  0.17291666436E+03 0.  0.
        -24    2    5    5    0    0 -0.10457222761E+02  0.14498367733E+02  0.16161032169E+03  0.17606816834E+03  0.67546633138E+02 0.  0.
          5    1    3    3  501    0  0.20553703347E+02  0.52944935892E+02 -0.54314344591E+01  0.57246933876E+02  0.47000000000E+01 0. -1.
        -13    1    4    4    0    0  0.26477892379E+02 -0.14885160173E+02  0.77577873747E+01  0.31350120305E+02  0.00000000000E+00 0.  1.
         14    1    4    4    0    0  0.61214238507E+01 -0.79664193801E+01  0.14845201894E+03  0.14879159115E+03  0.00000000000E+00 0. -1.
         -5    1    5    5    0  502 -0.42695796816E+02 -0.44591724072E+02 -0.89328446462E+01  0.62555884095E+02  0.47000000000E+01 0.  1.
         13    1    6    6    0    0  0.14004456924E+02 -0.17970356171E+02  0.97724250570E+02  0.10034484373E+03  0.00000000000E+00 0. -1.
        -14    1    6    6    0    0 -0.24461679685E+02  0.32468723904E+02  0.63886071124E+02  0.75723324601E+02  0.00000000000E+00 0.  1.
<mgrwt>
<rscale>  2 0.18337961E+03</rscale>
<asrwt>0</asrwt>
<pdfrwt beam="1">  1       21 0.59959118E-01 0.18338764E+03</pdfrwt>
<pdfrwt beam="2">  1       21 0.13273604E-01 0.18338764E+03</pdfrwt>
<totfact> 0.12745938E+05</totfact>
</mgrwt>
</event>
<event>
12    1  0.1013215E-001  0.2111893E+03  0.7546771E-02  0.1140836E+00
         21   -1    0    0  503  502  0.00000000000E+00  0.00000000000E+00  0.10580674458E+04  0.10580674458E+04  0.00000000000E+00 0.  1.
         21   -1    0    0  501  503 -0.00000000000E+00 -0.00000000000E+00 -0.55508134744E+02  0.55508134744E+02  0.00000000000E+00 0.  1.
          6    2    1    2  501    0 -0.68163516417E+02  0.97648199802E+02  0.22697793387E+03  0.31003209611E+03  0.17441181801E+03 0.  0.
         24    2    3    3    0    0 -0.72740542553E+02  0.43600198017E+02  0.22813395844E+03  0.25557512174E+03  0.77983178083E+02 0.  0.
         -6    2    1    2    0  502  0.68163516417E+02 -0.97648199802E+02  0.77558137716E+03  0.80354348440E+03  0.17313065250E+03 0.  0.
        -24    2    5    5    0    0  0.92895081150E+02 -0.44423916394E+02  0.29559566729E+03  0.31996014482E+03  0.66292648961E+02 0.  0.
          5    1    3    3  501    0  0.45770261355E+01  0.54048001784E+02 -0.11560245637E+01  0.54456974373E+02  0.47000000000E+01 0. -1.
        -11    1    4    4    0    0 -0.97585415861E+01 -0.12988372896E+02  0.51270623252E+01  0.17035660611E+02  0.00000000000E+00 0.  1.
         12    1    4    4    0    0 -0.62982000967E+02  0.56588570913E+02  0.22300689611E+03  0.23853946113E+03  0.00000000000E+00 0. -1.
         -5    1    5    5    0  502 -0.24731564733E+02 -0.53224283408E+02  0.47998570987E+03  0.48358333958E+03  0.47000000000E+01 0.  1.
         11    1    6    6    0    0  0.92075749011E+02 -0.54245396101E+02  0.22983749865E+03  0.25346751732E+03  0.00000000000E+00 0. -1.
        -12    1    6    6    0    0  0.81933213956E+00  0.98214797071E+01  0.65758168638E+02  0.66492627497E+02  0.00000000000E+00 0.  1.
<mgrwt>
<rscale>  2 0.21092459E+03</rscale>
<asrwt>0</asrwt>
<pdfrwt beam="1">  1       21 0.16277959E+00 0.21118929E+03</pdfrwt>
<pdfrwt beam="2">  1       21 0.85397138E-02 0.21118929E+03</pdfrwt>
<totfact> 0.25415584E+04</totfact>
</mgrwt>
</event>
<event>
12    1  0.1013215E-001  0.1896842E+03  0.7546771E-02  0.1158774E+00
         21   -1    0    0  503  502  0.00000000000E+00  0.00000000000E+00  0.30478502403E+02  0.30478502403E+02  0.00000000000E+00 0.  1.
         21   -1    0    0  501  503 -0.00000000000E+00 -0.00000000000E+00 -0.14443903508E+04  0.14443903508E+04  0.00000000000E+00 0.  1.
          6    2    1    2  501    0 -0.44087914279E+02  0.64982416877E+02 -0.10224221711E+04  0.10398467060E+04  0.17253294559E+03 0.  0.
         24    2    3    3    0    0 -0.76697090358E+02 -0.48711242705E+01 -0.62465079169E+03  0.63464671111E+03  0.81741451173E+02 0.  0.
         -6    2    1    2    0  502  0.44087914279E+02 -0.64982416877E+02 -0.39148967728E+03  0.43502214719E+03  0.17266627477E+03 0.  0.
        -24    2    5    5    0    0  0.99829792421E+02 -0.41022487562E+02 -0.28810361630E+03  0.31505547350E+03  0.67878020883E+02 0.  0.
          5    1    3    3  501    0  0.32609176079E+02  0.69853541148E+02 -0.39777137944E+03  0.40519999492E+03  0.47000000000E+01 0. -1.
        -13    1    4    4    0    0 -0.34710300289E+02  0.13025804299E+02 -0.50850568475E+03  0.50985537944E+03  0.00000000000E+00 0.  1.
         14    1    4    4    0    0 -0.41986790069E+02 -0.17896928570E+02 -0.11614510694E+03  0.12479133166E+03  0.00000000000E+00 0. -1.
         -5    1    5    5    0  502 -0.55741878142E+02 -0.23959929315E+02 -0.10338606098E+03  0.11996667369E+03  0.47000000000E+01 0.  1.
         13    1    6    6    0    0 -0.43433409389E+01  0.10411605963E+02 -0.27817437663E+02  0.30017927766E+02  0.00000000000E+00 0. -1.
        -14    1    6    6    0    0  0.10417313336E+03 -0.51434093525E+02 -0.26028617863E+03  0.28503754573E+03  0.00000000000E+00 0.  1.
<mgrwt>
<rscale>  2 0.18965387E+03</rscale>
<asrwt>0</asrwt>
<pdfrwt beam="1">  1       21 0.46890006E-02 0.18968421E+03</pdfrwt>
<pdfrwt beam="2">  1       21 0.22221389E+00 0.18968421E+03</pdfrwt>
<totfact> 0.29306366E+04</totfact>
</mgrwt>
</event>
<event>
12    1  0.1013215E-001  0.1802485E+03  0.7546771E-02  0.1167856E+00
         21   -1    0    0  501  502  0.00000000000E+00  0.00000000000E+00  0.23717498010E+02  0.23717498010E+02  0.00000000000E+00 0. -1.
         21   -1    0    0  502  503 -0.00000000000E+00 -0.00000000000E+00 -0.15472655568E+04  0.15472655568E+04  0.00000000000E+00 0. -1.
         -6    2    1    2    0  503  0.44316249970E+02 -0.28192463172E+02 -0.48673486086E+03  0.51861852072E+03  0.17115957545E+03 0.  0.
        -24    2    3    3    0    0  0.41113848993E+02 -0.56408515847E+02 -0.17368567336E+03  0.20424885807E+03  0.81722785405E+02 0.  0.
          6    2    1    2  501    0 -0.44316249970E+02  0.28192463172E+02 -0.10368131979E+04  0.10523645341E+04  0.17242610072E+03 0.  0.
         24    2    5    5    0    0  0.23551409677E+02 -0.31182630674E+02 -0.44282556962E+03  0.45155273861E+03  0.79236136238E+02 0.  0.
          5    1    5    5  501    0 -0.67867659647E+02  0.59375093846E+02 -0.59398762833E+03  0.60081179549E+03  0.47000000000E+01 0. -1.
        -11    1    6    6    0    0  0.47218230242E+02 -0.27140172533E+02 -0.38657225258E+03  0.39038987781E+03  0.00000000000E+00 0.  1.
         12    1    6    6    0    0 -0.23666820566E+02 -0.40424581412E+01 -0.56253317044E+02  0.61162860806E+02  0.00000000000E+00 0. -1.
         -5    1    3    3    0  503  0.32024009775E+01  0.28216052674E+02 -0.31304918750E+03  0.31436966265E+03  0.47000000000E+01 0.  1.
         13    1    4    4    0    0 -0.13782241982E+02  0.96597467389E+01 -0.56492598404E+02  0.58946370333E+02  0.00000000000E+00 0. -1.
        -14    1    4    4    0    0  0.54896090974E+02 -0.66068262586E+02 -0.11719307495E+03  0.14530248774E+03  0.00000000000E+00 0.  1.
<mgrwt>
<rscale>  2 0.17994489E+03</rscale>
<asrwt>0</asrwt>
<pdfrwt beam="1">  1       21 0.36488438E-02 0.18024845E+03</pdfrwt>
<pdfrwt beam="2">  1       21 0.23804099E+00 0.18024845E+03</pdfrwt>
<totfact> 0.36115621E+04</totfact>
</mgrwt>
</event>
<event>
12    1  0.1013215E-001  0.2077580E+03  0.7546771E-02  0.1143374E+00
         21   -1    0    0  501  502  0.00000000000E+00  0.00000000000E+00  0.86630474597E+02  0.86630474597E+02  0.00000000000E+00 0.  1.
         21   -1    0    0  502  503 -0.00000000000E+00 -0.00000000000E+00 -0.53497563524E+03  0.53497563524E+03  0.00000000000E+00 0.  1.
         -6    2    1    2    0  503  0.59176855277E+02 -0.90200745637E+02 -0.30592892129E+03  0.36980522893E+03  0.17755373199E+03 0.  0.
        -24    2    3    3    0    0 -0.12203887182E+02  0.12121157491E+02 -0.15044580497E+03  0.17040093680E+03  0.78145260321E+02 0.  0.
          6    2    1    2  501    0 -0.59176855277E+02  0.90200745637E+02 -0.14241623935E+03  0.25180088091E+03  0.17743512528E+03 0.  0.
         24    2    5    5    0    0 -0.70528504230E+02  0.11977346311E+03 -0.67226963106E+02  0.17007620401E+03  0.71319690324E+02 0.  0.
          5    1    5    5  501    0  0.11351648953E+02 -0.29572717472E+02 -0.75189276243E+02  0.81724676901E+02  0.47000000000E+01 0. -1.
        -11    1    6    6    0    0 -0.71309917293E+01 -0.28972813850E+01  0.94046826414E+01  0.12152914797E+02  0.00000000000E+00 0.  1.
         12    1    6    6    0    0 -0.63397512501E+02  0.12267074449E+03 -0.76631645747E+02  0.15792328921E+03  0.00000000000E+00 0. -1.
         -5    1    3    3    0  503  0.71380742459E+02 -0.10232190313E+03 -0.15548311633E+03  0.19940429212E+03  0.47000000000E+01 0.  1.
         11    1    4    4    0    0 -0.20630887725E+01 -0.27893282500E+01  0.91520773645E+01  0.97876047864E+01  0.00000000000E+00 0. -1.
        -12    1    4    4    0    0 -0.10140798409E+02  0.14910485741E+02 -0.15959788233E+03  0.16061333202E+03  0.00000000000E+00 0.  1.
<mgrwt>
<rscale>  2 0.20773270E+03</rscale>
<asrwt>0</asrwt>
<pdfrwt beam="1">  1       21 0.13327765E-01 0.20775804E+03</pdfrwt>
<pdfrwt beam="2">  1       21 0.82303944E-01 0.20775804E+03</pdfrwt>
<totfact> 0.62230993E+04</totfact>
</mgrwt>
</event>
<event>
12    1  0.1013215E-001  0.1800683E+03  0.7546771E-02  0.1169869E+00
         21   -1    0    0  501  502  0.00000000000E+00  0.00000000000E+00  0.29593734232E+03  0.29593734232E+03  0.00000000000E+00 0.  1.
         21   -1    0    0  502  503 -0.00000000000E+00 -0.00000000000E+00 -0.29540221554E+03  0.29540221554E+03  0.00000000000E+00 0. -1.
         -6    2    1    2    0  503 -0.30730832200E+02  0.42051621892E+02 -0.23745773342E+03  0.29290163884E+03  0.16337830922E+03 0.  0.
        -24    2    3    3    0    0 -0.66440846768E+02 -0.12819684950E+02 -0.14591302935E+03  0.18025800476E+03  0.81385537447E+02 0.  0.
          6    2    1    2  501    0  0.30730832200E+02 -0.42051621892E+02  0.23799286020E+03  0.29843791901E+03  0.17237130576E+03 0.  0.
         24    2    5    5    0    0  0.63053682501E+02 -0.79755520071E+02  0.14820991234E+03  0.19572755772E+03  0.77500895988E+02 0.  0.
          5    1    5    5  501    0 -0.32322850301E+02  0.37703898180E+02  0.89782947861E+02  0.10271036129E+03  0.47000000000E+01 0. -1.
        -11    1    6    6    0    0 -0.14216546022E+02 -0.14748630804E+02  0.53486097589E+02  0.57274732009E+02  0.00000000000E+00 0.  1.
         12    1    6    6    0    0  0.77270228523E+02 -0.65006889268E+02  0.94723814748E+02  0.13845282572E+03  0.00000000000E+00 0. -1.
         -5    1    3    3    0  503  0.35710014568E+02  0.54871306842E+02 -0.91544704071E+02  0.11264363408E+03  0.47000000000E+01 0.  1.
         13    1    4    4    0    0 -0.35279934695E+02 -0.35097861902E+02 -0.12922312596E+03  0.13847436581E+03  0.00000000000E+00 0. -1.
        -14    1    4    4    0    0 -0.31160912072E+02  0.22278176952E+02 -0.16689903392E+02  0.41783638960E+02  0.00000000000E+00 0.  1.
<mgrwt>
<rscale>  2 0.17788157E+03</rscale>
<asrwt>0</asrwt>
<pdfrwt beam="1">  1       21 0.45528822E-01 0.18006829E+03</pdfrwt>
<pdfrwt beam="2">  1       21 0.45446495E-01 0.18006829E+03</pdfrwt>
<totfact> 0.21640468E+04</totfact>
</mgrwt>
</event>
<event>
12    1  0.1013215E-001  0.2225074E+03  0.7546771E-02  0.1132194E+00
         21   -1    0    0  501  502  0.00000000000E+00  0.00000000000E+00  0.10938935355E+03  0.10938935355E+03  0.00000000000E+00 0. -1.
         21   -1    0    0  502  503 -0.00000000000E+00 -0.00000000000E+00 -0.45315868896E+03  0.45315868896E+03  0.00000000000E+00 0. -1.
         -6    2    1    2    0  503 -0.93318890496E+02  0.10348761851E+03 -0.19270893310E+03  0.29435740481E+03  0.17346886279E+03 0.  0.
        -24    2    3    3    0    0 -0.12500209102E+03  0.51634972871E+02 -0.16271196449E+03  0.22642780757E+03  0.80639168319E+02 0.  0.
          6    2    1    2  501    0  0.93318890496E+02 -0.10348761851E+03 -0.15106040231E+03  0.26819063770E+03  0.17230458640E+03 0.  0.
         24    2    5    5    0    0  0.60051417640E+02 -0.11967092730E+03 -0.55988982137E+02  0.16606674643E+03  0.80722329929E+02 0.  0.
          5    1    5    5  501    0  0.33267472856E+02  0.16183308789E+02 -0.95071420176E+02  0.10212389127E+03  0.47000000000E+01 0. -1.
        -11    1    6    6    0    0  0.70045554303E+00  0.11671564189E+02 -0.75841088576E+00  0.11717134277E+02  0.00000000000E+00 0.  1.
         12    1    6    6    0    0  0.59350962097E+02 -0.13134249149E+03 -0.55230571252E+02  0.15434961216E+03  0.00000000000E+00 0. -1.
         -5    1    3    3    0  503  0.31683200525E+02  0.51852645641E+02 -0.29996968610E+02  0.67929597240E+02  0.47000000000E+01 0.  1.
         13    1    4    4    0    0 -0.65786361260E+02  0.10998460192E+01 -0.29432818564E+02  0.72078747199E+02  0.00000000000E+00 0. -1.
        -14    1    4    4    0    0 -0.59215729761E+02  0.50535126851E+02 -0.13327914593E+03  0.15434906037E+03  0.00000000000E+00 0.  1.
<mgrwt>
<rscale>  2 0.22228045E+03</rscale>
<asrwt>0</asrwt>
<pdfrwt beam="1">  1       21 0.16829131E-01 0.22250741E+03</pdfrwt>
<pdfrwt beam="2">  1       21 0.69716721E-01 0.22250741E+03</pdfrwt>
<totfact> 0.58607336E+04</totfact>
</mgrwt>
</event>
<event>
12    1  0.1013215E-001  0.1898901E+03  0.7546771E-02  0.1158646E+00
         21   -1    0    0  501  502  0.00000000000E+00  0.00000000000E+00  0.34091089078E+03  0.34091089078E+03  0.00000000000E+00 0. -1.
         21   -1    0    0  502  503 -0.00000000000E+00 -0.00000000000E+00 -0.11951796612E+03  0.11951796612E+03  0.00000000000E+00 0. -1.
         -6    2    1    2    0  503 -0.33229817591E+02 -0.71291285328E+02  0.32119523187E+02  0.19258737100E+03  0.17283391901E+03 0.  0.
        -24    2    3    3    0    0 -0.43308075222E+02 -0.48579937449E+02 -0.44012610693E+02  0.11236537646E+03  0.80332236522E+02 0.  0.
          6    2    1    2  501    0  0.33229817591E+02  0.71291285328E+02  0.18927340147E+03  0.26784148590E+03  0.17241801798E+03 0.  0.
         24    2    5    5    0    0  0.59075192890E+02  0.52679873350E+02  0.20326328482E+03  0.23273913674E+03  0.81157226054E+02 0.  0.
          5    1    5    5  501    0 -0.25845375300E+02  0.18611411978E+02 -0.13989883358E+02  0.35102349160E+02  0.47000000000E+01 0. -1.
        -13    1    6    6    0    0  0.89313384621E+01 -0.20459586451E+02  0.24222404799E+02  0.32940679694E+02  0.00000000000E+00 0.  1.
         14    1    6    6    0    0  0.50143854428E+02  0.73139459801E+02  0.17904088003E+03  0.19979845704E+03  0.00000000000E+00 0. -1.
         -5    1    3    3    0  503  0.10078257631E+02 -0.22711347879E+02  0.76132133880E+02  0.80221994543E+02  0.47000000000E+01 0.  1.
         13    1    4    4    0    0  0.74098623295E+01 -0.47855518686E+02 -0.56202094266E+01  0.48750830582E+02  0.00000000000E+00 0. -1.
        -14    1    4    4    0    0 -0.50717937551E+02 -0.72441876311E+00 -0.38392401267E+02  0.63614545876E+02  0.00000000000E+00 0.  1.
<mgrwt>
<rscale>  2 0.18979536E+03</rscale>
<asrwt>0</asrwt>
<pdfrwt beam="1">  1       21 0.52447829E-01 0.18989005E+03</pdfrwt>
<pdfrwt beam="2">  1       21 0.18387380E-01 0.18989005E+03</pdfrwt>
<totfact> 0.93160014E+04</totfact>
</mgrwt>
</event>
<event>
12    1  0.1013215E-001  0.1949315E+03  0.7546771E-02  0.1154310E+00
         21   -1    0    0  501  502  0.00000000000E+00  0.00000000000E+00  0.28145190692E+02  0.28145190692E+02  0.00000000000E+00 0. -1.
         21   -1    0    0  502  503 -0.00000000000E+00 -0.00000000000E+00 -0.29206085889E+04  0.29206085889E+04  0.00000000000E+00 0. -1.
         -6    2    1    2    0  503  0.52761993238E+02 -0.73105770840E+02 -0.25315757658E+04  0.25390695405E+04  0.17282937229E+03 0.  0.
        -24    2    3    3    0    0  0.61380438153E+02 -0.10078544702E+03 -0.24012351993E+04  0.24054611750E+04  0.79923197124E+02 0.  0.
          6    2    1    2  501    0 -0.52761993238E+02  0.73105770840E+02 -0.36088763242E+03  0.40968423909E+03  0.17167705398E+03 0.  0.
         24    2    5    5    0    0 -0.86288557451E+02  0.79905140123E+02 -0.19856095764E+03  0.24372550544E+03  0.78390825589E+02 0.  0.
          5    1    5    5  501    0  0.33526564213E+02 -0.67993692833E+01 -0.16232667478E+03  0.16595873365E+03  0.47000000000E+01 0. -1.
        -11    1    6    6    0    0  0.15105970386E+02  0.91321740973E+01 -0.23120487241E+02  0.29088552306E+02  0.00000000000E+00 0.  1.
         12    1    6    6    0    0 -0.10139452784E+03  0.70772966026E+02 -0.17544047040E+03  0.21463695313E+03  0.00000000000E+00 0. -1.
         -5    1    3    3    0  503 -0.86184449145E+01  0.27679676181E+02 -0.13034056644E+03  0.13360836548E+03  0.47000000000E+01 0.  1.
         13    1    4    4    0    0  0.50488482021E+02 -0.10552004339E+02 -0.83725957221E+03  0.83884684113E+03  0.00000000000E+00 0. -1.
        -14    1    4    4    0    0  0.10891956132E+02 -0.90233442682E+02 -0.15639756271E+04  0.15666143339E+04  0.00000000000E+00 0.  1.
<mgrwt>
<rscale>  2 0.19467572E+03</rscale>
<asrwt>0</asrwt>
<pdfrwt beam="1">  1       21 0.43300336E-02 0.19493146E+03</pdfrwt>
<pdfrwt beam="2">  1       21 0.44932395E+00 0.19493146E+03</pdfrwt>
<totfact> 0.14367010E+03</totfact>
</mgrwt>
</event>
<event>
12    1  0.1013215E-001  0.1932841E+03  0.7546771E-02  0.1155611E+00
         21   -1    0    0  501  502  0.00000000000E+00  0.00000000000E+00  0.17871722285E+03  0.17871722285E+03  0.00000000000E+00 0.  1.
         21   -1    0    0  502  503 -0.00000000000E+00 -0.00000000000E+00 -0.45998811326E+03  0.45998811326E+03  0.00000000000E+00 0.  1.
         -6    2    1    2    0  503 -0.76497422012E+02 -0.40063746927E+02 -0.37675652172E+03  0.42344330735E+03  0.17292136504E+03 0.  0.
        -24    2    3    3    0    0 -0.84341926449E+02 -0.17651948200E+02 -0.12833055995E+03  0.17384087656E+03  0.79540970042E+02 0.  0.
          6    2    1    2  501    0  0.76497422012E+02  0.40063746927E+02  0.95485631302E+02  0.21526202876E+03  0.17252036358E+03 0.  0.
         24    2    5    5    0    0  0.35203176378E+02  0.51727770358E+02  0.12826063459E+03  0.16106281285E+03  0.74668691199E+02 0.  0.
          5    1    5    5  501    0  0.41294245634E+02 -0.11664023430E+02 -0.32775003285E+02  0.54199215911E+02  0.47000000000E+01 0. -1.
        -11    1    6    6    0    0  0.33707995991E+02  0.56351606902E+01  0.12390532819E+02  0.36352569831E+02  0.00000000000E+00 0.  1.
         12    1    6    6    0    0  0.14951803869E+01  0.46092609668E+02  0.11587010177E+03  0.12471024302E+03  0.00000000000E+00 0. -1.
         -5    1    3    3    0  503  0.78445044369E+01 -0.22411798727E+02 -0.24842596177E+03  0.24960243079E+03  0.47000000000E+01 0.  1.
         11    1    4    4    0    0 -0.82822685757E+02 -0.14572686373E+01 -0.13320471508E+03  0.15686050181E+03  0.00000000000E+00 0. -1.
        -12    1    4    4    0    0 -0.15192406913E+01 -0.16194679563E+02  0.48741551356E+01  0.16980374752E+02  0.00000000000E+00 0.  1.
<mgrwt>
<rscale>  2 0.19319441E+03</rscale>
<asrwt>0</asrwt>
<pdfrwt beam="1">  1       21 0.27494957E-01 0.19328414E+03</pdfrwt>
<pdfrwt beam="2">  1       21 0.70767403E-01 0.19328414E+03</pdfrwt>
<totfact> 0.22820123E+04</totfact>
</mgrwt>
</event>
<event>
12    1  0.1013215E-001  0.1807422E+03  0.7546771E-02  0.1167314E+00
         21   -1    0    0  501  502  0.00000000000E+00  0.00000000000E+00  0.18662083084E+03  0.18662083084E+03  0.00000000000E+00 0. -1.
         21   -1    0    0  502  503 -0.00000000000E+00 -0.00000000000E+00 -0.34378467645E+03  0.34378467645E+03  0.00000000000E+00 0. -1.
         -6    2    1    2    0  503 -0.20792303738E+02  0.47122115014E+02 -0.26498458111E+03  0.32075624378E+03  0.17324816329E+03 0.  0.
        -24    2    3    3    0    0 -0.74191254740E+02  0.75077490947E+01 -0.19988961873E+03  0.22758870608E+03  0.79246772054E+02 0.  0.
          6    2    1    2  501    0  0.20792303738E+02 -0.47122115014E+02  0.10782073551E+03  0.20964926351E+03  0.17226342927E+03 0.  0.
         24    2    5    5    0    0  0.18753057378E+02 -0.27372682788E+02 -0.12573578628E+02  0.87538332484E+02  0.80024520308E+02 0.  0.
          5    1    5    5  501    0  0.20392463592E+01 -0.19749432226E+02  0.12039431414E+03  0.12211093102E+03  0.47000000000E+01 0. -1.
        -11    1    6    6    0    0  0.43415454922E+02 -0.11873911810E+02  0.14985619194E+02  0.47439016542E+02  0.00000000000E+00 0.  1.
         12    1    6    6    0    0 -0.24662397544E+02 -0.15498770978E+02 -0.27559197822E+02  0.40099315942E+02  0.00000000000E+00 0. -1.
         -5    1    3    3    0  503  0.53398951002E+02  0.39614365919E+02 -0.65094962375E+02  0.93167537705E+02  0.47000000000E+01 0.  1.
         13    1    4    4    0    0 -0.64314713574E+02 -0.15927812053E+02 -0.74737503504E+02  0.99878786581E+02  0.00000000000E+00 0. -1.
        -14    1    4    4    0    0 -0.98765411656E+01  0.23435561147E+02 -0.12515211523E+03  0.12770991950E+03  0.00000000000E+00 0.  1.
<mgrwt>
<rscale>  2 0.18050581E+03</rscale>
<asrwt>0</asrwt>
<pdfrwt beam="1">  1       21 0.28710897E-01 0.18074219E+03</pdfrwt>
<pdfrwt beam="2">  1       21 0.52889949E-01 0.18074219E+03</pdfrwt>
<totfact> 0.39551376E+04</totfact>
</mgrwt>
</event>
<event>
12    1  0.1013215E-001  0.2335551E+03  0.7546771E-02  0.1124206E+00
         21   -1    0    0  501  502  0.00000000000E+00  0.00000000000E+00  0.12125775835E+03  0.12125775835E+03  0.00000000000E+00 0.  1.
         21   -1    0    0  502  503 -0.00000000000E+00 -0.00000000000E+00 -0.59338674543E+03  0.59338674543E+03  0.00000000000E+00 0. -1.
         -6    2    1    2    0  503  0.15065731159E+03  0.39916141347E+02 -0.41220267533E+03  0.47377107652E+03  0.17394557631E+03 0.  0.
        -24    2    3    3    0    0  0.17132915740E+03  0.10557588963E+02 -0.28715103529E+03  0.34358178170E+03  0.78278865529E+02 0.  0.
          6    2    1    2  501    0 -0.15065731159E+03 -0.39916141347E+02 -0.59926311739E+02  0.24087342726E+03  0.17360276854E+03 0.  0.
         24    2    5    5    0    0 -0.14283629632E+03 -0.65801843356E+02 -0.16823760084E+01  0.17648644179E+03  0.80078359192E+02 0.  0.
          5    1    5    5  501    0 -0.78210152714E+01  0.25885702009E+02 -0.58243935731E+02  0.64386985469E+02  0.47000000000E+01 0. -1.
        -13    1    6    6    0    0 -0.76967886291E+01  0.49238293373E-01  0.22900982230E+02  0.24159842025E+02  0.00000000000E+00 0.  1.
         14    1    6    6    0    0 -0.13513950769E+03 -0.65851081649E+02 -0.24583358238E+02  0.15232659977E+03  0.00000000000E+00 0. -1.
         -5    1    3    3    0  503 -0.20671845811E+02  0.29358552384E+02 -0.12505164005E+03  0.13018929482E+03  0.47000000000E+01 0.  1.
         11    1    4    4    0    0  0.84294045039E+02 -0.30881647504E+02 -0.16640721850E+03  0.18907809114E+03  0.00000000000E+00 0. -1.
        -12    1    4    4    0    0  0.87035112365E+02  0.41439236467E+02 -0.12074381678E+03  0.15450369055E+03  0.00000000000E+00 0.  1.
<mgrwt>
<rscale>  2 0.23349128E+03</rscale>
<asrwt>0</asrwt>
<pdfrwt beam="1">  1       21 0.18655039E-01 0.23355511E+03</pdfrwt>
<pdfrwt beam="2">  1       21 0.91290270E-01 0.23355511E+03</pdfrwt>
<totfact> 0.26116270E+04</totfact>
</mgrwt>
</event>
<event>
12    1  0.1013215E-001  0.2503647E+03  0.7546771E-02  0.1113232E+00
         21   -1    0    0  501  502  0.00000000000E+00  0.00000000000E+00  0.10748933275E+04  0.10748933275E+04  0.00000000000E+00 0.  1.
         21   -1    0    0  502  503 -0.00000000000E+00 -0.00000000000E+00 -0.76412683707E+02  0.76412683707E+02  0.00000000000E+00 0.  1.
         -6    2    1    2    0  503 -0.17679205477E+03 -0.28927103714E+02  0.78042234515E+03  0.81929413119E+03  0.17346938816E+03 0.  0.
        -24    2    3    3    0    0 -0.71803401742E+02  0.47221502584E+02  0.31772580920E+03  0.33874090636E+03  0.80063181338E+02 0.  0.
          6    2    1    2  501    0  0.17679205477E+03  0.28927103714E+02  0.21805829869E+03  0.33201188006E+03  0.17490071160E+03 0.  0.
         24    2    5    5    0    0  0.11720231898E+03 -0.50569024983E+02  0.12860702680E+03  0.19824270898E+03  0.80416381787E+02 0.  0.
          5    1    5    5  501    0  0.59589735789E+02  0.79496128697E+02  0.89451271889E+02  0.13376917108E+03  0.47000000000E+01 0. -1.
        -13    1    6    6    0    0  0.10677474053E+03 -0.46416046705E+02  0.14011030398E+03  0.18217077671E+03  0.00000000000E+00 0.  1.
         14    1    6    6    0    0  0.10427578453E+02 -0.41529782778E+01 -0.11503277181E+02  0.16071932269E+02  0.00000000000E+00 0. -1.
         -5    1    3    3    0  503 -0.10498865303E+03 -0.76148606299E+02  0.46269653596E+03  0.48055322483E+03  0.47000000000E+01 0.  1.
         11    1    4    4    0    0  0.94380184804E+01  0.33419768379E+02  0.10602119571E+03  0.11156366367E+03  0.00000000000E+00 0. -1.
        -12    1    4    4    0    0 -0.81241420222E+02  0.13801734205E+02  0.21170461349E+03  0.22717724270E+03  0.00000000000E+00 0.  1.
<mgrwt>
<rscale>  2 0.25011485E+03</rscale>
<asrwt>0</asrwt>
<pdfrwt beam="1">  1       21 0.16536819E+00 0.25036467E+03</pdfrwt>
<pdfrwt beam="2">  1       21 0.11755798E-01 0.25036467E+03</pdfrwt>
<totfact> 0.13478497E+04</totfact>
</mgrwt>
</event>
<event>
12    1  0.1013215E-001  0.1940810E+03  0.7546771E-02  0.1154948E+00
         21   -1    0    0  503  502  0.00000000000E+00  0.00000000000E+00  0.17916279950E+04  0.17916279950E+04  0.00000000000E+00 0.  1.
         21   -1    0    0  501  503 -0.00000000000E+00 -0.00000000000E+00 -0.46646290150E+02  0.46646290150E+02  0.00000000000E+00 0. -1.
          6    2    1    2  501    0 -0.41405461190E+02 -0.75747192839E+02  0.19105635184E+03  0.27234161077E+03  0.17382569987E+03 0.  0.
         24    2    3    3    0    0 -0.12918549739E+02 -0.98526113716E+01  0.18743427721E+03  0.20030821979E+03  0.68759084963E+02 0.  0.
         -6    2    1    2    0  502  0.41405461190E+02  0.75747192839E+02  0.15539253530E+04  0.15659326744E+04  0.17323131514E+03 0.  0.
        -24    2    5    5    0    0  0.10914061021E+02  0.33474020772E+02  0.14092032943E+04  0.14120388447E+04  0.82220114795E+02 0.  0.
          5    1    3    3  501    0 -0.28486911450E+02 -0.65894581467E+02  0.36220746339E+01  0.72033390975E+02  0.47000000000E+01 0. -1.
        -13    1    4    4    0    0 -0.22314811448E+02 -0.35702590287E+02  0.12958706961E+03  0.13625503431E+03  0.00000000000E+00 0.  1.
         14    1    4    4    0    0  0.93962617093E+01  0.25849978915E+02  0.57847207597E+02  0.64053185485E+02  0.00000000000E+00 0. -1.
         -5    1    5    5    0  502  0.30491400168E+02  0.42273172066E+02  0.14472205872E+03  0.15389382977E+03  0.47000000000E+01 0.  1.
         11    1    6    6    0    0 -0.12053750645E+02  0.55991400789E+02  0.90779266880E+03  0.90959763599E+03  0.00000000000E+00 0. -1.
        -12    1    6    6    0    0  0.22967811667E+02 -0.22517380016E+02  0.50141062552E+03  0.50244120866E+03  0.00000000000E+00 0.  1.
<mgrwt>
<rscale>  2 0.19394779E+03</rscale>
<asrwt>0</asrwt>
<pdfrwt beam="1">  1       21 0.27563502E+00 0.19408097E+03</pdfrwt>
<pdfrwt beam="2">  1       21 0.71763537E-02 0.19408097E+03</pdfrwt>
<totfact> 0.68228015E+03</totfact>
</mgrwt>
</event>
<event>
12    1  0.1013215E-001  0.2357131E+03  0.7546771E-02  0.1122740E+00
         21   -1    0    0  503  502  0.00000000000E+00  0.00000000000E+00  0.46529193304E+02  0.46529193304E+02  0.00000000000E+00 0. -1.
         21   -1    0    0  501  503 -0.00000000000E+00 -0.00000000000E+00 -0.14899851481E+04  0.14899851481E+04  0.00000000000E+00 0.  1.
          6    2    1    2  501    0  0.15789979386E+03  0.25969404049E+02 -0.10654962674E+04  0.10912575132E+04  0.17307197810E+03 0.  0.
         24    2    3    3    0    0  0.10508873512E+03 -0.51873256309E+02 -0.67431876878E+03  0.68890143576E+03  0.78389471778E+02 0.  0.
         -6    2    1    2    0  502 -0.15789979386E+03 -0.25969404049E+02 -0.37795968743E+03  0.44525682815E+03  0.17260753995E+03 0.  0.
        -24    2    5    5    0    0 -0.44299609278E+02 -0.46976914385E+02 -0.99996661905E+02  0.14420558503E+03  0.81404130699E+02 0.  0.
          5    1    3    3  501    0  0.52811058742E+02  0.77842660357E+02 -0.39117749857E+03  0.40235607748E+03  0.47000000000E+01 0. -1.
        -13    1    4    4    0    0  0.57188059511E+02 -0.22941570363E+01 -0.46531249998E+03  0.46881921883E+03  0.00000000000E+00 0.  1.
         14    1    4    4    0    0  0.47900675606E+02 -0.49579099272E+02 -0.20900626881E+03  0.22008221693E+03  0.00000000000E+00 0. -1.
         -5    1    5    5    0  502 -0.11360018458E+03  0.21007510337E+02 -0.27796302552E+03  0.30105124312E+03  0.47000000000E+01 0.  1.
         11    1    6    6    0    0 -0.29361133874E+02 -0.14640550280E+02  0.51306496714E+01  0.33207611490E+02  0.00000000000E+00 0. -1.
        -12    1    6    6    0    0 -0.14938475404E+02 -0.32336364105E+02 -0.10512731158E+03  0.11099797354E+03  0.00000000000E+00 0.  1.
<mgrwt>
<rscale>  2 0.23562785E+03</rscale>
<asrwt>0</asrwt>
<pdfrwt beam="1">  1       21 0.71583366E-02 0.23571310E+03</pdfrwt>
<pdfrwt beam="2">  1       21 0.22922851E+00 0.23571310E+03</pdfrwt>
<totfact> 0.12420024E+04</totfact>
</mgrwt>
</event>
<event>
12    1  0.1013215E-001  0.1931591E+03  0.7546771E-02  0.1155947E+00
         21   -1    0    0  501  502  0.00000000000E+00  0.00000000000E+00  0.37597632962E+02  0.37597632962E+02  0.00000000000E+00 0. -1.
         21   -1    0    0  502  503 -0.00000000000E+00 -0.00000000000E+00 -0.10272291796E+04  0.10272291796E+04  0.00000000000E+00 0. -1.
         -6    2    1    2    0  503  0.84958215137E+02  0.23666800683E+01 -0.60406371734E+03  0.63419508833E+03  0.17345586172E+03 0.  0.
        -24    2    3    3    0    0 -0.48231247386E+01  0.44878594617E+02 -0.24750969208E+03  0.26403186110E+03  0.80090106840E+02 0.  0.
          6    2    1    2  501    0 -0.84958215137E+02 -0.23666800683E+01 -0.38556782927E+03  0.43063172420E+03  0.17192333008E+03 0.  0.
         24    2    5    5    0    0 -0.21361814167E+02 -0.61488523655E+02 -0.23319422691E+03  0.25519028297E+03  0.80655857893E+02 0.  0.
          5    1    5    5  501    0 -0.63596400970E+02  0.59121843587E+02 -0.15237360236E+03  0.17544144123E+03  0.47000000000E+01 0. -1.
        -11    1    6    6    0    0 -0.16284738188E+02 -0.62190072468E+02 -0.23897132035E+03  0.24746735090E+03  0.00000000000E+00 0.  1.
         12    1    6    6    0    0 -0.50770759790E+01  0.70154881340E+00  0.57770934368E+01  0.77229320734E+01  0.00000000000E+00 0. -1.
         -5    1    3    3    0  503  0.89781339876E+02 -0.42511914549E+02 -0.35655402525E+03  0.37016322723E+03  0.47000000000E+01 0.  1.
         13    1    4    4    0    0  0.28854734826E+02  0.88041688535E+01 -0.36627294678E+02  0.47451742081E+02  0.00000000000E+00 0. -1.
        -14    1    4    4    0    0 -0.33677859564E+02  0.36074425763E+02 -0.21088239741E+03  0.21658011902E+03  0.00000000000E+00 0.  1.
<mgrwt>
<rscale>  2 0.19281442E+03</rscale>
<asrwt>0</asrwt>
<pdfrwt beam="1">  1       21 0.57842513E-02 0.19315909E+03</pdfrwt>
<pdfrwt beam="2">  1       21 0.15803526E+00 0.19315909E+03</pdfrwt>
<totfact> 0.54609667E+04</totfact>
</mgrwt>
</event>
<event>
12    1  0.1013215E-001  0.2451725E+03  0.7546771E-02  0.1116525E+00
         21   -1    0    0  503  502  0.00000000000E+00  0.00000000000E+00  0.55250235913E+02  0.55250235913E+02  0.00000000000E+00 0. -1.
         21   -1    0    0  501  503 -0.00000000000E+00 -0.00000000000E+00 -0.11450366121E+04  0.11450366121E+04  0.00000000000E+00 0. -1.
          6    2    1    2  501    0 -0.16869419539E+03 -0.48372575233E+02 -0.40589850313E+03  0.47378003058E+03  0.17004789015E+03 0.  0.
         24    2    3    3    0    0 -0.12408410341E+03 -0.46538042088E+02 -0.40001496156E+03  0.42850164855E+03  0.77711255652E+02 0.  0.
         -6    2    1    2    0  502  0.16869419539E+03  0.48372575233E+02 -0.68388787307E+03  0.72650681744E+03  0.17120717060E+03 0.  0.
        -24    2    5    5    0    0  0.96201611442E+02 -0.17707866343E+02 -0.24061488239E+03  0.27248607590E+03  0.82370027049E+02 0.  0.
          5    1    3    3  501    0 -0.44610091980E+02 -0.18345331454E+01 -0.58835415666E+01  0.45278382035E+02  0.47000000000E+01 0. -1.
        -11    1    4    4    0    0 -0.28284880099E+02  0.10368870552E+02 -0.17313217425E+03  0.17573359860E+03  0.00000000000E+00 0.  1.
         12    1    4    4    0    0 -0.95799223308E+02 -0.56906912640E+02 -0.22688278731E+03  0.25276804994E+03  0.00000000000E+00 0. -1.
         -5    1    5    5    0  502  0.72492583945E+02  0.66080441576E+02 -0.44327299068E+03  0.45402074154E+03  0.47000000000E+01 0.  1.
         13    1    6    6    0    0  0.48614110831E+01  0.42945991168E+01 -0.11719548249E+03  0.11737486109E+03  0.00000000000E+00 0. -1.
        -14    1    6    6    0    0  0.91340200359E+02 -0.22002465459E+02 -0.12341939990E+03  0.15511121481E+03  0.00000000000E+00 0.  1.
<mgrwt>
<rscale>  2 0.24497017E+03</rscale>
<asrwt>0</asrwt>
<pdfrwt beam="1">  1       21 0.85000369E-02 0.24517246E+03</pdfrwt>
<pdfrwt beam="2">  1       21 0.17615947E+00 0.24517246E+03</pdfrwt>
<totfact> 0.20167205E+04</totfact>
</mgrwt>
</event>
<event>
12    1  0.1013215E-001  0.2038304E+03  0.7546771E-02  0.1146733E+00
         21   -1    0    0  501  502  0.00000000000E+00  0.00000000000E+00  0.96820781218E+02  0.96820781218E+02  0.00000000000E+00 0. -1.
         21   -1    0    0  502  503 -0.00000000000E+00 -0.00000000000E+00 -0.12091645637E+04  0.12091645637E+04  0.00000000000E+00 0. -1.
         -6    2    1    2    0  503  0.74893493499E+02  0.75623036844E+02 -0.10817254769E+04  0.11007619285E+04  0.17383594776E+03 0.  0.
        -24    2    3    3    0    0  0.85710624416E+02  0.61763677570E+02 -0.10718995043E+04  0.10800802482E+04  0.80272861484E+02 0.  0.
          6    2    1    2  501    0 -0.74893493499E+02 -0.75623036844E+02 -0.30618305623E+02  0.20522341649E+03  0.17277526144E+03 0.  0.
         24    2    5    5    0    0 -0.11527849023E+02 -0.54274859860E+02 -0.77451300378E+02  0.12345319600E+03  0.78506916618E+02 0.  0.
          5    1    5    5  501    0 -0.63365644476E+02 -0.21348176985E+02  0.46832994754E+02  0.81770220484E+02  0.47000000000E+01 0. -1.
        -11    1    6    6    0    0 -0.22635260036E+02 -0.58036801691E+02 -0.87907082096E+02  0.10774173022E+03  0.00000000000E+00 0.  1.
         12    1    6    6    0    0  0.11107411013E+02  0.37619418313E+01  0.10455781718E+02  0.15711465785E+02  0.00000000000E+00 0. -1.
         -5    1    3    3    0  503 -0.10817130917E+02  0.13859359274E+02 -0.98259726243E+01  0.20681680270E+02  0.47000000000E+01 0.  1.
         11    1    4    4    0    0  0.50986430718E+02  0.78002526901E+02 -0.69066720255E+03  0.69692553046E+03  0.00000000000E+00 0. -1.
        -12    1    4    4    0    0  0.34724193698E+02 -0.16238849332E+02 -0.38123230172E+03  0.38315471775E+03  0.00000000000E+00 0.  1.
<mgrwt>
<rscale>  2 0.20360402E+03</rscale>
<asrwt>0</asrwt>
<pdfrwt beam="1">  1       21 0.14895504E-01 0.20383036E+03</pdfrwt>
<pdfrwt beam="2">  1       21 0.18602532E+00 0.20383036E+03</pdfrwt>
<totfact> 0.65213531E+03</totfact>
</mgrwt>
</event>
<event>
12    1  0.1013215E-001  0.1767251E+03  0.7546771E-02  0.1171266E+00
         21   -1    0    0  503  502  0.00000000000E+00  0.00000000000E+00  0.58522311598E+03  0.58522311598E+03  0.00000000000E+00 0.  1.
         21   -1    0    0  501  503 -0.00000000000E+00 -0.00000000000E+00 -0.10073936531E+03  0.10073936531E+03  0.00000000000E+00 0.  1.
          6    2    1    2  501    0 -0.20643673910E+02 -0.24498139097E+02  0.66501111009E+01  0.17685020783E+03  0.17379715746E+03 0.  0.
         24    2    3    3    0    0 -0.37773917122E+02  0.47354187723E+02  0.16074341357E+02  0.10223715121E+03  0.80776003420E+02 0.  0.
         -6    2    1    2    0  502  0.20643673910E+02  0.24498139097E+02  0.47783363956E+03  0.50911227346E+03  0.17275415999E+03 0.  0.
        -24    2    5    5    0    0 -0.29919613385E+02  0.39149289271E+02  0.42028430164E+03  0.43097573578E+03  0.81690516685E+02 0.  0.
          5    1    3    3  501    0  0.17130243211E+02 -0.71852326820E+02 -0.94242302560E+01  0.74613056618E+02  0.47000000000E+01 0. -1.
        -13    1    4    4    0    0  0.21978141398E+02  0.30651591733E+02  0.13769696479E+02  0.40151753589E+02  0.00000000000E+00 0.  1.
         14    1    4    4    0    0 -0.59752058520E+02  0.16702595989E+02  0.23046448775E+01  0.62085397624E+02  0.00000000000E+00 0. -1.
         -5    1    5    5    0  502  0.50563287295E+02 -0.14651150174E+02  0.57549337927E+02  0.78136537672E+02  0.47000000000E+01 0.  1.
         11    1    6    6    0    0  0.15552098316E+02  0.46745174690E+02  0.22285563812E+03  0.22823587483E+03  0.00000000000E+00 0. -1.
        -12    1    6    6    0    0 -0.45471711701E+02 -0.75958854184E+01  0.19742866352E+03  0.20273986095E+03  0.00000000000E+00 0.  1.
<mgrwt>
<rscale>  2 0.17646817E+03</rscale>
<asrwt>0</asrwt>
<pdfrwt beam="1">  1       21 0.90034323E-01 0.17672513E+03</pdfrwt>
<pdfrwt beam="2">  1       21 0.15498364E-01 0.17672513E+03</pdfrwt>
<totfact> 0.39120956E+04</totfact>
</mgrwt>
</event>
<event>
12    1  0.1013215E-001  0.1761292E+03  0.7546771E-02  0.1173531E+00
         21   -1    0    0  503  502  0.00000000000E+00  0.00000000000E+00  0.53222062438E+03  0.53222062438E+03  0.00000000000E+00 0.  1.
         21   -1    0    0  501  503 -0.00000000000E+00 -0.00000000000E+00 -0.11914740939E+03  0.11914740939E+03  0.00000000000E+00 0.  1.
          6    2    1    2  501    0 -0.27860387726E+02 -0.49939640527E+01 -0.28769740083E+02  0.17846346784E+03  0.17384007170E+03 0.  0.
         24    2    3    3    0    0 -0.37526075469E+02 -0.38387955569E+02  0.36847542890E+02  0.10405713738E+03  0.81168374070E+02 0.  0.
         -6    2    1    2    0  502  0.27860387726E+02  0.49939640527E+01  0.44184295507E+03  0.47290456592E+03  0.16616976453E+03 0.  0.
        -24    2    5    5    0    0  0.89312171656E+01 -0.55521659667E+02  0.16502450518E+03  0.18887816149E+03  0.72659832422E+02 0.  0.
          5    1    3    3  501    0  0.96656877430E+01  0.33393991516E+02 -0.65617282973E+02  0.74406330468E+02  0.47000000000E+01 0. -1.
        -13    1    4    4    0    0 -0.51965963464E+02 -0.19234146970E+02 -0.51937103441E+01  0.55654185787E+02  0.00000000000E+00 0.  1.
         14    1    4    4    0    0  0.14439887995E+02 -0.19153808599E+02  0.42041253234E+02  0.48402951590E+02  0.00000000000E+00 0. -1.
         -5    1    5    5    0  502  0.18929170561E+02  0.60515623720E+02  0.27681844989E+03  0.28402640443E+03  0.47000000000E+01 0.  1.
         13    1    6    6    0    0 -0.11252209514E+02  0.11246781611E+02  0.97580248101E+01  0.18663369571E+02  0.00000000000E+00 0. -1.
        -14    1    6    6    0    0  0.20183426680E+02 -0.66768441278E+02  0.15526648037E+03  0.17021479192E+03  0.00000000000E+00 0.  1.
<mgrwt>
<rscale>  2 0.17420646E+03</rscale>
<asrwt>0</asrwt>
<pdfrwt beam="1">  1       21 0.81880095E-01 0.17612925E+03</pdfrwt>
<pdfrwt beam="2">  1       21 0.18330371E-01 0.17612925E+03</pdfrwt>
<totfact> 0.35736039E+04</totfact>
</mgrwt>
</event>
<event>
12    1  0.1013215E-001  0.1848327E+03  0.7546771E-02  0.1163668E+00
         21   -1    0    0  501  502  0.00000000000E+00  0.00000000000E+00  0.21965721878E+02  0.21965721878E+02  0.00000000000E+00 0. -1.
         21   -1    0    0  502  503 -0.00000000000E+00 -0.00000000000E+00 -0.18043347492E+04  0.18043347492E+04  0.00000000000E+00 0. -1.
         -6    2    1    2    0  503  0.93307218788E+01 -0.62543725371E+02 -0.12374118022E+04  0.12508515042E+04  0.17158886188E+03 0.  0.
        -24    2    3    3    0    0 -0.20358786083E+02  0.19657758503E+02 -0.34953462225E+03  0.35867073361E+03  0.75294988923E+02 0.  0.
          6    2    1    2  501    0 -0.93307218788E+01  0.62543725371E+02 -0.54495722515E+03  0.57544896685E+03  0.17367888833E+03 0.  0.
         24    2    5    5    0    0  0.27468626476E+02 -0.18648561844E+02 -0.34092168273E+03  0.35274070002E+03  0.84238431835E+02 0.  0.
          5    1    5    5  501    0 -0.36799348355E+02  0.81192287214E+02 -0.20403554242E+03  0.22270826682E+03  0.47000000000E+01 0. -1.
        -13    1    6    6    0    0  0.13056739110E+02 -0.83669245062E+01 -0.49147614616E+01  0.16267720864E+02  0.00000000000E+00 0.  1.
         14    1    6    6    0    0  0.14411887366E+02 -0.10281637337E+02 -0.33600692127E+03  0.33647297916E+03  0.00000000000E+00 0. -1.
         -5    1    3    3    0  503  0.29689507962E+02 -0.82201483874E+02 -0.88787717994E+03  0.89218077064E+03  0.47000000000E+01 0.  1.
         11    1    4    4    0    0  0.13653942459E+02  0.11368282859E+02 -0.28238376745E+03  0.28294214978E+03  0.00000000000E+00 0. -1.
        -12    1    4    4    0    0 -0.34012728542E+02  0.82894756444E+01 -0.67150854796E+02  0.75728583831E+02  0.00000000000E+00 0.  1.
<mgrwt>
<rscale>  2 0.18434013E+03</rscale>
<asrwt>0</asrwt>
<pdfrwt beam="1">  1       21 0.33793397E-02 0.18483272E+03</pdfrwt>
<pdfrwt beam="2">  1       21 0.27759013E+00 0.18483272E+03</pdfrwt>
<totfact> 0.24036650E+04</totfact>
</mgrwt>
</event>
<event>
12    1  0.1013215E-001  0.1892654E+03  0.7546771E-02  0.1160582E+00
         21   -1    0    0  501  502  0.00000000000E+00  0.00000000000E+00  0.85009801982E+03  0.85009801982E+03  0.00000000000E+00 0. -1.
         21   -1    0    0  502  503 -0.00000000000E+00 -0.00000000000E+00 -0.73133492394E+02  0.73133492394E+02  0.00000000000E+00 0. -1.
         -6    2    1    2    0  503  0.51375739600E+02 -0.14671581881E+02  0.77637626226E+02  0.19874583031E+03  0.17497880479E+03 0.  0.
        -24    2    3    3    0    0  0.88032036457E+02 -0.36088855264E+02  0.67575268913E+01  0.11599039435E+03  0.66000473448E+02 0.  0.
          6    2    1    2  501    0 -0.51375739600E+02  0.14671581881E+02  0.69932690120E+03  0.72448568191E+03  0.18156725093E+03 0.  0.
         24    2    5    5    0    0 -0.78078947503E+02  0.52292042859E+02  0.62289900610E+03  0.63508952122E+03  0.80652020252E+02 0.  0.
          5    1    5    5  501    0  0.26703207903E+02 -0.37620460978E+02  0.76427895100E+02  0.89396160689E+02  0.47000000000E+01 0. -1.
        -11    1    6    6    0    0 -0.94142763463E+02  0.38460155635E+02  0.48264426335E+03  0.49324185592E+03  0.00000000000E+00 0.  1.
         12    1    6    6    0    0  0.16063815960E+02  0.13831887224E+02  0.14025474275E+03  0.14184766530E+03  0.00000000000E+00 0. -1.
         -5    1    3    3    0  503 -0.36656296857E+02  0.21417273383E+02  0.70880099335E+02  0.82755435956E+02  0.47000000000E+01 0.  1.
         13    1    4    4    0    0  0.62792919697E+02 -0.40931496288E+02 -0.21318463469E+02  0.77928268536E+02  0.00000000000E+00 0. -1.
        -14    1    4    4    0    0  0.25239116760E+02  0.48426410240E+01  0.28075990360E+02  0.38062125816E+02  0.00000000000E+00 0.  1.
<mgrwt>
<rscale>  2 0.18766752E+03</rscale>
<asrwt>0</asrwt>
<pdfrwt beam="1">  1       21 0.13078430E+00 0.18926539E+03</pdfrwt>
<pdfrwt beam="2">  1       21 0.11251307E-01 0.18926539E+03</pdfrwt>
<totfact> 0.28085071E+04</totfact>
</mgrwt>
</event>
<event>
12    1  0.1013215E-001  0.1905630E+03  0.7546771E-02  0.1158265E+00
         21   -1    0    0  501  502  0.00000000000E+00  0.00000000000E+00  0.13808660054E+03  0.13808660054E+03  0.00000000000E+00 0. -1.
         21   -1    0    0  502  503 -0.00000000000E+00 -0.00000000000E+00 -0.36318851448E+03  0.36318851448E+03  0.00000000000E+00 0.  1.
         -6    2    1    2    0  503  0.74596023648E+02  0.27510096654E+02 -0.24573452037E+03  0.31096575634E+03  0.17318451129E+03 0.  0.
        -24    2    3    3    0    0  0.53888981662E+02 -0.39368447786E+02 -0.92106641927E+02  0.14207189520E+03  0.85128684312E+02 0.  0.
          6    2    1    2  501    0 -0.74596023648E+02 -0.27510096654E+02  0.20632606438E+02  0.19030935869E+03  0.17166996066E+03 0.  0.
         24    2    5    5    0    0 -0.96245122786E+02 -0.67357753654E+02  0.11240484423E+02  0.14376023176E+03  0.82100335608E+02 0.  0.
          5    1    5    5  501    0  0.21649099138E+02  0.39847657000E+02  0.93921220158E+01  0.46549126929E+02  0.47000000000E+01 0. -1.
        -11    1    6    6    0    0 -0.41523969345E+02  0.15115199828E+02  0.65616994965E+01  0.44673987915E+02  0.00000000000E+00 0.  1.
         12    1    6    6    0    0 -0.54721153441E+02 -0.82472953482E+02  0.46787849261E+01  0.99086243841E+02  0.00000000000E+00 0. -1.
         -5    1    3    3    0  503  0.20707041986E+02  0.66878544440E+02 -0.15362787845E+03  0.16889386114E+03  0.47000000000E+01 0.  1.
         11    1    4    4    0    0 -0.10660460319E+02  0.16964054522E+02 -0.67683607899E+01  0.21147937673E+02  0.00000000000E+00 0. -1.
        -12    1    4    4    0    0  0.64549441980E+02 -0.56332502308E+02 -0.85338281137E+02  0.12092395753E+03  0.00000000000E+00 0.  1.
<mgrwt>
<rscale>  2 0.19021820E+03</rscale>
<asrwt>0</asrwt>
<pdfrwt beam="1">  1       21 0.21244092E-01 0.19056297E+03</pdfrwt>
<pdfrwt beam="2">  1       21 0.55875156E-01 0.19056297E+03</pdfrwt>
<totfact> 0.62249082E+04</totfact>
</mgrwt>
</event>
<event>
12    1  0.1013215E-001  0.1846523E+03  0.7546771E-02  0.1164711E+00
         21   -1    0    0  501  502  0.00000000000E+00  0.00000000000E+00  0.25699794850E+03  0.25699794850E+03  0.00000000000E+00 0. -1.
         21   -1    0    0  502  503 -0.00000000000E+00 -0.00000000000E+00 -0.14771922823E+03  0.14771922823E+03  0.00000000000E+00 0. -1.
         -6    2    1    2    0  503 -0.62609626673E+01  0.49348716099E+02  0.12804010513E+03  0.22470146393E+03  0.17782571225E+03 0.  0.
        -24    2    3    3    0    0  0.31657851030E+01  0.55762042975E+02  0.16125158352E+03  0.18927426207E+03  0.81873350137E+02 0.  0.
          6    2    1    2  501    0  0.62609626673E+01 -0.49348716099E+02 -0.18761384860E+02  0.18001571280E+03  0.17198596413E+03 0.  0.
         24    2    5    5    0    0  0.10956312939E+02  0.39165140545E+02 -0.12736761033E+02  0.91048667073E+02  0.80459217415E+02 0.  0.
          5    1    5    5  501    0 -0.46953502720E+01 -0.88513856645E+02 -0.60246238265E+01  0.88967045722E+02  0.47000000000E+01 0. -1.
        -11    1    6    6    0    0  0.45313356846E+02  0.13654371934E+02 -0.79533117338E+01  0.47989554584E+02  0.00000000000E+00 0.  1.
         12    1    6    6    0    0 -0.34357043907E+02  0.25510768611E+02 -0.47834492997E+01  0.43059112489E+02  0.00000000000E+00 0. -1.
         -5    1    3    3    0  503 -0.94267477703E+01 -0.64133268757E+01 -0.33211478389E+02  0.35427201864E+02  0.47000000000E+01 0.  1.
         13    1    4    4    0    0  0.40385600272E+02  0.43986499609E+02  0.89538393137E+02  0.10762403404E+03  0.00000000000E+00 0. -1.
        -14    1    4    4    0    0 -0.37219815169E+02  0.11775543366E+02  0.71713190382E+02  0.81650228031E+02  0.00000000000E+00 0.  1.
<mgrwt>
<rscale>  2 0.18323178E+03</rscale>
<asrwt>0</asrwt>
<pdfrwt beam="1">  1       21 0.39538146E-01 0.18465232E+03</pdfrwt>
<pdfrwt beam="2">  1       21 0.22726035E-01 0.18465232E+03</pdfrwt>
<totfact> 0.11227643E+05</totfact>
</mgrwt>
</event>
<event>
12    1  0.1013215E-001  0.2220938E+03  0.7546771E-02  0.1132404E+00
         21   -1    0    0  503  502  0.00000000000E+00  0.00000000000E+00  0.34023346847E+03  0.34023346847E+03  0.00000000000E+00 0.  1.
         21   -1    0    0  501  503 -0.00000000000E+00 -0.00000000000E+00 -0.17386655221E+03  0.17386655221E+03  0.00000000000E+00 0.  1.
          6    2    1    2  501    0 -0.26770523581E+02  0.13595134465E+03  0.18836698206E+03  0.29091924680E+03  0.17306778783E+03 0.  0.
         24    2    3    3    0    0 -0.14848471447E+02  0.14076427301E+03  0.20982445669E+03  0.26546707942E+03  0.80071280560E+02 0.  0.
         -6    2    1    2    0  502  0.26770523581E+02 -0.13595134465E+03 -0.22000065799E+02  0.22318077389E+03  0.17356908104E+03 0.  0.
        -24    2    5    5    0    0 -0.51071077170E+02 -0.60751796813E+02 -0.15325523306E+02  0.11464079821E+03  0.81293328207E+02 0.  0.
          5    1    3    3  501    0 -0.11922052134E+02 -0.48129283661E+01 -0.21457474631E+02  0.25452167375E+02  0.47000000000E+01 0. -1.
        -13    1    4    4    0    0  0.18299379125E+02  0.99493933800E+02  0.93886652159E+02  0.13801671490E+03  0.00000000000E+00 0.  1.
         14    1    4    4    0    0 -0.33147850572E+02  0.41270339213E+02  0.11593780453E+03  0.12745036452E+03  0.00000000000E+00 0. -1.
         -5    1    5    5    0  502  0.77841600751E+02 -0.75199547834E+02 -0.66745424925E+01  0.10853997567E+03  0.47000000000E+01 0.  1.
         11    1    6    6    0    0  0.50742622732E+01 -0.41716226011E+02  0.19018373318E+02  0.46126892090E+02  0.00000000000E+00 0. -1.
        -12    1    6    6    0    0 -0.56145339443E+02 -0.19035570802E+02 -0.34343896624E+02  0.68513906123E+02  0.00000000000E+00 0.  1.
<mgrwt>
<rscale>  2 0.22199585E+03</rscale>
<asrwt>0</asrwt>
<pdfrwt beam="1">  1       21 0.52343611E-01 0.22209380E+03</pdfrwt>
<pdfrwt beam="2">  1       21 0.26748700E-01 0.22209380E+03</pdfrwt>
<totfact> 0.45417758E+04</totfact>
</mgrwt>
</event>
<event>
12    1  0.1013215E-001  0.2471343E+03  0.7546771E-02  0.1115145E+00
         21   -1    0    0  501  502  0.00000000000E+00  0.00000000000E+00  0.32276581490E+03  0.32276581490E+03  0.00000000000E+00 0.  1.
         21   -1    0    0  502  503 -0.00000000000E+00 -0.00000000000E+00 -0.39021007647E+03  0.39021007647E+03  0.00000000000E+00 0. -1.
         -6    2    1    2    0  503 -0.11548780973E+03 -0.13205712986E+03 -0.28961845524E+03  0.38072851255E+03  0.17406559371E+03 0.  0.
        -24    2    3    3    0    0 -0.46761639209E+02 -0.25950827433E+02 -0.20920705217E+03  0.23082882052E+03  0.81573631507E+02 0.  0.
          6    2    1    2  501    0  0.11548780973E+03  0.13205712986E+03  0.22217419367E+03  0.33224737882E+03  0.17392650361E+03 0.  0.
         24    2    5    5    0    0  0.13518148578E+03  0.98068191622E+02  0.22598545298E+03  0.29250188226E+03  0.81218974776E+02 0.  0.
          5    1    5    5  501    0 -0.19693676052E+02  0.33988938237E+02 -0.38112593103E+01  0.39745496555E+02  0.47000000000E+01 0. -1.
        -11    1    6    6    0    0  0.64666017487E+02  0.26754943424E+02  0.38488019232E+02  0.79867693341E+02  0.00000000000E+00 0.  1.
         12    1    6    6    0    0  0.70515468295E+02  0.71313248197E+02  0.18749743374E+03  0.21263418892E+03  0.00000000000E+00 0. -1.
         -5    1    3    3    0  503 -0.68726170521E+02 -0.10610630243E+03 -0.80411403065E+02  0.14989969203E+03  0.47000000000E+01 0.  1.
         11    1    4    4    0    0 -0.40761851060E+01 -0.38669459615E+02 -0.15912204485E+03  0.16380405230E+03  0.00000000000E+00 0. -1.
        -12    1    4    4    0    0 -0.42685454103E+02  0.12718632182E+02 -0.50085007324E+02  0.67024768222E+02  0.00000000000E+00 0.  1.
<mgrwt>
<rscale>  2 0.24710979E+03</rscale>
<asrwt>0</asrwt>
<pdfrwt beam="1">  1       21 0.49656280E-01 0.24713428E+03</pdfrwt>
<pdfrwt beam="2">  1       21 0.60032319E-01 0.24713428E+03</pdfrwt>
<totfact> 0.96670392E+03</totfact>
</mgrwt>
</event>
<event>
12    1  0.1013215E-001  0.1800602E+03  0.7546771E-02  0.1169996E+00
         21   -1    0    0  501  502  0.00000000000E+00  0.00000000000E+00  0.15142619894E+03  0.15142619894E+03  0.00000000000E+00 0.  1.
         21   -1    0    0  502  503 -0.00000000000E+00 -0.00000000000E+00 -0.30511532120E+03  0.30511532120E+03  0.00000000000E+00 0.  1.
         -6    2    1    2    0  503 -0.12398449887E+02  0.42293423636E+01 -0.20988712906E+03  0.27653985563E+03  0.17958306131E+03 0.  0.
        -24    2    3    3    0    0 -0.50601648998E+02  0.79695252956E+00 -0.21682106453E+03  0.23727874022E+03  0.82028437273E+02 0.  0.
          6    2    1    2  501    0  0.12398449887E+02 -0.42293423636E+01  0.56198006799E+02  0.18000166450E+03  0.17050153770E+03 0.  0.
         24    2    5    5    0    0  0.63002855457E+02 -0.33397849911E+02  0.51035302479E+02  0.12117691451E+03  0.83632926151E+02 0.  0.
          5    1    5    5  501    0 -0.50604405570E+02  0.29168507547E+02  0.51627043196E+01  0.58824749991E+02  0.47000000000E+01 0. -1.
        -11    1    6    6    0    0  0.40835086616E+02 -0.60013094162E+02  0.21635199206E+02  0.75744026923E+02  0.00000000000E+00 0.  1.
         12    1    6    6    0    0  0.22167768841E+02  0.26615244252E+02  0.29400103274E+02  0.45432887587E+02  0.00000000000E+00 0. -1.
         -5    1    3    3    0  503  0.38203199111E+02  0.34323898340E+01  0.69339354694E+01  0.39261115412E+02  0.47000000000E+01 0.  1.
         11    1    4    4    0    0 -0.15805716021E+02  0.77066269955E+01 -0.99003415721E-02  0.17584449283E+02  0.00000000000E+00 0. -1.
        -12    1    4    4    0    0 -0.34795932977E+02 -0.69096744660E+01 -0.21681116419E+03  0.21969429094E+03  0.00000000000E+00 0.  1.
<mgrwt>
<rscale>  2 0.17775218E+03</rscale>
<asrwt>0</asrwt>
<pdfrwt beam="1">  1       21 0.23296339E-01 0.18006023E+03</pdfrwt>
<pdfrwt beam="2">  1       21 0.46940818E-01 0.18006023E+03</pdfrwt>
<totfact> 0.75645072E+04</totfact>
</mgrwt>
</event>
<event>
12    1  0.1013215E-001  0.1777986E+03  0.7546771E-02  0.1170443E+00
         21   -1    0    0  503  502  0.00000000000E+00  0.00000000000E+00  0.15082380473E+03  0.15082380473E+03  0.00000000000E+00 0. -1.
         21   -1    0    0  501  503 -0.00000000000E+00 -0.00000000000E+00 -0.20828318197E+03  0.20828318197E+03  0.00000000000E+00 0. -1.
          6    2    1    2  501    0 -0.20080628880E+02 -0.40086277708E+02 -0.41159694437E+02  0.18056278844E+03  0.16999605527E+03 0.  0.
         24    2    3    3    0    0 -0.76900207162E+02 -0.21683959801E+02 -0.12901336402E+02  0.11432281124E+03  0.80742954589E+02 0.  0.
         -6    2    1    2    0  502  0.20080628880E+02  0.40086277708E+02 -0.16299682802E+02  0.17854419826E+03  0.17205292719E+03 0.  0.
        -24    2    5    5    0    0  0.18670123341E+02  0.89876361019E+02 -0.27653283016E+02  0.12724082449E+03  0.83661159326E+02 0.  0.
          5    1    3    3  501    0  0.56819578281E+02 -0.18402317907E+02 -0.28258358035E+02  0.66239977198E+02  0.47000000000E+01 0. -1.
        -11    1    4    4    0    0 -0.90694948433E+02 -0.52296248935E+01 -0.17108861430E+02  0.92442608073E+02  0.00000000000E+00 0.  1.
         12    1    4    4    0    0  0.13794741271E+02 -0.16454334908E+02  0.42075250282E+01  0.21880203172E+02  0.00000000000E+00 0. -1.
         -5    1    5    5    0  502  0.14105055398E+01 -0.49790083311E+02  0.11353600214E+02  0.51303373766E+02  0.47000000000E+01 0.  1.
         13    1    6    6    0    0  0.40388871209E+02  0.27565840942E+02  0.11874541812E+02  0.50320386004E+02  0.00000000000E+00 0. -1.
        -14    1    6    6    0    0 -0.21718747868E+02  0.62310520077E+02 -0.39527824829E+02  0.76920438487E+02  0.00000000000E+00 0.  1.
<mgrwt>
<rscale>  2 0.17729911E+03</rscale>
<asrwt>0</asrwt>
<pdfrwt beam="1">  1       21 0.23203662E-01 0.17779863E+03</pdfrwt>
<pdfrwt beam="2">  1       21 0.32043566E-01 0.17779863E+03</pdfrwt>
<totfact> 0.16425482E+05</totfact>
</mgrwt>
</event>
<event>
12    1  0.1013215E-001  0.3063075E+03  0.7546771E-02  0.1082514E+00
         21   -1    0    0  501  502  0.00000000000E+00  0.00000000000E+00  0.13149133128E+03  0.13149133128E+03  0.00000000000E+00 0. -1.
         21   -1    0    0  502  503 -0.00000000000E+00 -0.00000000000E+00 -0.71112282513E+03  0.71112282513E+03  0.00000000000E+00 0.  1.
         -6    2    1    2    0  503  0.24955215435E+03  0.40384826078E+02 -0.25340883572E+03  0.39512612949E+03  0.16733621325E+03 0.  0.
        -24    2    3    3    0    0  0.22982230528E+03  0.14761302774E+02 -0.26483194331E+03  0.36050808104E+03  0.82425300945E+02 0.  0.
          6    2    1    2  501    0 -0.24955215435E+03 -0.40384826078E+02 -0.32622265814E+03  0.44748802692E+03  0.17296560247E+03 0.  0.
         24    2    5    5    0    0 -0.58851216635E+02  0.27994117693E+02 -0.12250240396E+03  0.16014405263E+03  0.79950874253E+02 0.  0.
          5    1    5    5  501    0 -0.19070093772E+03 -0.68378943771E+02 -0.20372025418E+03  0.28734397429E+03  0.47000000000E+01 0. -1.
        -13    1    6    6    0    0 -0.65236848431E+02  0.92529282151E+01 -0.12386324773E+03  0.14029813688E+03  0.00000000000E+00 0.  1.
         14    1    6    6    0    0  0.63856317962E+01  0.18741189477E+02  0.13608437689E+01  0.19845915757E+02  0.00000000000E+00 0. -1.
         -5    1    3    3    0  503  0.19729849076E+02  0.25623523304E+02  0.11423107596E+02  0.34618048447E+02  0.47000000000E+01 0.  1.
         13    1    4    4    0    0  0.16100290690E+03 -0.90068414019E+01 -0.12943418192E+03  0.20677588513E+03  0.00000000000E+00 0. -1.
        -14    1    4    4    0    0  0.68819398381E+02  0.23768144176E+02 -0.13539776139E+03  0.15373219591E+03  0.00000000000E+00 0.  1.
<mgrwt>
<rscale>  2 0.30551870E+03</rscale>
<asrwt>0</asrwt>
<pdfrwt beam="1">  1       21 0.20229435E-01 0.30630754E+03</pdfrwt>
<pdfrwt beam="2">  1       21 0.10940351E+00 0.30630754E+03</pdfrwt>
<totfact> 0.14058235E+04</totfact>
</mgrwt>
</event>
<event>
12    1  0.1013215E-001  0.1793152E+03  0.7546771E-02  0.1169141E+00
         21   -1    0    0  501  502  0.00000000000E+00  0.00000000000E+00  0.21760718661E+02  0.21760718661E+02  0.00000000000E+00 0. -1.
         21   -1    0    0  502  503 -0.00000000000E+00 -0.00000000000E+00 -0.15265497473E+04  0.15265497473E+04  0.00000000000E+00 0. -1.
         -6    2    1    2    0  503 -0.22569819854E+02  0.30039508143E+02 -0.92543764966E+03  0.94264986670E+03  0.17533442036E+03 0.  0.
        -24    2    3    3    0    0  0.54511227264E+02  0.24276020035E+02 -0.47540915205E+03  0.48600728843E+03  0.81415130750E+02 0.  0.
          6    2    1    2  501    0  0.22569819854E+02 -0.30039508143E+02 -0.57935137895E+03  0.60566059923E+03  0.17252528033E+03 0.  0.
         24    2    5    5    0    0  0.55665118676E+02  0.34519929573E+02 -0.34421805104E+03  0.35954478971E+03  0.80598747958E+02 0.  0.
          5    1    5    5  501    0 -0.33095298822E+02 -0.64559437716E+02 -0.23513332791E+03  0.24611580952E+03  0.47000000000E+01 0. -1.
        -11    1    6    6    0    0  0.43911204141E+02  0.19834726202E+02 -0.71744184651E+02  0.86422440627E+02  0.00000000000E+00 0.  1.
         12    1    6    6    0    0  0.11753914535E+02  0.14685203371E+02 -0.27247386639E+03  0.27312234908E+03  0.00000000000E+00 0. -1.
         -5    1    3    3    0  503 -0.77081047118E+02  0.57634881078E+01 -0.45002849762E+03  0.45664257827E+03  0.47000000000E+01 0.  1.
         13    1    4    4    0    0  0.33472513080E+02  0.83899570169E+01 -0.56054625411E+02  0.65824930996E+02  0.00000000000E+00 0. -1.
        -14    1    4    4    0    0  0.21038714184E+02  0.15886063018E+02 -0.41935452663E+03  0.42018235744E+03  0.00000000000E+00 0.  1.
<mgrwt>
<rscale>  2 0.17862474E+03</rscale>
<asrwt>0</asrwt>
<pdfrwt beam="1">  1       21 0.33478030E-02 0.17931516E+03</pdfrwt>
<pdfrwt beam="2">  1       21 0.23485380E+00 0.17931516E+03</pdfrwt>
<totfact> 0.43571520E+04</totfact>
</mgrwt>
</event>
<event>
12    1  0.1013215E-001  0.1900787E+03  0.7546771E-02  0.1158832E+00
         21   -1    0    0  501  502  0.00000000000E+00  0.00000000000E+00  0.16381117671E+03  0.16381117671E+03  0.00000000000E+00 0. -1.
         21   -1    0    0  502  503 -0.00000000000E+00 -0.00000000000E+00 -0.32903239383E+03  0.32903239383E+03  0.00000000000E+00 0. -1.
         -6    2    1    2    0  503 -0.71868463224E+02 -0.74600137474E+01 -0.22584349341E+03  0.29518673368E+03  0.17581011465E+03 0.  0.
        -24    2    3    3    0    0 -0.15363250224E+02 -0.23465595485E+02 -0.30403023109E+02  0.91059113855E+02  0.81121851391E+02 0.  0.
          6    2    1    2  501    0  0.71868463224E+02  0.74600137474E+01  0.60622276285E+02  0.19765683686E+03  0.17370215015E+03 0.  0.
         24    2    5    5    0    0  0.17861391901E+02 -0.52634660382E+02  0.26748316726E+01  0.98117247006E+02  0.80810906699E+02 0.  0.
          5    1    5    5  501    0  0.54007071323E+02  0.60094674130E+02  0.57947444613E+02  0.99539589857E+02  0.47000000000E+01 0. -1.
        -13    1    6    6    0    0 -0.14620129618E+02 -0.11955813982E+02 -0.30870170032E+02  0.36189184515E+02  0.00000000000E+00 0.  1.
         14    1    6    6    0    0  0.32481521518E+02 -0.40678846400E+02  0.33545001705E+02  0.61928062492E+02  0.00000000000E+00 0. -1.
         -5    1    3    3    0  503 -0.56505213000E+02  0.16005581738E+02 -0.19544047030E+03  0.20412761982E+03  0.47000000000E+01 0.  1.
         11    1    4    4    0    0 -0.21241858247E+02  0.78384078009E+01 -0.49140022219E+02  0.54105443000E+02  0.00000000000E+00 0. -1.
        -12    1    4    4    0    0  0.58786080229E+01 -0.31304003286E+02  0.18736999110E+02  0.36953670855E+02  0.00000000000E+00 0.  1.
<mgrwt>
<rscale>  2 0.18958984E+03</rscale>
<asrwt>0</asrwt>
<pdfrwt beam="1">  1       21 0.25201720E-01 0.19007873E+03</pdfrwt>
<pdfrwt beam="2">  1       21 0.50620368E-01 0.19007873E+03</pdfrwt>
<totfact> 0.55458814E+04</totfact>
</mgrwt>
</event>
<event>
12    1  0.1013215E-001  0.1786476E+03  0.7546771E-02  0.1169118E+00
         21   -1    0    0  501  502  0.00000000000E+00  0.00000000000E+00  0.49326533103E+03  0.49326533103E+03  0.00000000000E+00 0.  1.
         21   -1    0    0  502  503 -0.00000000000E+00 -0.00000000000E+00 -0.72992310307E+02  0.72992310307E+02  0.00000000000E+00 0.  1.
         -6    2    1    2    0  503 -0.29889478187E+02  0.11784420462E+02  0.11471467829E+03  0.21230724651E+03  0.17573461819E+03 0.  0.
        -24    2    3    3    0    0  0.12908889052E+02 -0.22120097841E+02  0.13065313967E+03  0.15523412542E+03  0.79821379625E+02 0.  0.
          6    2    1    2  501    0  0.29889478187E+02 -0.11784420462E+02  0.30555834243E+03  0.35395039483E+03  0.17573482267E+03 0.  0.
         24    2    5    5    0    0  0.64541469336E+02 -0.53591776615E+02  0.25346994848E+03  0.27855870893E+03  0.79437143401E+02 0.  0.
          5    1    5    5  501    0 -0.34651991148E+02  0.41807356153E+02  0.52088393950E+02  0.75391685903E+02  0.47000000000E+01 0. -1.
        -11    1    6    6    0    0  0.69342309399E+02 -0.10136852778E+02  0.17862697851E+03  0.19188201872E+03  0.00000000000E+00 0.  1.
         12    1    6    6    0    0 -0.48008400633E+01 -0.43454923837E+02  0.74842969974E+02  0.86676690209E+02  0.00000000000E+00 0. -1.
         -5    1    3    3    0  503 -0.42798367240E+02  0.33904518303E+02 -0.15938461373E+02  0.57073121088E+02  0.47000000000E+01 0.  1.
         13    1    4    4    0    0  0.19879630363E+01  0.29021155499E+02  0.65656614724E+02  0.71812049967E+02  0.00000000000E+00 0. -1.
        -14    1    4    4    0    0  0.10920926016E+02 -0.51141253340E+02  0.64996524944E+02  0.83422075454E+02  0.00000000000E+00 0.  1.
<mgrwt>
<rscale>  2 0.17864760E+03</rscale>
<asrwt>0</asrwt>
<pdfrwt beam="1">  1       21 0.75886972E-01 0.17864765E+03</pdfrwt>
<pdfrwt beam="2">  1       21 0.11229587E-01 0.17864765E+03</pdfrwt>
<totfact> 0.10286483E+05</totfact>
</mgrwt>
</event>
<event>
12    1  0.1013215E-001  0.1821367E+03  0.7546771E-02  0.1167789E+00
         21   -1    0    0  503  502  0.00000000000E+00  0.00000000000E+00  0.48267848441E+03  0.48267848441E+03  0.00000000000E+00 0. -1.
         21   -1    0    0  501  503 -0.00000000000E+00 -0.00000000000E+00 -0.10193377957E+03  0.10193377957E+03  0.00000000000E+00 0. -1.
          6    2    1    2  501    0  0.13781756662E+02 -0.39376272913E+01  0.18799626773E+02  0.18310439051E+03  0.18157188695E+03 0.  0.
         24    2    3    3    0    0 -0.57534534448E+02 -0.34105034543E+02  0.96693311741E+01  0.10499204746E+03  0.80352087902E+02 0.  0.
         -6    2    1    2    0  502 -0.13781756662E+02  0.39376272913E+01  0.36194507807E+03  0.40150787348E+03  0.17320187991E+03 0.  0.
        -24    2    5    5    0    0 -0.66490144742E+02 -0.33008389769E+02  0.22475569679E+03  0.24989587301E+03  0.80139447004E+02 0.  0.
          5    1    3    3  501    0  0.71316291110E+02  0.30167407252E+02  0.91302955987E+01  0.78112343043E+02  0.47000000000E+01 0. -1.
        -13    1    4    4    0    0 -0.39415356355E+02 -0.29184915029E+02  0.43983118950E+02  0.65877494900E+02  0.00000000000E+00 0.  1.
         14    1    4    4    0    0 -0.18119178093E+02 -0.49201195144E+01 -0.34313787776E+02  0.39114552564E+02  0.00000000000E+00 0. -1.
         -5    1    5    5    0  502  0.52708388080E+02  0.36946017060E+02  0.13718938128E+03  0.15161200047E+03  0.47000000000E+01 0.  1.
         11    1    6    6    0    0 -0.44517772901E+01 -0.33332601665E+02  0.14501962217E+03  0.14886763070E+03  0.00000000000E+00 0. -1.
        -12    1    6    6    0    0 -0.62038367452E+02  0.32421189635E+00  0.79736074614E+02  0.10102824231E+03  0.00000000000E+00 0.  1.
<mgrwt>
<rscale>  2 0.18001422E+03</rscale>
<asrwt>0</asrwt>
<pdfrwt beam="1">  1       21 0.74258227E-01 0.18213674E+03</pdfrwt>
<pdfrwt beam="2">  1       21 0.15682120E-01 0.18213674E+03</pdfrwt>
<totfact> 0.59082958E+04</totfact>
</mgrwt>
</event>
<event>
12    1  0.1013215E-001  0.1864654E+03  0.7546771E-02  0.1161820E+00
         21   -1    0    0  501  502  0.00000000000E+00  0.00000000000E+00  0.42624093623E+03  0.42624093623E+03  0.00000000000E+00 0. -1.
         21   -1    0    0  502  503 -0.00000000000E+00 -0.00000000000E+00 -0.10120277635E+03  0.10120277635E+03  0.00000000000E+00 0. -1.
         -6    2    1    2    0  503  0.70309641448E+02 -0.65561778511E+01  0.45434749421E+02  0.19136719788E+03  0.17196121313E+03 0.  0.
        -24    2    3    3    0    0  0.38875209658E+02 -0.55494590173E+02 -0.17328883000E+02  0.10566740058E+03  0.79210970799E+02 0.  0.
          6    2    1    2  501    0 -0.70309641448E+02  0.65561778511E+01  0.27960341046E+03  0.33607651470E+03  0.17257730859E+03 0.  0.
         24    2    5    5    0    0 -0.10806781397E+02  0.83344213084E+01  0.31097472183E+02  0.80496695727E+02  0.72982300211E+02 0.  0.
          5    1    5    5  501    0 -0.59502860050E+02 -0.17782434573E+01  0.24850593828E+03  0.25557981897E+03  0.47000000000E+01 0. -1.
        -11    1    6    6    0    0  0.25951250326E+02  0.17489491818E+02 -0.29904023651E+00  0.31295992437E+02  0.00000000000E+00 0.  1.
         12    1    6    6    0    0 -0.36758031723E+02 -0.91550705101E+01  0.31396512420E+02  0.49200703291E+02  0.00000000000E+00 0. -1.
         -5    1    3    3    0  503  0.31434431789E+02  0.48938412322E+02  0.62763632421E+02  0.85699797299E+02  0.47000000000E+01 0.  1.
         13    1    4    4    0    0  0.36221386741E+02  0.81858732702E+01  0.63526689117E+01  0.37674311951E+02  0.00000000000E+00 0. -1.
        -14    1    4    4    0    0  0.26538229169E+01 -0.63680463443E+02 -0.23681551912E+02  0.67993088629E+02  0.00000000000E+00 0.  1.
<mgrwt>
<rscale>  2 0.18632275E+03</rscale>
<asrwt>0</asrwt>
<pdfrwt beam="1">  1       21 0.65575528E-01 0.18646543E+03</pdfrwt>
<pdfrwt beam="2">  1       21 0.15569658E-01 0.18646543E+03</pdfrwt>
<totfact> 0.78561814E+04</totfact>
</mgrwt>
</event>
<event>
12    1  0.1013215E-001  0.1970142E+03  0.7546771E-02  0.1152501E+00
         21   -1    0    0  501  502  0.00000000000E+00  0.00000000000E+00  0.94319493799E+03  0.94319493799E+03  0.00000000000E+00 0.  1.
         21   -1    0    0  502  503 -0.00000000000E+00 -0.00000000000E+00 -0.70148472694E+02  0.70148472694E+02  0.00000000000E+00 0.  1.
         -6    2    1    2    0  503  0.91770464911E+02  0.76399360453E+01  0.10893076274E+03  0.22423795821E+03  0.17302185983E+03 0.  0.
        -24    2    3    3    0    0  0.60883018440E+02  0.57956422279E+02  0.20483877070E+02  0.11779208125E+03  0.79935576364E+02 0.  0.
          6    2    1    2  501    0 -0.91770464911E+02 -0.76399360453E+01  0.76411570255E+03  0.78910545247E+03  0.17416779661E+03 0.  0.
         24    2    5    5    0    0 -0.12922146978E+03 -0.24661448371E+02  0.57951896339E+03  0.59992206061E+03  0.82206292854E+02 0.  0.
          5    1    5    5  501    0  0.37451004868E+02  0.17021512326E+02  0.18459673916E+03  0.18918339186E+03  0.47000000000E+01 0. -1.
        -11    1    6    6    0    0 -0.71018479022E+02  0.28178165955E+02  0.27426478872E+03  0.28470828532E+03  0.00000000000E+00 0.  1.
         12    1    6    6    0    0 -0.58202990757E+02 -0.52839614326E+02  0.30525417467E+03  0.31521377529E+03  0.00000000000E+00 0. -1.
         -5    1    3    3    0  503  0.30887446471E+02 -0.50316486234E+02  0.88446885672E+02  0.10644587696E+03  0.47000000000E+01 0.  1.
         13    1    4    4    0    0  0.20334194142E+02  0.89314801682E+01  0.44543776113E+02  0.49773474661E+02  0.00000000000E+00 0. -1.
        -14    1    4    4    0    0  0.40548824298E+02  0.49024942111E+02 -0.24059899043E+02  0.68018606593E+02  0.00000000000E+00 0.  1.
<mgrwt>
<rscale>  2 0.19676066E+03</rscale>
<asrwt>0</asrwt>
<pdfrwt beam="1">  1       21 0.14510690E+00 0.19701423E+03</pdfrwt>
<pdfrwt beam="2">  1       21 0.10792073E-01 0.19701423E+03</pdfrwt>
<totfact> 0.23049716E+04</totfact>
</mgrwt>
</event>
<event>
12    1  0.1013215E-001  0.1961559E+03  0.7546771E-02  0.1153284E+00
         21   -1    0    0  503  502  0.00000000000E+00  0.00000000000E+00  0.19677627565E+04  0.19677627565E+04  0.00000000000E+00 0. -1.
         21   -1    0    0  501  503 -0.00000000000E+00 -0.00000000000E+00 -0.20562363534E+02  0.20562363534E+02  0.00000000000E+00 0. -1.
          6    2    1    2  501    0 -0.28946847037E+02  0.84473188924E+02  0.73788794860E+03  0.76320727608E+03  0.17330055388E+03 0.  0.
         24    2    3    3    0    0  0.23488449353E+02 -0.93442961775E+01  0.39339733374E+03  0.40230970814E+03  0.80328176552E+02 0.  0.
         -6    2    1    2    0  502  0.28946847037E+02 -0.84473188924E+02  0.12093124443E+04  0.12251178439E+04  0.17465252323E+03 0.  0.
        -24    2    5    5    0    0  0.49942655188E+02 -0.67794240225E+02  0.11790968867E+04  0.11844474467E+04  0.74538297885E+02 0.  0.
          5    1    3    3  501    0 -0.52435296390E+02  0.93817485102E+02  0.34449061486E+03  0.36089756794E+03  0.47000000000E+01 0. -1.
        -11    1    4    4    0    0 -0.22140032086E+02  0.16395210774E+02  0.20208528454E+03  0.20395451989E+03  0.00000000000E+00 0.  1.
         12    1    4    4    0    0  0.45628481440E+02 -0.25739506952E+02  0.19131204920E+03  0.19835518825E+03  0.00000000000E+00 0. -1.
         -5    1    5    5    0  502 -0.20995808150E+02 -0.16678948700E+02  0.30215557596E+02  0.40670397225E+02  0.47000000000E+01 0.  1.
         11    1    6    6    0    0 -0.12012769742E+02 -0.28011571300E+02  0.17334551358E+03  0.17600460745E+03  0.00000000000E+00 0. -1.
        -12    1    6    6    0    0  0.61955424929E+02 -0.39782668925E+02  0.10057513731E+04  0.10084428392E+04  0.00000000000E+00 0.  1.
<mgrwt>
<rscale>  2 0.19585452E+03</rscale>
<asrwt>0</asrwt>
<pdfrwt beam="1">  1       21 0.30273258E+00 0.19615592E+03</pdfrwt>
<pdfrwt beam="2">  1       21 0.31634421E-02 0.19615592E+03</pdfrwt>
<totfact> 0.19010619E+04</totfact>
</mgrwt>
</event>
<event>
12    1  0.1013215E-001  0.2235027E+03  0.7546771E-02  0.1132087E+00
         21   -1    0    0  503  502  0.00000000000E+00  0.00000000000E+00  0.32213824769E+03  0.32213824769E+03  0.00000000000E+00 0.  1.
         21   -1    0    0  501  503 -0.00000000000E+00 -0.00000000000E+00 -0.19025052605E+03  0.19025052605E+03  0.00000000000E+00 0.  1.
          6    2    1    2  501    0 -0.13809135376E+03 -0.21251828876E+02 -0.49258515956E+02  0.22469553936E+03  0.16894029063E+03 0.  0.
         24    2    3    3    0    0 -0.29482292552E+02  0.14997827420E+02 -0.68399871316E+02  0.10851272116E+03  0.77474691720E+02 0.  0.
         -6    2    1    2    0  502  0.13809135376E+03  0.21251828876E+02  0.18114623760E+03  0.28769323438E+03  0.17444934938E+03 0.  0.
        -24    2    5    5    0    0  0.43046564464E+02  0.76517619075E+01  0.14438261797E+03  0.18477517221E+03  0.10669567808E+03 0.  0.
          5    1    3    3  501    0 -0.10860906121E+03 -0.36249656296E+02  0.19141355359E+02  0.11618281819E+03  0.47000000000E+01 0. -1.
        -11    1    4    4    0    0 -0.15942207894E+02  0.17556852577E+02 -0.84241889492E+02  0.87516244265E+02  0.00000000000E+00 0.  1.
         12    1    4    4    0    0 -0.13540084658E+02 -0.25590251574E+01  0.15842018177E+02  0.20996476900E+02  0.00000000000E+00 0. -1.
         -5    1    5    5    0  502  0.95044789296E+02  0.13600066968E+02  0.36763619635E+02  0.10291806218E+03  0.47000000000E+01 0.  1.
         11    1    6    6    0    0  0.50823945037E+01 -0.12896560427E+02 -0.14542985059E+02  0.20091053212E+02  0.00000000000E+00 0. -1.
        -12    1    6    6    0    0  0.37964169961E+02  0.20548322335E+02  0.15892560303E+03  0.16468411899E+03  0.00000000000E+00 0.  1.
<mgrwt>
<rscale>  2 0.22242669E+03</rscale>
<asrwt>0</asrwt>
<pdfrwt beam="1">  1       21 0.49559730E-01 0.22350266E+03</pdfrwt>
<pdfrwt beam="2">  1       21 0.29269312E-01 0.22350266E+03</pdfrwt>
<totfact> 0.42743377E+04</totfact>
</mgrwt>
</event>
<event>
12    1  0.1013215E-001  0.1836425E+03  0.7546771E-02  0.1164652E+00
         21   -1    0    0  501  502  0.00000000000E+00  0.00000000000E+00  0.76158484822E+03  0.76158484822E+03  0.00000000000E+00 0.  1.
         21   -1    0    0  502  503 -0.00000000000E+00 -0.00000000000E+00 -0.74663143012E+02  0.74663143012E+02  0.00000000000E+00 0.  1.
         -6    2    1    2    0  503 -0.61337690722E+02 -0.88123506805E+01  0.74515565081E+02  0.19689999942E+03  0.17139740518E+03 0.  0.
        -24    2    3    3    0    0 -0.98772545034E+01 -0.34368326912E+02 -0.27059546917E+02  0.80105830924E+02  0.66377579177E+02 0.  0.
          6    2    1    2  501    0  0.61337690722E+02  0.88123506805E+01  0.61240614013E+03  0.63934799182E+03  0.17287164123E+03 0.  0.
         24    2    5    5    0    0  0.33204561879E+02  0.44253472675E+02  0.56615268863E+03  0.57447104798E+03  0.80169853078E+02 0.  0.
          5    1    5    5  501    0  0.28133128842E+02 -0.35441121994E+02  0.46253451497E+02  0.64876943840E+02  0.47000000000E+01 0. -1.
        -11    1    6    6    0    0 -0.57753272844E+01  0.51499534268E+02  0.41427263408E+03  0.41750134345E+03  0.00000000000E+00 0.  1.
         12    1    6    6    0    0  0.38979889164E+02 -0.72460615935E+01  0.15188005455E+03  0.15696970453E+03  0.00000000000E+00 0. -1.
         -5    1    3    3    0  503 -0.51460436218E+02  0.25555976231E+02  0.10157511200E+03  0.11679416849E+03  0.47000000000E+01 0.  1.
         11    1    4    4    0    0 -0.94081675974E+01 -0.29053171669E+02  0.17520561864E+02  0.35207534557E+02  0.00000000000E+00 0. -1.
        -12    1    4    4    0    0 -0.46908690599E+00 -0.53151552431E+01 -0.44580108780E+02  0.44898296367E+02  0.00000000000E+00 0.  1.
<mgrwt>
<rscale>  2 0.18329476E+03</rscale>
<asrwt>0</asrwt>
<pdfrwt beam="1">  1       21 0.11716689E+00 0.18364252E+03</pdfrwt>
<pdfrwt beam="2">  1       21 0.11486638E-01 0.18364252E+03</pdfrwt>
<totfact> 0.35718326E+04</totfact>
</mgrwt>
</event>
<event>
12    1  0.1013215E-001  0.2005249E+03  0.7546771E-02  0.1149616E+00
         21   -1    0    0  503  502  0.00000000000E+00  0.00000000000E+00  0.38519684308E+03  0.38519684308E+03  0.00000000000E+00 0.  1.
         21   -1    0    0  501  503 -0.00000000000E+00 -0.00000000000E+00 -0.14765665671E+03  0.14765665671E+03  0.00000000000E+00 0.  1.
          6    2    1    2  501    0  0.79854051932E+02  0.56573071832E+02 -0.27070751235E+02  0.20084571084E+03  0.17328875302E+03 0.  0.
         24    2    3    3    0    0 -0.76776069266E+01  0.74456372315E+02 -0.64498023707E+01  0.10903657583E+03  0.79023274365E+02 0.  0.
         -6    2    1    2    0  502 -0.79854051932E+02 -0.56573071832E+02  0.26461093761E+03  0.33200778895E+03  0.17502297437E+03 0.  0.
        -24    2    5    5    0    0 -0.39567190453E+02 -0.10428579863E+03  0.19041964042E+03  0.23492033310E+03  0.80540878380E+02 0.  0.
          5    1    3    3  501    0  0.87531658859E+02 -0.17883300483E+02 -0.20620948864E+02  0.91809135007E+02  0.47000000000E+01 0. -1.
        -11    1    4    4    0    0  0.31060058408E+02  0.42308669493E+02  0.14591646327E+02  0.54476296544E+02  0.00000000000E+00 0.  1.
         12    1    4    4    0    0 -0.38737665335E+02  0.32147702822E+02 -0.21041448698E+02  0.54560279284E+02  0.00000000000E+00 0. -1.
         -5    1    5    5    0  502 -0.40286861479E+02  0.47712726795E+02  0.74191297187E+02  0.97087455855E+02  0.47000000000E+01 0.  1.
         13    1    6    6    0    0  0.12332602983E+02 -0.33696783663E+02  0.11103974623E+03  0.11669357981E+03  0.00000000000E+00 0. -1.
        -14    1    6    6    0    0 -0.51899793435E+02 -0.70589014964E+02  0.79379894190E+02  0.11822675329E+03  0.00000000000E+00 0.  1.
<mgrwt>
<rscale>  2 0.20014583E+03</rscale>
<asrwt>0</asrwt>
<pdfrwt beam="1">  1       21 0.59261052E-01 0.20052487E+03</pdfrwt>
<pdfrwt beam="2">  1       21 0.22716409E-01 0.20052487E+03</pdfrwt>
<totfact> 0.48161982E+04</totfact>
</mgrwt>
</event>
<event>
12    1  0.1013215E-001  0.2628526E+03  0.7546771E-02  0.1105591E+00
         21   -1    0    0  501  502  0.00000000000E+00  0.00000000000E+00  0.42914505773E+03  0.42914505773E+03  0.00000000000E+00 0. -1.
         21   -1    0    0  502  503 -0.00000000000E+00 -0.00000000000E+00 -0.16951942736E+03  0.16951942736E+03  0.00000000000E+00 0. -1.
         -6    2    1    2    0  503  0.19543581586E+03  0.23368737350E+02  0.60554709137E+02  0.26973756978E+03  0.17421316754E+03 0.  0.
        -24    2    3    3    0    0  0.84966404191E+02  0.62382770961E+02  0.71199823555E+02  0.15200484623E+03  0.83217536903E+02 0.  0.
          6    2    1    2  501    0 -0.19543581586E+03 -0.23368737350E+02  0.19907092123E+03  0.32892691531E+03  0.17269171354E+03 0.  0.
         24    2    5    5    0    0 -0.17383966843E+03 -0.75111347931E+02  0.15914536927E+03  0.25993538660E+03  0.79857446359E+02 0.  0.
          5    1    5    5  501    0 -0.21596147430E+02  0.51742610581E+02  0.39925551961E+02  0.68991528704E+02  0.47000000000E+01 0. -1.
        -13    1    6    6    0    0 -0.32466295911E+02  0.13156555696E+02  0.10389542816E+02  0.36538991884E+02  0.00000000000E+00 0.  1.
         14    1    6    6    0    0 -0.14137337252E+03 -0.88267903627E+02  0.14875582646E+03  0.22339639472E+03  0.00000000000E+00 0. -1.
         -5    1    3    3    0  503  0.11046941167E+03 -0.39014033611E+02 -0.10645114418E+02  0.11773272355E+03  0.47000000000E+01 0.  1.
         13    1    4    4    0    0  0.47122682260E+02 -0.13190858163E+02  0.34434144794E+02  0.59835242542E+02  0.00000000000E+00 0. -1.
        -14    1    4    4    0    0  0.37843721931E+02  0.75573629124E+02  0.36765678761E+02  0.92169603685E+02  0.00000000000E+00 0.  1.
<mgrwt>
<rscale>  2 0.26260075E+03</rscale>
<asrwt>0</asrwt>
<pdfrwt beam="1">  1       21 0.66022316E-01 0.26285259E+03</pdfrwt>
<pdfrwt beam="2">  1       21 0.26079912E-01 0.26285259E+03</pdfrwt>
<totfact> 0.28420839E+04</totfact>
</mgrwt>
</event>
<event>
12    1  0.1013215E-001  0.3981314E+03  0.7546771E-02  0.1044433E+00
         21   -1    0    0  503  502  0.00000000000E+00  0.00000000000E+00  0.84527618513E+02  0.84527618513E+02  0.00000000000E+00 0. -1.
         21   -1    0    0  501  503 -0.00000000000E+00 -0.00000000000E+00 -0.19458905844E+04  0.19458905844E+04  0.00000000000E+00 0.  1.
          6    2    1    2  501    0  0.35342612795E+03 -0.59983355732E+02 -0.11244310200E+04  0.11928161090E+04  0.17308125339E+03 0.  0.
         24    2    3    3    0    0  0.11374162307E+03 -0.39442039516E+02 -0.57415348311E+03  0.59223466977E+03  0.81220998534E+02 0.  0.
         -6    2    1    2    0  502 -0.35342612795E+03  0.59983355732E+02 -0.73693194591E+03  0.83760209393E+03  0.17320665105E+03 0.  0.
        -24    2    5    5    0    0 -0.22883783213E+03  0.52978395004E+02 -0.34243323685E+03  0.42381152568E+03  0.84748001981E+02 0.  0.
          5    1    3    3  501    0  0.23968450489E+03 -0.20541316215E+02 -0.55027753686E+03  0.60058143922E+03  0.47000000000E+01 0. -1.
        -13    1    4    4    0    0  0.98326643983E+01 -0.32905119718E+02 -0.23392288567E+03  0.23643042239E+03  0.00000000000E+00 0.  1.
         14    1    4    4    0    0  0.10390895867E+03 -0.65369197985E+01 -0.34023059745E+03  0.35580424738E+03  0.00000000000E+00 0. -1.
         -5    1    5    5    0  502 -0.12458829582E+03  0.70049607273E+01 -0.39449870905E+03  0.41379056825E+03  0.47000000000E+01 0.  1.
         13    1    6    6    0    0 -0.58759711319E+02  0.12050997043E+02 -0.33278808676E+02  0.68595986114E+02  0.00000000000E+00 0. -1.
        -14    1    6    6    0    0 -0.17007812082E+03  0.40927397961E+02 -0.30915442818E+03  0.35521553956E+03  0.00000000000E+00 0.  1.
<mgrwt>
<rscale>  2 0.39811772E+03</rscale>
<asrwt>0</asrwt>
<pdfrwt beam="1">  1       21 0.13004249E-01 0.39813135E+03</pdfrwt>
<pdfrwt beam="2">  1       21 0.29936778E+00 0.39813135E+03</pdfrwt>
<totfact> 0.14631987E+03</totfact>
</mgrwt>
</event>
<event>
12    1  0.1013215E-001  0.1828829E+03  0.7546771E-02  0.1165488E+00
         21   -1    0    0  501  502  0.00000000000E+00  0.00000000000E+00  0.38776166954E+03  0.38776166954E+03  0.00000000000E+00 0.  1.
         21   -1    0    0  502  503 -0.00000000000E+00 -0.00000000000E+00 -0.18446159556E+03  0.18446159556E+03  0.00000000000E+00 0.  1.
         -6    2    1    2    0  503  0.42346366138E+02 -0.39120244588E+02 -0.10828788992E+03  0.21092945274E+03  0.17158484393E+03 0.  0.
        -24    2    3    3    0    0  0.74541515064E+01 -0.85661826664E+02 -0.45722049073E+02  0.12537151947E+03  0.78955678708E+02 0.  0.
          6    2    1    2  501    0 -0.42346366138E+02  0.39120244588E+02  0.31158796391E+03  0.36129381236E+03  0.17355849543E+03 0.  0.
         24    2    5    5    0    0  0.46237432361E+01  0.33716142280E+02  0.30034326236E+03  0.31246831893E+03  0.79197334774E+02 0.  0.
          5    1    5    5  501    0 -0.46970109375E+02  0.54041023082E+01  0.11244701547E+02  0.48825493436E+02  0.47000000000E+01 0. -1.
        -11    1    6    6    0    0 -0.32083878478E+02  0.52732214028E+00  0.72040225571E+02  0.78863473339E+02  0.00000000000E+00 0.  1.
         12    1    6    6    0    0  0.36707621714E+02  0.33188820140E+02  0.22830303679E+03  0.23360484559E+03  0.00000000000E+00 0. -1.
         -5    1    3    3    0  503  0.34892214632E+02  0.46541582076E+02 -0.62565840849E+02  0.85557933268E+02  0.47000000000E+01 0.  1.
         13    1    4    4    0    0 -0.14566608090E+02 -0.55315557651E+02 -0.62123328595E+02  0.84447054094E+02  0.00000000000E+00 0. -1.
        -14    1    4    4    0    0  0.22020759597E+02 -0.30346269013E+02  0.16401279521E+02  0.40924465374E+02  0.00000000000E+00 0.  1.
<mgrwt>
<rscale>  2 0.18241312E+03</rscale>
<asrwt>0</asrwt>
<pdfrwt beam="1">  1       21 0.59655641E-01 0.18288291E+03</pdfrwt>
<pdfrwt beam="2">  1       21 0.28378707E-01 0.18288291E+03</pdfrwt>
<totfact> 0.31305010E+04</totfact>
</mgrwt>
</event>
<event>
12    1  0.1013215E-001  0.1815687E+03  0.7546771E-02  0.1166804E+00
         21   -1    0    0  503  502  0.00000000000E+00  0.00000000000E+00  0.14589041292E+03  0.14589041292E+03  0.00000000000E+00 0. -1.
         21   -1    0    0  501  503 -0.00000000000E+00 -0.00000000000E+00 -0.27181718076E+03  0.27181718076E+03  0.00000000000E+00 0. -1.
          6    2    1    2  501    0 -0.19334055987E+02 -0.46527743341E+02  0.25538020222E+02  0.18125724766E+03  0.17223055110E+03 0.  0.
         24    2    3    3    0    0 -0.69348845010E+01 -0.24122166099E+02 -0.50915969212E+02  0.10049183523E+03  0.82922864799E+02 0.  0.
         -6    2    1    2    0  502  0.19334055987E+02  0.46527743341E+02 -0.15146478806E+03  0.23645034601E+03  0.17443780406E+03 0.  0.
        -24    2    5    5    0    0 -0.29465230046E+02  0.14962648593E+02 -0.15974923223E+02  0.88946722337E+02  0.81020001283E+02 0.  0.
          5    1    3    3  501    0 -0.12399171486E+02 -0.22405577242E+02  0.76453989435E+02  0.80765412434E+02  0.47000000000E+01 0. -1.
        -13    1    4    4    0    0 -0.20511710083E+02  0.26898214237E+02 -0.18955512353E+02  0.38775709256E+02  0.00000000000E+00 0.  1.
         14    1    4    4    0    0  0.13576825582E+02 -0.51020380336E+02 -0.31960456859E+02  0.61716125974E+02  0.00000000000E+00 0. -1.
         -5    1    5    5    0  502  0.48799286033E+02  0.31565094748E+02 -0.13548986484E+03  0.14750362368E+03  0.47000000000E+01 0.  1.
         13    1    6    6    0    0 -0.28412966245E+02  0.89180413965E+01 -0.47919084127E+02  0.56418673653E+02  0.00000000000E+00 0. -1.
        -14    1    6    6    0    0 -0.10522638008E+01  0.60446071968E+01  0.31944160905E+02  0.32528048684E+02  0.00000000000E+00 0.  1.
<mgrwt>
<rscale>  2 0.18103646E+03</rscale>
<asrwt>0</asrwt>
<pdfrwt beam="1">  1       21 0.22444679E-01 0.18156868E+03</pdfrwt>
<pdfrwt beam="2">  1       21 0.41818028E-01 0.18156868E+03</pdfrwt>
<totfact> 0.10274229E+05</totfact>
</mgrwt>
</event>
<event>
12    1  0.1013215E-001  0.1855217E+03  0.7546771E-02  0.1165136E+00
         21   -1    0    0  503  502  0.00000000000E+00  0.00000000000E+00  0.27628790277E+03  0.27628790277E+03  0.00000000000E+00 0.  1.
         21   -1    0    0  501  503 -0.00000000000E+00 -0.00000000000E+00 -0.23508071882E+03  0.23508071882E+03  0.00000000000E+00 0.  1.
          6    2    1    2  501    0 -0.28892963500E+01  0.22096043497E+02 -0.15988877705E+03  0.24491368752E+03  0.18417847359E+03 0.  0.
         24    2    3    3    0    0  0.23327440618E+02  0.82909966715E+02 -0.11675504572E+03  0.16574134807E+03  0.80126285907E+02 0.  0.
         -6    2    1    2    0  502  0.28892963500E+01 -0.22096043497E+02  0.20109596100E+03  0.26645493407E+03  0.17338414919E+03 0.  0.
        -24    2    5    5    0    0  0.55191767467E+02 -0.46315193732E+02  0.16684500025E+03  0.19924381866E+03  0.81667721893E+02 0.  0.
          5    1    3    3  501    0 -0.26216736968E+02 -0.60813923219E+02 -0.43133731334E+02  0.79172339445E+02  0.47000000000E+01 0. -1.
        -11    1    4    4    0    0 -0.20852949153E+02  0.67544079745E+02 -0.74599646485E+02  0.10277234770E+03  0.00000000000E+00 0.  1.
         12    1    4    4    0    0  0.44180389770E+02  0.15365886970E+02 -0.42155399232E+02  0.62969000366E+02  0.00000000000E+00 0. -1.
         -5    1    5    5    0  502 -0.52302471117E+02  0.24219150235E+02  0.34250960742E+02  0.67211115411E+02  0.47000000000E+01 0.  1.
         13    1    6    6    0    0 -0.13481790487E+02 -0.90344535000E+01  0.14186792380E+01  0.16290877066E+02  0.00000000000E+00 0. -1.
        -14    1    6    6    0    0  0.68673557954E+02 -0.37280740232E+02  0.16542632102E+03  0.18295294160E+03  0.00000000000E+00 0.  1.
<mgrwt>
<rscale>  2 0.18278383E+03</rscale>
<asrwt>0</asrwt>
<pdfrwt beam="1">  1       21 0.42505832E-01 0.18552168E+03</pdfrwt>
<pdfrwt beam="2">  1       21 0.36166264E-01 0.18552168E+03</pdfrwt>
<totfact> 0.39398699E+04</totfact>
</mgrwt>
</event>
<event>
11    1  0.1013215E-001  0.1924023E+03  0.7546771E-02  0.1157988E+00
         21   -1    0    0  501  502  0.00000000000E+00  0.00000000000E+00  0.31595933252E+03  0.31595933252E+03  0.00000000000E+00 0. -1.
         21   -1    0    0  502  503 -0.00000000000E+00 -0.00000000000E+00 -0.18043840597E+03  0.18043840597E+03  0.00000000000E+00 0.  1.
         -6    2    1    2    0  503 -0.19047807736E+02  0.65442395884E+02 -0.85121291716E+02  0.20364933277E+03  0.17199386697E+03 0.  0.
        -24    2    3    3    0    0 -0.76077912167E+02  0.53373916324E+02 -0.40384067656E+02  0.13001788414E+03  0.81468727815E+02 0.  0.
          6    2    1    2  501    0  0.19047807736E+02 -0.65442395884E+02  0.22064221827E+03  0.29274840572E+03  0.17992530231E+03 0.  0.
          5    1    5    5  501    0  0.22896325960E+01  0.51767105334E+02  0.14007534232E+03  0.14942646064E+03  0.47000000000E+01 0. -1.
        -13    1    5    5    0    0  0.13458165802E+02 -0.10039827827E+03  0.70984971710E+02  0.12369237129E+03  0.00000000000E+00 0.  1.
         14    1    5    5    0    0  0.33000093373E+01 -0.16811222949E+02  0.95819042363E+01  0.19629573797E+02  0.00000000000E+00 0. -1.
         -5    1    3    3    0  503  0.57030104431E+02  0.12068479560E+02 -0.44737224061E+02  0.73631448628E+02  0.47000000000E+01 0.  1.
         13    1    4    4    0    0 -0.40443883556E+02  0.63312843981E+02  0.16599347909E+00  0.75128233601E+02  0.00000000000E+00 0. -1.
        -14    1    4    4    0    0 -0.35634028611E+02 -0.99389276580E+01 -0.40550061135E+02  0.54889650537E+02  0.00000000000E+00 0.  1.
<mgrwt>
<rscale>  2 0.19052608E+03</rscale>
<asrwt>0</asrwt>
<pdfrwt beam="1">  1       21 0.48609128E-01 0.19240229E+03</pdfrwt>
<pdfrwt beam="2">  1       21 0.27759755E-01 0.19240229E+03</pdfrwt>
<totfact> 0.50066976E+04</totfact>
</mgrwt>
</event>
<event>
12    1  0.1013215E-001  0.2498367E+03  0.7546771E-02  0.1113485E+00
         21   -1    0    0  501  502  0.00000000000E+00  0.00000000000E+00  0.10490512207E+03  0.10490512207E+03  0.00000000000E+00 0. -1.
         21   -1    0    0  502  503 -0.00000000000E+00 -0.00000000000E+00 -0.59514728914E+03  0.59514728914E+03  0.00000000000E+00 0. -1.
         -6    2    1    2    0  503  0.20494161775E+02  0.17803393393E+03 -0.26175951543E+03  0.36185138190E+03  0.17407551915E+03 0.  0.
        -24    2    3    3    0    0  0.66010989009E+02  0.16511507555E+03 -0.24525215043E+03  0.31151986531E+03  0.72633121554E+02 0.  0.
          6    2    1    2  501    0 -0.20494161775E+02 -0.17803393393E+03 -0.22848265164E+03  0.33820102932E+03  0.17337682035E+03 0.  0.
         24    2    5    5    0    0  0.11484945388E+02 -0.17071063859E+03 -0.23781042965E+03  0.30377151593E+03  0.80307579594E+02 0.  0.
          5    1    5    5  501    0 -0.31979107163E+02 -0.73232953397E+01  0.93277780129E+01  0.34429513389E+02  0.47000000000E+01 0. -1.
        -13    1    6    6    0    0  0.50357624202E+01  0.81256242322E+01 -0.77487213622E+01  0.12305582272E+02  0.00000000000E+00 0.  1.
         14    1    6    6    0    0  0.64491829677E+01 -0.17883626282E+03 -0.23006170829E+03  0.29146593365E+03  0.00000000000E+00 0. -1.
         -5    1    3    3    0  503 -0.45516827234E+02  0.12918858379E+02 -0.16507365005E+02  0.50331516594E+02  0.47000000000E+01 0.  1.
         13    1    4    4    0    0  0.98616518384E+01  0.11183401986E+03 -0.12041632219E+03  0.16463350456E+03  0.00000000000E+00 0. -1.
        -14    1    4    4    0    0  0.56149337171E+02  0.53281055690E+02 -0.12483582824E+03  0.14688636074E+03  0.00000000000E+00 0.  1.
<mgrwt>
<rscale>  2 0.24971504E+03</rscale>
<asrwt>0</asrwt>
<pdfrwt beam="1">  1       21 0.16139249E-01 0.24983670E+03</pdfrwt>
<pdfrwt beam="2">  1       21 0.91561123E-01 0.24983670E+03</pdfrwt>
<totfact> 0.33662440E+04</totfact>
</mgrwt>
</event>
<event>
12    1  0.1013215E-001  0.1856022E+03  0.7546771E-02  0.1162602E+00
         21   -1    0    0  501  502  0.00000000000E+00  0.00000000000E+00  0.46666730119E+03  0.46666730119E+03  0.00000000000E+00 0.  1.
         21   -1    0    0  502  503 -0.00000000000E+00 -0.00000000000E+00 -0.11549341389E+03  0.11549341389E+03  0.00000000000E+00 0.  1.
         -6    2    1    2    0  503 -0.24715558311E+02 -0.57059116689E+02  0.47413161228E+00  0.18560276536E+03  0.17487584192E+03 0.  0.
        -24    2    3    3    0    0 -0.51031147198E+02 -0.39304865984E+02  0.60232720826E+02  0.11777281164E+03  0.78060258960E+02 0.  0.
          6    2    1    2  501    0  0.24715558311E+02  0.57059116689E+02  0.35069975568E+03  0.39655794972E+03  0.17435964908E+03 0.  0.
         24    2    5    5    0    0 -0.20126433272E+02  0.44960047701E+01  0.29872962473E+03  0.30997464039E+03  0.80122416439E+02 0.  0.
          5    1    5    5  501    0  0.44841991583E+02  0.52563111919E+02  0.51970130954E+02  0.86583309333E+02  0.47000000000E+01 0. -1.
        -11    1    6    6    0    0 -0.53229962853E+00  0.28112353807E+02  0.37097297055E+02  0.46548869248E+02  0.00000000000E+00 0.  1.
         12    1    6    6    0    0 -0.19594133643E+02 -0.23616349037E+02  0.26163232768E+03  0.26342577114E+03  0.00000000000E+00 0. -1.
         -5    1    3    3    0  503  0.26315588887E+02 -0.17754250705E+02 -0.59758589213E+02  0.67829953718E+02  0.47000000000E+01 0.  1.
         13    1    4    4    0    0 -0.19846058662E+02  0.23401604180E+02  0.23785887108E+02  0.38823569492E+02  0.00000000000E+00 0. -1.
        -14    1    4    4    0    0 -0.31185088536E+02 -0.62706470164E+02  0.36446833718E+02  0.78949242146E+02  0.00000000000E+00 0.  1.
<mgrwt>
<rscale>  2 0.18548047E+03</rscale>
<asrwt>0</asrwt>
<pdfrwt beam="1">  1       21 0.71794968E-01 0.18560216E+03</pdfrwt>
<pdfrwt beam="2">  1       21 0.17768218E-01 0.18560216E+03</pdfrwt>
<totfact> 0.50552246E+04</totfact>
</mgrwt>
</event>
<event>
12    1  0.1013215E-001  0.1773767E+03  0.7546771E-02  0.1170427E+00
         21   -1    0    0  501  502  0.00000000000E+00  0.00000000000E+00  0.21992908408E+03  0.21992908408E+03  0.00000000000E+00 0. -1.
         21   -1    0    0  502  503 -0.00000000000E+00 -0.00000000000E+00 -0.24372930681E+03  0.24372930681E+03  0.00000000000E+00 0. -1.
         -6    2    1    2    0  503  0.28720422870E+02 -0.26088729375E+02 -0.16103651334E+03  0.23939000992E+03  0.17282746811E+03 0.  0.
        -24    2    3    3    0    0 -0.75664533387E+00  0.37621811138E+02 -0.13928336259E+03  0.16574749442E+03  0.81586785853E+02 0.  0.
          6    2    1    2  501    0 -0.28720422870E+02  0.26088729375E+02  0.13723629061E+03  0.22426838097E+03  0.17308097166E+03 0.  0.
         24    2    5    5    0    0 -0.34810297994E+02  0.82124807196E+02  0.77005041283E+02  0.14164258601E+03  0.78591379844E+02 0.  0.
          5    1    5    5  501    0  0.60898751238E+01 -0.56036077820E+02  0.60231249325E+02  0.82625794954E+02  0.47000000000E+01 0. -1.
        -11    1    6    6    0    0 -0.24262908412E+02  0.49399276795E+02 -0.24255393663E+01  0.55089568102E+02  0.00000000000E+00 0.  1.
         12    1    6    6    0    0 -0.10547389582E+02  0.32725530400E+02  0.79430580649E+02  0.86553017909E+02  0.00000000000E+00 0. -1.
         -5    1    3    3    0  503  0.29477068204E+02 -0.63710540513E+02 -0.21753150750E+02  0.73642515506E+02  0.47000000000E+01 0.  1.
         13    1    4    4    0    0  0.27433916712E+02 -0.21731471601E+01 -0.98192376785E+02  0.10197590506E+03  0.00000000000E+00 0. -1.
        -14    1    4    4    0    0 -0.28190562045E+02  0.39794958298E+02 -0.41090985805E+02  0.63771589354E+02  0.00000000000E+00 0.  1.
<mgrwt>
<rscale>  2 0.17731487E+03</rscale>
<asrwt>0</asrwt>
<pdfrwt beam="1">  1       21 0.33835244E-01 0.17737674E+03</pdfrwt>
<pdfrwt beam="2">  1       21 0.37496816E-01 0.17737674E+03</pdfrwt>
<totfact> 0.58121464E+04</totfact>
</mgrwt>
</event>
<event>
12    1  0.1013215E-001  0.2070778E+03  0.7546771E-02  0.1148429E+00
         21   -1    0    0  503  502  0.00000000000E+00  0.00000000000E+00  0.66085243361E+02  0.66085243361E+02  0.00000000000E+00 0.  1.
         21   -1    0    0  501  503 -0.00000000000E+00 -0.00000000000E+00 -0.58524633967E+03  0.58524633967E+03  0.00000000000E+00 0.  1.
          6    2    1    2  501    0  0.61313786315E+02  0.35974586626E+02 -0.28769532007E+03  0.35447117403E+03  0.19449335400E+03 0.  0.
         24    2    3    3    0    0  0.33755273514E+02  0.79344485635E+02 -0.27839227560E+03  0.30203972923E+03  0.79314393555E+02 0.  0.
         -6    2    1    2    0  502 -0.61313786315E+02 -0.35974586626E+02 -0.23146577624E+03  0.29686040900E+03  0.17174441938E+03 0.  0.
        -24    2    5    5    0    0 -0.10655912896E+03 -0.26627825587E+02 -0.14506899343E+03  0.19877372768E+03  0.80013079572E+02 0.  0.
          5    1    3    3  501    0  0.27558512801E+02 -0.43369899009E+02 -0.93030444686E+01  0.52431444804E+02  0.47000000000E+01 0. -1.
        -13    1    4    4    0    0  0.46601876470E+02  0.89085471031E+02 -0.22943712069E+03  0.25049820037E+03  0.00000000000E+00 0.  1.
         14    1    4    4    0    0 -0.12846602956E+02 -0.97409853967E+01 -0.48955154916E+02  0.51541528857E+02  0.00000000000E+00 0. -1.
         -5    1    5    5    0  502  0.45245342640E+02 -0.93467610395E+01 -0.86396782810E+02  0.98086681321E+02  0.47000000000E+01 0.  1.
         13    1    6    6    0    0 -0.29550500734E+01  0.21457358135E+02 -0.24044340654E+02  0.32361718999E+02  0.00000000000E+00 0. -1.
        -14    1    6    6    0    0 -0.10360407888E+03 -0.48085183721E+02 -0.12102465277E+03  0.16641200868E+03  0.00000000000E+00 0.  1.
<mgrwt>
<rscale>  2 0.20156062E+03</rscale>
<asrwt>0</asrwt>
<pdfrwt beam="1">  1       21 0.10166961E-01 0.20707780E+03</pdfrwt>
<pdfrwt beam="2">  1       21 0.90037898E-01 0.20707780E+03</pdfrwt>
<totfact> 0.82179640E+04</totfact>
</mgrwt>
</event>
<event>
12    1  0.1013215E-001  0.1904617E+03  0.7546771E-02  0.1158149E+00
         21   -1    0    0  501  502  0.00000000000E+00  0.00000000000E+00  0.31475018709E+03  0.31475018709E+03  0.00000000000E+00 0.  1.
         21   -1    0    0  502  503 -0.00000000000E+00 -0.00000000000E+00 -0.12380605523E+03  0.12380605523E+03  0.00000000000E+00 0.  1.
         -6    2    1    2    0  503  0.72656964873E+02  0.27235079163E+02  0.37012293211E+02  0.19402464092E+03  0.17393926340E+03 0.  0.
        -24    2    3    3    0    0  0.36539304724E+01  0.71793978336E+02  0.28692930318E+02  0.11133113421E+03  0.80022563455E+02 0.  0.
          6    2    1    2  501    0 -0.72656964873E+02 -0.27235079163E+02  0.15393183865E+03  0.24453160141E+03  0.17343560492E+03 0.  0.
         24    2    5    5    0    0 -0.97764385376E+02 -0.50864872649E+01  0.53771467176E+02  0.13881910119E+03  0.82435579528E+02 0.  0.
          5    1    5    5  501    0  0.25107420504E+02 -0.22148591898E+02  0.10016037148E+03  0.10571250022E+03  0.47000000000E+01 0. -1.
        -11    1    6    6    0    0 -0.81081299611E+02 -0.74209159067E+01  0.75695049755E+02  0.11117098406E+03  0.00000000000E+00 0.  1.
         12    1    6    6    0    0 -0.16683085766E+02  0.23344286418E+01 -0.21923582579E+02  0.27648117130E+02  0.00000000000E+00 0. -1.
         -5    1    3    3    0  503  0.69003034400E+02 -0.44558899173E+02  0.83193628927E+01  0.82693506703E+02  0.47000000000E+01 0.  1.
         13    1    4    4    0    0 -0.15157358439E+02 -0.51756272188E+01 -0.14047190714E+02  0.21303901025E+02  0.00000000000E+00 0. -1.
        -14    1    4    4    0    0  0.18811288911E+02  0.76969605555E+02  0.42740121032E+02  0.90027233188E+02  0.00000000000E+00 0.  1.
<mgrwt>
<rscale>  2 0.19034661E+03</rscale>
<asrwt>0</asrwt>
<pdfrwt beam="1">  1       21 0.48423106E-01 0.19046168E+03</pdfrwt>
<pdfrwt beam="2">  1       21 0.19047085E-01 0.19046168E+03</pdfrwt>
<totfact> 0.10306233E+05</totfact>
</mgrwt>
</event>
<event>
12    1  0.1013215E-001  0.3148263E+03  0.7546771E-02  0.1078144E+00
         21   -1    0    0  501  502  0.00000000000E+00  0.00000000000E+00  0.12238644074E+04  0.12238644074E+04  0.00000000000E+00 0. -1.
         21   -1    0    0  502  503 -0.00000000000E+00 -0.00000000000E+00 -0.32683546698E+03  0.32683546698E+03  0.00000000000E+00 0.  1.
         -6    2    1    2    0  503  0.25700459818E+03 -0.52372839719E+02 -0.22434479034E+03  0.38597045470E+03  0.17276668987E+03 0.  0.
        -24    2    3    3    0    0  0.57042125117E+02  0.15245592637E+02 -0.64726787656E+02  0.12128717263E+03  0.83873649453E+02 0.  0.
          6    2    1    2  501    0 -0.25700459818E+03  0.52372839719E+02  0.11213737307E+04  0.11647294197E+04  0.17413012145E+03 0.  0.
         24    2    5    5    0    0 -0.11941694209E+03  0.77598825459E+02  0.43979014606E+03  0.46892414059E+03  0.78692396656E+02 0.  0.
          5    1    5    5  501    0 -0.13758765609E+03 -0.25225985740E+02  0.68158358469E+03  0.69580527907E+03  0.47000000000E+01 0. -1.
        -13    1    6    6    0    0 -0.35924158498E+02  0.55739277747E+02  0.11388561143E+03  0.13178522200E+03  0.00000000000E+00 0.  1.
         14    1    6    6    0    0 -0.83492783592E+02  0.21859547713E+02  0.32590453462E+03  0.33713891859E+03  0.00000000000E+00 0. -1.
         -5    1    3    3    0  503  0.19996247306E+03 -0.67618432356E+02 -0.15961800268E+03  0.26468328207E+03  0.47000000000E+01 0.  1.
         13    1    4    4    0    0  0.34895163440E+00  0.11891572752E+02  0.17617090648E+02  0.21257778639E+02  0.00000000000E+00 0. -1.
        -14    1    4    4    0    0  0.56693173483E+02  0.33540198842E+01 -0.82343878303E+02  0.10002939400E+03  0.00000000000E+00 0.  1.
<mgrwt>
<rscale>  2 0.31463808E+03</rscale>
<asrwt>0</asrwt>
<pdfrwt beam="1">  1       21 0.18828683E+00 0.31482626E+03</pdfrwt>
<pdfrwt beam="2">  1       21 0.50282380E-01 0.31482626E+03</pdfrwt>
<totfact> 0.53888324E+02</totfact>
</mgrwt>
</event>
<event>
12    1  0.1013215E-001  0.3870701E+03  0.7546771E-02  0.1048462E+00
         21   -1    0    0  501  502  0.00000000000E+00  0.00000000000E+00  0.17286057397E+03  0.17286057397E+03  0.00000000000E+00 0.  1.
         21   -1    0    0  502  503 -0.00000000000E+00 -0.00000000000E+00 -0.17060381801E+04  0.17060381801E+04  0.00000000000E+00 0. -1.
         -6    2    1    2    0  503  0.29493472696E+03  0.18130499615E+03 -0.14259812787E+04  0.14772592197E+04  0.17033555176E+03 0.  0.
        -24    2    3    3    0    0  0.21961822701E+03  0.14535427026E+03 -0.81544242488E+03  0.86102483906E+03  0.84008307157E+02 0.  0.
          6    2    1    2  501    0 -0.29493472696E+03 -0.18130499615E+03 -0.10719632748E+03  0.40163953443E+03  0.17310478963E+03 0.  0.
         24    2    5    5    0    0 -0.15128042016E+03 -0.23161080986E+02 -0.37242065697E+02  0.17678014168E+03  0.80262356297E+02 0.  0.
          5    1    5    5  501    0 -0.14365430680E+03 -0.15814391517E+03 -0.69954261786E+02  0.22485939275E+03  0.47000000000E+01 0. -1.
        -13    1    6    6    0    0 -0.54421893385E+02 -0.40171719731E+02  0.87676536060E+01  0.68208366756E+02  0.00000000000E+00 0.  1.
         14    1    6    6    0    0 -0.96858526772E+02  0.17010638745E+02 -0.46009719303E+02  0.10857177492E+03  0.00000000000E+00 0. -1.
         -5    1    3    3    0  503  0.75316499945E+02  0.35950725893E+02 -0.61053885381E+03  0.61623438063E+03  0.47000000000E+01 0.  1.
         11    1    4    4    0    0  0.14423881699E+03  0.97596002388E+02 -0.65143948679E+03  0.67431685501E+03  0.00000000000E+00 0. -1.
        -12    1    4    4    0    0  0.75379410018E+02  0.47758267873E+02 -0.16400293809E+03  0.18670798405E+03  0.00000000000E+00 0.  1.
<mgrwt>
<rscale>  2 0.38676211E+03</rscale>
<asrwt>0</asrwt>
<pdfrwt beam="1">  1       21 0.26593933E-01 0.38707010E+03</pdfrwt>
<pdfrwt beam="2">  1       21 0.26246742E+00 0.38707010E+03</pdfrwt>
<totfact> 0.63564159E+02</totfact>
</mgrwt>
</event>
<event>
12    1  0.1013215E-001  0.3456900E+03  0.7546771E-02  0.1064500E+00
         21   -1    0    0  503  502  0.00000000000E+00  0.00000000000E+00  0.11054603455E+04  0.11054603455E+04  0.00000000000E+00 0. -1.
         21   -1    0    0  501  503 -0.00000000000E+00 -0.00000000000E+00 -0.14091117194E+03  0.14091117194E+03  0.00000000000E+00 0.  1.
          6    2    1    2  501    0  0.20884953908E+03 -0.21290221995E+03  0.18069007444E+03  0.39006467027E+03  0.17480291404E+03 0.  0.
         24    2    3    3    0    0  0.43926044712E+02 -0.13559241285E+03  0.93373804378E+02  0.18801817491E+03  0.79481865404E+02 0.  0.
         -6    2    1    2    0  502 -0.20884953908E+03  0.21290221995E+03  0.78385909914E+03  0.85630684718E+03  0.17286076475E+03 0.  0.
        -24    2    5    5    0    0 -0.12291830759E+03  0.43699470008E+02  0.37943578006E+03  0.40954733900E+03  0.82091154653E+02 0.  0.
          5    1    3    3  501    0  0.16492349436E+03 -0.77309807106E+02  0.87316270057E+02  0.20204649535E+03  0.47000000000E+01 0. -1.
        -13    1    4    4    0    0  0.64469930661E+02 -0.96871251081E+02  0.83120224301E+02  0.14300133892E+03  0.00000000000E+00 0.  1.
         14    1    4    4    0    0 -0.20543885949E+02 -0.38721161766E+02  0.10253580078E+02  0.45016835993E+02  0.00000000000E+00 0. -1.
         -5    1    5    5    0  502 -0.85931231491E+02  0.16920274995E+03  0.40442331907E+03  0.44675950818E+03  0.47000000000E+01 0.  1.
         11    1    6    6    0    0 -0.11918182519E+03  0.21228075282E+02  0.35929353228E+03  0.37913952706E+03  0.00000000000E+00 0. -1.
        -12    1    6    6    0    0 -0.37364823918E+01  0.22471394727E+02  0.20142247782E+02  0.30407811946E+02  0.00000000000E+00 0.  1.
<mgrwt>
<rscale>  2 0.34544519E+03</rscale>
<asrwt>0</asrwt>
<pdfrwt beam="1">  1       21 0.17007082E+00 0.34568995E+03</pdfrwt>
<pdfrwt beam="2">  1       21 0.21678643E-01 0.34568995E+03</pdfrwt>
<totfact> 0.38155186E+03</totfact>
</mgrwt>
</event>
<event>
12    1  0.1013215E-001  0.1746903E+03  0.7546771E-02  0.1173159E+00
         21   -1    0    0  503  502  0.00000000000E+00  0.00000000000E+00  0.48431597024E+03  0.48431597024E+03  0.00000000000E+00 0.  1.
         21   -1    0    0  501  503 -0.00000000000E+00 -0.00000000000E+00 -0.62867380799E+02  0.62867380799E+02  0.00000000000E+00 0.  1.
          6    2    1    2  501    0 -0.78110565394E+01 -0.20377610226E+02  0.20516954927E+03  0.26916660999E+03  0.17285791963E+03 0.  0.
         24    2    3    3    0    0  0.55746327688E+02 -0.12236307350E+02  0.16786192107E+03  0.19487144847E+03  0.80869503620E+02 0.  0.
         -6    2    1    2    0  502  0.78110565394E+01  0.20377610226E+02  0.21627904016E+03  0.27801674105E+03  0.17332173980E+03 0.  0.
        -24    2    5    5    0    0  0.31868001030E+02  0.33713332326E+02  0.43720335908E+02  0.10321635639E+03  0.81178754540E+02 0.  0.
          5    1    3    3  501    0 -0.63557384227E+02 -0.81413028766E+01  0.37307628208E+02  0.74295161517E+02  0.47000000000E+01 0. -1.
        -11    1    4    4    0    0  0.66315950322E+02  0.14241666084E+02  0.13690802873E+03  0.15278886953E+03  0.00000000000E+00 0.  1.
         12    1    4    4    0    0 -0.10569622634E+02 -0.26477973433E+02  0.30953892336E+02  0.42082578943E+02  0.00000000000E+00 0. -1.
         -5    1    5    5    0  502 -0.24056944491E+02 -0.13335722099E+02  0.17255870425E+03  0.17480038466E+03  0.47000000000E+01 0.  1.
         13    1    6    6    0    0  0.32983522697E+02  0.31317820537E+02  0.66344580550E+02  0.80438311898E+02  0.00000000000E+00 0. -1.
        -14    1    6    6    0    0 -0.11155216668E+01  0.23955117890E+01 -0.22624244642E+02  0.22778044493E+02  0.00000000000E+00 0.  1.
<mgrwt>
<rscale>  2 0.17457510E+03</rscale>
<asrwt>0</asrwt>
<pdfrwt beam="1">  1       21 0.74510147E-01 0.17469025E+03</pdfrwt>
<pdfrwt beam="2">  1       21 0.96719051E-02 0.17469025E+03</pdfrwt>
<totfact> 0.13973138E+05</totfact>
</mgrwt>
</event>
<event>
12    1  0.1013215E-001  0.2340104E+03  0.7546771E-02  0.1123916E+00
         21   -1    0    0  503  502  0.00000000000E+00  0.00000000000E+00  0.59482448219E+03  0.59482448219E+03  0.00000000000E+00 0. -1.
         21   -1    0    0  501  503 -0.00000000000E+00 -0.00000000000E+00 -0.27871329195E+03  0.27871329195E+03  0.00000000000E+00 0.  1.
          6    2    1    2  501    0 -0.61342782777E+02  0.14500265323E+03 -0.19947615292E+03  0.30749245668E+03  0.17312472062E+03 0.  0.
         24    2    3    3    0    0 -0.10339112712E+03  0.11118385005E+03 -0.18415168026E+03  0.25120121248E+03  0.78349436076E+02 0.  0.
         -6    2    1    2    0  502  0.61342782777E+02 -0.14500265323E+03  0.51558734315E+03  0.56604531746E+03  0.17259283461E+03 0.  0.
        -24    2    5    5    0    0  0.12715945976E+02 -0.74646571262E+02  0.12956496762E+03  0.17063425041E+03  0.81210594740E+02 0.  0.
          5    1    3    3  501    0  0.42048344343E+02  0.33818803182E+02 -0.15324472662E+02  0.56291244195E+02  0.47000000000E+01 0. -1.
        -13    1    4    4    0    0 -0.10062773054E+03  0.11146226971E+03 -0.19149406048E+03  0.24335108984E+03  0.00000000000E+00 0.  1.
         14    1    4    4    0    0 -0.27633965769E+01 -0.27841966524E+00  0.73423802285E+01  0.78501226469E+01  0.00000000000E+00 0. -1.
         -5    1    5    5    0  502  0.48626836801E+02 -0.70356081966E+02  0.38602237554E+03  0.39541106705E+03  0.47000000000E+01 0.  1.
         11    1    6    6    0    0  0.11166871928E+02  0.50493520826E+00  0.79587221265E+02  0.80368400363E+02  0.00000000000E+00 0. -1.
        -12    1    6    6    0    0  0.15490740479E+01 -0.75151506471E+02  0.49977746350E+02  0.90265850051E+02  0.00000000000E+00 0.  1.
<mgrwt>
<rscale>  2 0.23391205E+03</rscale>
<asrwt>0</asrwt>
<pdfrwt beam="1">  1       21 0.91511459E-01 0.23401042E+03</pdfrwt>
<pdfrwt beam="2">  1       21 0.42878968E-01 0.23401042E+03</pdfrwt>
<totfact> 0.51292183E+03</totfact>
</mgrwt>
</event>
<event>
12    1  0.1013215E-001  0.2022827E+03  0.7546771E-02  0.1148215E+00
         21   -1    0    0  501  502  0.00000000000E+00  0.00000000000E+00  0.60299994692E+02  0.60299994692E+02  0.00000000000E+00 0.  1.
         21   -1    0    0  502  503 -0.00000000000E+00 -0.00000000000E+00 -0.79598796163E+03  0.79598796163E+03  0.00000000000E+00 0.  1.
         -6    2    1    2    0  503 -0.10074614016E+03  0.20294015865E+02 -0.53513691123E+03  0.57143882430E+03  0.17207319465E+03 0.  0.
        -24    2    3    3    0    0 -0.50519798843E+02 -0.46991812844E+02 -0.20364720684E+03  0.22944820714E+03  0.80086293183E+02 0.  0.
          6    2    1    2  501    0  0.10074614016E+03 -0.20294015865E+02 -0.20055105570E+03  0.28484913202E+03  0.17423165680E+03 0.  0.
         24    2    5    5    0    0  0.13111836933E+03 -0.33200521656E+02 -0.19450242984E+03  0.25097102594E+03  0.82830907456E+02 0.  0.
          5    1    5    5  501    0 -0.30372229177E+02  0.12906505791E+02 -0.60486258580E+01  0.33878106082E+02  0.47000000000E+01 0. -1.
        -13    1    6    6    0    0  0.68757070717E+02 -0.39128061235E+02 -0.16225917265E+03  0.18051753117E+03  0.00000000000E+00 0.  1.
         14    1    6    6    0    0  0.62361298618E+02  0.59275395792E+01 -0.32243257190E+02  0.70453494768E+02  0.00000000000E+00 0. -1.
         -5    1    3    3    0  503 -0.50226341314E+02  0.67285828709E+02 -0.33148970439E+03  0.34199061716E+03  0.47000000000E+01 0.  1.
         11    1    4    4    0    0 -0.24195676351E+02 -0.58524393964E+02 -0.18410869491E+03  0.19469603741E+03  0.00000000000E+00 0. -1.
        -12    1    4    4    0    0 -0.26324122492E+02  0.11532581119E+02 -0.19538511932E+02  0.34752169727E+02  0.00000000000E+00 0.  1.
<mgrwt>
<rscale>  2 0.20181709E+03</rscale>
<asrwt>0</asrwt>
<pdfrwt beam="1">  1       21 0.92769226E-02 0.20228273E+03</pdfrwt>
<pdfrwt beam="2">  1       21 0.12245968E+00 0.20228273E+03</pdfrwt>
<totfact> 0.46263578E+04</totfact>
</mgrwt>
</event>
<event>
12    1  0.1013215E-001  0.1858395E+03  0.7546771E-02  0.1162513E+00
         21   -1    0    0  501  502  0.00000000000E+00  0.00000000000E+00  0.47508353142E+02  0.47508353142E+02  0.00000000000E+00 0. -1.
         21   -1    0    0  502  503 -0.00000000000E+00 -0.00000000000E+00 -0.73398815134E+03  0.73398815134E+03  0.00000000000E+00 0. -1.
         -6    2    1    2    0  503  0.62457984903E+01  0.66755362391E+02 -0.39235108459E+03  0.43413786793E+03  0.17332347329E+03 0.  0.
        -24    2    3    3    0    0  0.68222833538E+01  0.14156592528E+02 -0.36644243038E+03  0.37531345728E+03  0.79581302910E+02 0.  0.
          6    2    1    2  501    0 -0.62457984903E+01 -0.66755362391E+02 -0.29412871362E+03  0.34735863655E+03  0.17219475546E+03 0.  0.
         24    2    5    5    0    0 -0.14580532455E+02  0.15787719751E+02 -0.22367455032E+03  0.23841503956E+03  0.79684268250E+02 0.  0.
          5    1    5    5  501    0  0.83347339651E+01 -0.82543082142E+02 -0.70454163299E+02  0.10894359699E+03  0.47000000000E+01 0. -1.
        -11    1    6    6    0    0 -0.32565148854E+02 -0.20878106063E+02 -0.77137080825E+02  0.86293183224E+02  0.00000000000E+00 0.  1.
         12    1    6    6    0    0  0.17984616399E+02  0.36665825814E+02 -0.14653746949E+03  0.15212185634E+03  0.00000000000E+00 0. -1.
         -5    1    3    3    0  503 -0.57648486344E+00  0.52598769862E+02 -0.25908654208E+02  0.58824410653E+02  0.47000000000E+01 0.  1.
         11    1    4    4    0    0 -0.72270410324E+01  0.45866256454E+02 -0.21142055192E+03  0.21645921874E+03  0.00000000000E+00 0. -1.
        -12    1    4    4    0    0  0.14049324386E+02 -0.31709663926E+02 -0.15502187845E+03  0.15885423854E+03  0.00000000000E+00 0.  1.
<mgrwt>
<rscale>  2 0.18557586E+03</rscale>
<asrwt>0</asrwt>
<pdfrwt beam="1">  1       21 0.73089776E-02 0.18583949E+03</pdfrwt>
<pdfrwt beam="2">  1       21 0.11292125E+00 0.18583949E+03</pdfrwt>
<totfact> 0.86294182E+04</totfact>
</mgrwt>
</event>
<event>
12    1  0.1013215E-001  0.2672683E+03  0.7546771E-02  0.1102884E+00
         21   -1    0    0  503  502  0.00000000000E+00  0.00000000000E+00  0.25501972145E+03  0.25501972145E+03  0.00000000000E+00 0.  1.
         21   -1    0    0  501  503 -0.00000000000E+00 -0.00000000000E+00 -0.49283337148E+03  0.49283337148E+03  0.00000000000E+00 0. -1.
          6    2    1    2  501    0  0.34047464977E+02  0.20139430621E+03 -0.36472897286E+03  0.45217207558E+03  0.17237594336E+03 0.  0.
         24    2    3    3    0    0 -0.46458592054E+01  0.27703457250E+02 -0.15651624752E+03  0.17823720496E+03  0.80511489515E+02 0.  0.
         -6    2    1    2    0  502 -0.34047464977E+02 -0.20139430621E+03  0.12691532283E+03  0.29568101734E+03  0.17204902906E+03 0.  0.
        -24    2    5    5    0    0 -0.55502238794E+01 -0.13463097170E+03  0.12884476403E+02  0.16042363483E+03  0.86101273831E+02 0.  0.
          5    1    3    3  501    0  0.38693324183E+02  0.17369084896E+03 -0.20821272534E+03  0.27393487062E+03  0.47000000000E+01 0. -1.
        -11    1    4    4    0    0 -0.23919851185E+02  0.26889244198E+02 -0.21651523668E+02  0.41999752516E+02  0.00000000000E+00 0.  1.
         12    1    4    4    0    0  0.19273991980E+02  0.81421305204E+00 -0.13486472385E+03  0.13623745245E+03  0.00000000000E+00 0. -1.
         -5    1    5    5    0  502 -0.28497241098E+02 -0.66763334513E+02  0.11403084643E+03  0.13525738251E+03  0.47000000000E+01 0.  1.
         13    1    6    6    0    0 -0.18692753098E+02 -0.22286545504E+01 -0.15489938108E+02  0.24378763342E+02  0.00000000000E+00 0. -1.
        -14    1    6    6    0    0  0.13142529218E+02 -0.13240231714E+03  0.28374414511E+02  0.13604487149E+03  0.00000000000E+00 0.  1.
<mgrwt>
<rscale>  2 0.26721564E+03</rscale>
<asrwt>0</asrwt>
<pdfrwt beam="1">  1       21 0.39233804E-01 0.26726833E+03</pdfrwt>
<pdfrwt beam="2">  1       21 0.75820518E-01 0.26726833E+03</pdfrwt>
<totfact> 0.92853959E+03</totfact>
</mgrwt>
</event>
<event>
12    1  0.1013215E-001  0.2674988E+03  0.7546771E-02  0.1103289E+00
         21   -1    0    0  501  502  0.00000000000E+00  0.00000000000E+00  0.99881103522E+03  0.99881103522E+03  0.00000000000E+00 0.  1.
         21   -1    0    0  502  503 -0.00000000000E+00 -0.00000000000E+00 -0.98661562238E+02  0.98661562238E+02  0.00000000000E+00 0.  1.
         -6    2    1    2    0  503  0.15363377743E+03 -0.13411006106E+03  0.74508726730E+03  0.79165058364E+03  0.17310911197E+03 0.  0.
        -24    2    3    3    0    0  0.84834029561E+02 -0.41389260057E+02  0.19270411081E+03  0.22731044346E+03  0.75001866405E+02 0.  0.
          6    2    1    2  501    0 -0.15363377743E+03  0.13411006106E+03  0.15506220568E+03  0.30582201381E+03  0.16701488095E+03 0.  0.
         24    2    5    5    0    0 -0.13514106087E+03  0.14100944693E+03  0.17714532572E+03  0.27583307783E+03  0.80973143331E+02 0.  0.
          5    1    5    5  501    0 -0.18492716553E+02 -0.68993858689E+01 -0.22083120041E+02  0.29988935987E+02  0.47000000000E+01 0. -1.
        -13    1    6    6    0    0 -0.12841551888E+03  0.12184848827E+03  0.11660363927E+03  0.21197643330E+03  0.00000000000E+00 0.  1.
         14    1    6    6    0    0 -0.67255419912E+01  0.19160958657E+02  0.60541686451E+02  0.63856644525E+02  0.00000000000E+00 0. -1.
         -5    1    3    3    0  503  0.68799747865E+02 -0.92720801005E+02  0.55238315649E+03  0.56434014018E+03  0.47000000000E+01 0.  1.
         13    1    4    4    0    0  0.28956526525E+02  0.19746146104E+02  0.80939395562E+02  0.88201907396E+02  0.00000000000E+00 0. -1.
        -14    1    4    4    0    0  0.55877503035E+02 -0.61135406160E+02  0.11176471525E+03  0.13910853606E+03  0.00000000000E+00 0.  1.
<mgrwt>
<rscale>  2 0.26651770E+03</rscale>
<asrwt>0</asrwt>
<pdfrwt beam="1">  1       21 0.15366323E+00 0.26749881E+03</pdfrwt>
<pdfrwt beam="2">  1       21 0.15178703E-01 0.26749881E+03</pdfrwt>
<totfact> 0.10247397E+04</totfact>
</mgrwt>
</event>
<event>
12    1  0.1013215E-001  0.1757741E+03  0.7546771E-02  0.1172041E+00
         21   -1    0    0  501  502  0.00000000000E+00  0.00000000000E+00  0.10660753253E+03  0.10660753253E+03  0.00000000000E+00 0. -1.
         21   -1    0    0  502  503 -0.00000000000E+00 -0.00000000000E+00 -0.30054462956E+03  0.30054462956E+03  0.00000000000E+00 0. -1.
         -6    2    1    2    0  503 -0.24012862146E+02 -0.75125489454E+01 -0.57429281156E+02  0.18459674729E+03  0.17362252399E+03 0.  0.
        -24    2    3    3    0    0 -0.17838803139E+02 -0.72855336341E+02 -0.43653845284E+02  0.11736839388E+03  0.79016192915E+02 0.  0.
          6    2    1    2  501    0  0.24012862146E+02  0.75125489454E+01 -0.13650781587E+03  0.22255541480E+03  0.17396399893E+03 0.  0.
         24    2    5    5    0    0 -0.35645823938E+02  0.29507246002E+02 -0.28369374807E+02  0.97020806189E+02  0.80417119296E+02 0.  0.
          5    1    5    5  501    0  0.59658686084E+02 -0.21994697056E+02 -0.10813844106E+03  0.12553460861E+03  0.47000000000E+01 0. -1.
        -13    1    6    6    0    0 -0.31704000927E+02  0.24396729728E+02  0.22396032510E+02  0.45846770533E+02  0.00000000000E+00 0.  1.
         14    1    6    6    0    0 -0.39418230112E+01  0.51105162743E+01 -0.50765407317E+02  0.51174035656E+02  0.00000000000E+00 0. -1.
         -5    1    3    3    0  503 -0.61740590068E+01  0.65342787396E+02 -0.13775435872E+02  0.67228353414E+02  0.47000000000E+01 0.  1.
         13    1    4    4    0    0 -0.12320732647E+02 -0.46803112572E+02 -0.66523342903E+02  0.82265952559E+02  0.00000000000E+00 0. -1.
        -14    1    4    4    0    0 -0.55180704922E+01 -0.26052223769E+02  0.22869497619E+02  0.35102441320E+02  0.00000000000E+00 0.  1.
<mgrwt>
<rscale>  2 0.17568954E+03</rscale>
<asrwt>0</asrwt>
<pdfrwt beam="1">  1       21 0.16401159E-01 0.17577408E+03</pdfrwt>
<pdfrwt beam="2">  1       21 0.46237635E-01 0.17577408E+03</pdfrwt>
<totfact> 0.15015065E+05</totfact>
</mgrwt>
</event>
<event>
12    1  0.1013215E-001  0.2786988E+03  0.7546771E-02  0.1096428E+00
         21   -1    0    0  503  502  0.00000000000E+00  0.00000000000E+00  0.18000389831E+04  0.18000389831E+04  0.00000000000E+00 0.  1.
         21   -1    0    0  501  503 -0.00000000000E+00 -0.00000000000E+00 -0.46646503295E+02  0.46646503295E+02  0.00000000000E+00 0.  1.
          6    2    1    2  501    0  0.18707568534E+03  0.11352643051E+03  0.11308326529E+04  0.11646697045E+04  0.17259046643E+03 0.  0.
         24    2    3    3    0    0  0.12930447557E+03  0.59289937735E+01  0.53217988867E+03  0.55366893259E+03  0.81111359554E+02 0.  0.
         -6    2    1    2    0  502 -0.18707568534E+03 -0.11352643051E+03  0.62255982687E+03  0.68201578192E+03  0.17227659819E+03 0.  0.
        -24    2    5    5    0    0 -0.25235038434E+02 -0.51919117440E+02  0.29139678244E+03  0.30827936677E+03  0.82411657167E+02 0.  0.
          5    1    3    3  501    0  0.57771209775E+02  0.10759743674E+03  0.59865276426E+03  0.61100077187E+03  0.47000000000E+01 0. -1.
        -11    1    4    4    0    0  0.91628129827E+02  0.29743055591E+02  0.44983930166E+03  0.46003886885E+03  0.00000000000E+00 0.  1.
         12    1    4    4    0    0  0.37676345739E+02 -0.23814061818E+02  0.82340587003E+02  0.93630063743E+02  0.00000000000E+00 0. -1.
         -5    1    5    5    0  502 -0.16184064691E+03 -0.61607313074E+02  0.33116304442E+03  0.37373641515E+03  0.47000000000E+01 0.  1.
         11    1    6    6    0    0 -0.17364533291E+02 -0.54472333680E+02  0.89433490518E+02  0.10614665034E+03  0.00000000000E+00 0. -1.
        -12    1    6    6    0    0 -0.78705051430E+01  0.25532162393E+01  0.20196329193E+03  0.20213271643E+03  0.00000000000E+00 0.  1.
<mgrwt>
<rscale>  2 0.27865024E+03</rscale>
<asrwt>0</asrwt>
<pdfrwt beam="1">  1       21 0.27692902E+00 0.27869882E+03</pdfrwt>
<pdfrwt beam="2">  1       21 0.71763865E-02 0.27869882E+03</pdfrwt>
<totfact> 0.62167201E+03</totfact>
</mgrwt>
</event>
<event>
12    1  0.1013215E-001  0.1738792E+03  0.7546771E-02  0.1175104E+00
         21   -1    0    0  501  502  0.00000000000E+00  0.00000000000E+00  0.22481435132E+03  0.22481435132E+03  0.00000000000E+00 0. -1.
         21   -1    0    0  502  503 -0.00000000000E+00 -0.00000000000E+00 -0.16889813533E+03  0.16889813533E+03  0.00000000000E+00 0. -1.
         -6    2    1    2    0  503 -0.14166188860E+02  0.43517105086E+01 -0.65259138880E+02  0.18572218581E+03  0.17324652032E+03 0.  0.
        -24    2    3    3    0    0 -0.37015535443E+02 -0.53026699689E+02 -0.67927722133E+02  0.12372552515E+03  0.80696030856E+02 0.  0.
          6    2    1    2  501    0  0.14166188860E+02 -0.43517105086E+01  0.12117535487E+03  0.20799030084E+03  0.16839501276E+03 0.  0.
         24    2    5    5    0    0  0.18595112486E+02  0.29001827182E+02  0.14279809330E+03  0.16771988169E+03  0.80943060701E+02 0.  0.
          5    1    5    5  501    0 -0.44289236258E+01 -0.33353537690E+02 -0.21622738432E+02  0.40270419146E+02  0.47000000000E+01 0. -1.
        -11    1    6    6    0    0  0.81082076258E+01  0.43169900751E+02  0.29159867398E+02  0.52722682295E+02  0.00000000000E+00 0.  1.
         12    1    6    6    0    0  0.10486904860E+02 -0.14168073569E+02  0.11363822591E+03  0.11499719940E+03  0.00000000000E+00 0. -1.
         -5    1    3    3    0  503  0.22849346583E+02  0.57378410198E+02  0.26685832527E+01  0.61996660658E+02  0.47000000000E+01 0.  1.
         13    1    4    4    0    0 -0.74188692755E+01 -0.17744802305E+02  0.17931558178E+02  0.26295596758E+02  0.00000000000E+00 0. -1.
        -14    1    4    4    0    0 -0.29596666168E+02 -0.35281897384E+02 -0.85859280311E+02  0.97429928394E+02  0.00000000000E+00 0.  1.
<mgrwt>
<rscale>  2 0.17265806E+03</rscale>
<asrwt>0</asrwt>
<pdfrwt beam="1">  1       21 0.34586823E-01 0.17387920E+03</pdfrwt>
<pdfrwt beam="2">  1       21 0.25984328E-01 0.17387920E+03</pdfrwt>
<totfact> 0.11411931E+05</totfact>
</mgrwt>
</event>
<event>
12    1  0.1013215E-001  0.1798721E+03  0.7546771E-02  0.1168041E+00
         21   -1    0    0  503  502  0.00000000000E+00  0.00000000000E+00  0.61101481618E+02  0.61101481618E+02  0.00000000000E+00 0.  1.
         21   -1    0    0  501  503 -0.00000000000E+00 -0.00000000000E+00 -0.78563186016E+03  0.78563186016E+03  0.00000000000E+00 0.  1.
          6    2    1    2  501    0  0.46177085344E+02 -0.14690603082E+02 -0.60432630336E+03  0.63039337491E+03  0.17273502589E+03 0.  0.
         24    2    3    3    0    0 -0.60056701349E+01 -0.53948365750E+02 -0.47866130266E+03  0.48869653550E+03  0.82226315137E+02 0.  0.
         -6    2    1    2    0  502 -0.46177085344E+02  0.14690603082E+02 -0.12020407518E+03  0.21633996687E+03  0.17322189395E+03 0.  0.
        -24    2    5    5    0    0 -0.36790760078E+02 -0.51391030751E+02 -0.85290235695E+02  0.14086843833E+03  0.92600726475E+02 0.  0.
          5    1    3    3  501    0  0.52182755479E+02  0.39257762668E+02 -0.12566500070E+03  0.14169683942E+03  0.47000000000E+01 0. -1.
        -11    1    4    4    0    0 -0.16002975730E+01 -0.72227717794E+02 -0.43774577853E+03  0.44366741010E+03  0.00000000000E+00 0.  1.
         12    1    4    4    0    0 -0.44053725619E+01  0.18279352044E+02 -0.40915524136E+02  0.45029125396E+02  0.00000000000E+00 0. -1.
         -5    1    5    5    0  502 -0.93863252668E+01  0.66081633833E+02 -0.34913839485E+02  0.75471528537E+02  0.47000000000E+01 0.  1.
         13    1    6    6    0    0 -0.10224662694E+02 -0.41065015785E+02  0.82209782124E+01  0.43109902939E+02  0.00000000000E+00 0. -1.
        -14    1    6    6    0    0 -0.26566097383E+02 -0.10326014966E+02 -0.93511213907E+02  0.97758535391E+02  0.00000000000E+00 0.  1.
<mgrwt>
<rscale>  2 0.17975475E+03</rscale>
<asrwt>0</asrwt>
<pdfrwt beam="1">  1       21 0.94002283E-02 0.17987207E+03</pdfrwt>
<pdfrwt beam="2">  1       21 0.12086644E+00 0.17987207E+03</pdfrwt>
<totfact> 0.47261769E+04</totfact>
</mgrwt>
</event>
<event>
12    1  0.1013215E-001  0.2414909E+03  0.7546771E-02  0.1118932E+00
         21   -1    0    0  501  502  0.00000000000E+00  0.00000000000E+00  0.10489507875E+03  0.10489507875E+03  0.00000000000E+00 0.  1.
         21   -1    0    0  502  503 -0.00000000000E+00 -0.00000000000E+00 -0.78457441079E+03  0.78457441079E+03  0.00000000000E+00 0.  1.
         -6    2    1    2    0  503  0.16504068025E+03  0.30476823481E+02 -0.99225283844E+02  0.26108140872E+03  0.17363922978E+03 0.  0.
        -24    2    3    3    0    0  0.71315100258E+02  0.71618545233E+02 -0.91771005048E+02  0.15834494058E+03  0.80225577546E+02 0.  0.
          6    2    1    2  501    0 -0.16504068025E+03 -0.30476823481E+02 -0.58045404820E+03  0.62838808082E+03  0.17256133731E+03 0.  0.
         24    2    5    5    0    0 -0.17650811169E+03 -0.16702456279E+02 -0.57758830141E+03  0.60963874269E+03  0.81345344863E+02 0.  0.
          5    1    5    5  501    0  0.11467431435E+02 -0.13774367202E+02 -0.28657467942E+01  0.18749338127E+02  0.47000000000E+01 0. -1.
        -13    1    6    6    0    0 -0.12887274921E+03 -0.30084106826E+02 -0.30316285389E+03  0.33078838394E+03  0.00000000000E+00 0.  1.
         14    1    6    6    0    0 -0.47635362478E+02  0.13381650546E+02 -0.27442544752E+03  0.27885035875E+03  0.00000000000E+00 0. -1.
         -5    1    3    3    0  503  0.93725579994E+02 -0.41141721752E+02 -0.74542787956E+01  0.10273646814E+03  0.47000000000E+01 0.  1.
         11    1    4    4    0    0  0.32996520466E+02  0.74941332154E+02 -0.33383715537E+02  0.88427631942E+02  0.00000000000E+00 0. -1.
        -12    1    4    4    0    0  0.38318579792E+02 -0.33227869209E+01 -0.58387289512E+02  0.69917308634E+02  0.00000000000E+00 0.  1.
<mgrwt>
<rscale>  2 0.24129718E+03</rscale>
<asrwt>0</asrwt>
<pdfrwt beam="1">  1       21 0.16137704E-01 0.24149088E+03</pdfrwt>
<pdfrwt beam="2">  1       21 0.12070376E+00 0.24149088E+03</pdfrwt>
<totfact> 0.17344715E+04</totfact>
</mgrwt>
</event>
<event>
12    1  0.1013215E-001  0.1747753E+03  0.7546771E-02  0.1173039E+00
         21   -1    0    0  501  502  0.00000000000E+00  0.00000000000E+00  0.89621282604E+03  0.89621282604E+03  0.00000000000E+00 0. -1.
         21   -1    0    0  502  503 -0.00000000000E+00 -0.00000000000E+00 -0.14507180332E+03  0.14507180332E+03  0.00000000000E+00 0. -1.
         -6    2    1    2    0  503  0.46206441354E+01  0.28132915675E+02 -0.80033820346E+02  0.19193309524E+03  0.17210487893E+03 0.  0.
        -24    2    3    3    0    0  0.51149077439E+02 -0.25709207134E+01 -0.45511585973E+01  0.97979154931E+02  0.83404820006E+02 0.  0.
          6    2    1    2  501    0 -0.46206441354E+01 -0.28132915675E+02  0.83117484307E+03  0.84935153412E+03  0.17243432799E+03 0.  0.
         24    2    5    5    0    0  0.33054812218E+02 -0.69910314083E+02  0.65344500669E+03  0.66287157335E+03  0.80176513797E+02 0.  0.
          5    1    5    5  501    0 -0.37675456353E+02  0.41777398408E+02  0.17772983637E+03  0.18647996076E+03  0.47000000000E+01 0. -1.
        -11    1    6    6    0    0  0.29891240556E+02  0.60141074304E+01  0.11030529021E+03  0.11444174412E+03  0.00000000000E+00 0.  1.
         12    1    6    6    0    0  0.31635716620E+01 -0.75924421514E+02  0.54313971649E+03  0.54842982923E+03  0.00000000000E+00 0. -1.
         -5    1    3    3    0  503 -0.46528433304E+02  0.30703836388E+02 -0.75482661749E+02  0.93953940308E+02  0.47000000000E+01 0.  1.
         13    1    4    4    0    0  0.13778540543E+02 -0.31821427516E+02 -0.28441411059E+02  0.44848247365E+02  0.00000000000E+00 0. -1.
        -14    1    4    4    0    0  0.37370536896E+02  0.29250506803E+02  0.23890252462E+02  0.53130907566E+02  0.00000000000E+00 0.  1.
<mgrwt>
<rscale>  2 0.17469400E+03</rscale>
<asrwt>0</asrwt>
<pdfrwt beam="1">  1       21 0.13787889E+00 0.17477531E+03</pdfrwt>
<pdfrwt beam="2">  1       21 0.22318739E-01 0.17477531E+03</pdfrwt>
<totfact> 0.70938051E+03</totfact>
</mgrwt>
</event>
<event>
12    1  0.1013215E-001  0.1801055E+03  0.7546771E-02  0.1167882E+00
         21   -1    0    0  501  502  0.00000000000E+00  0.00000000000E+00  0.21174665038E+03  0.21174665038E+03  0.00000000000E+00 0.  1.
         21   -1    0    0  502  503 -0.00000000000E+00 -0.00000000000E+00 -0.19438507580E+03  0.19438507580E+03  0.00000000000E+00 0.  1.
         -6    2    1    2    0  503  0.38444030247E+02  0.28179587889E+02 -0.85502926779E+02  0.19937083069E+03  0.17368346211E+03 0.  0.
        -24    2    3    3    0    0 -0.23795887167E+02  0.42780093437E+02 -0.89487969978E+02  0.13514503641E+03  0.88654968589E+02 0.  0.
          6    2    1    2  501    0 -0.38444030247E+02 -0.28179587889E+02  0.10286450136E+03  0.20676089548E+03  0.17290728621E+03 0.  0.
         24    2    5    5    0    0 -0.61659259265E+02 -0.75545649104E+02  0.47544085093E+02  0.13017807058E+03  0.71950543294E+02 0.  0.
          5    1    5    5  501    0  0.23215229019E+02  0.47366061215E+02  0.55320416266E+02  0.76582824898E+02  0.47000000000E+01 0. -1.
        -13    1    6    6    0    0 -0.59619706583E+02 -0.33226624925E+02  0.54372337710E+02  0.87263217480E+02  0.00000000000E+00 0.  1.
         14    1    6    6    0    0 -0.20395526828E+01 -0.42319024179E+02 -0.68282526173E+01  0.42914853098E+02  0.00000000000E+00 0. -1.
         -5    1    3    3    0  503  0.62239917414E+02 -0.14600505549E+02  0.39850431988E+01  0.64225794283E+02  0.47000000000E+01 0.  1.
         13    1    4    4    0    0 -0.15651102921E+02 -0.10205353753E+02  0.10689337080E+02  0.21525988829E+02  0.00000000000E+00 0. -1.
        -14    1    4    4    0    0 -0.81447842465E+01  0.52985447190E+02 -0.10017730706E+03  0.11361904758E+03  0.00000000000E+00 0.  1.
<mgrwt>
<rscale>  2 0.17991807E+03</rscale>
<asrwt>0</asrwt>
<pdfrwt beam="1">  1       21 0.32576408E-01 0.18010546E+03</pdfrwt>
<pdfrwt beam="2">  1       21 0.29905396E-01 0.18010546E+03</pdfrwt>
<totfact> 0.97693980E+04</totfact>
</mgrwt>
</event>
<event>
12    1  0.1013215E-001  0.1973938E+03  0.7546771E-02  0.1152037E+00
         21   -1    0    0  501  502  0.00000000000E+00  0.00000000000E+00  0.15435617015E+04  0.15435617015E+04  0.00000000000E+00 0. -1.
         21   -1    0    0  502  503 -0.00000000000E+00 -0.00000000000E+00 -0.29577698828E+02  0.29577698828E+02  0.00000000000E+00 0. -1.
         -6    2    1    2    0  503 -0.94167561393E+02 -0.39685337596E+01  0.10603791538E+04  0.10785955024E+04  0.17343883362E+03 0.  0.
        -24    2    3    3    0    0  0.95532931147E+01  0.30692119597E+02  0.41763260936E+03  0.42659505225E+03  0.80827412341E+02 0.  0.
          6    2    1    2  501    0  0.94167561393E+02  0.39685337596E+01  0.45360484883E+03  0.49454389793E+03  0.17301164476E+03 0.  0.
         24    2    5    5    0    0 -0.11885887864E+02 -0.26415845569E+02  0.16728757616E+03  0.18767223870E+03  0.79979152385E+02 0.  0.
          5    1    5    5  501    0  0.10605344926E+03  0.30384379329E+02  0.28631727268E+03  0.30687165923E+03  0.47000000000E+01 0. -1.
        -11    1    6    6    0    0 -0.89931713762E+01  0.18312183875E+02  0.12293313281E+03  0.12461447890E+03  0.00000000000E+00 0.  1.
         12    1    6    6    0    0 -0.28927164877E+01 -0.44728029445E+02  0.44354443350E+02  0.63057759804E+02  0.00000000000E+00 0. -1.
         -5    1    3    3    0  503 -0.10372085451E+03 -0.34660653356E+02  0.64274654444E+03  0.65200045011E+03  0.47000000000E+01 0.  1.
         13    1    4    4    0    0 -0.26117012489E+02  0.21030164189E+02  0.77268604182E+02  0.84230655580E+02  0.00000000000E+00 0. -1.
        -14    1    4    4    0    0  0.35670305604E+02  0.96619554071E+01  0.34036400518E+03  0.34236439667E+03  0.00000000000E+00 0.  1.
<mgrwt>
<rscale>  2 0.19729991E+03</rscale>
<asrwt>0</asrwt>
<pdfrwt beam="1">  1       21 0.23747097E+00 0.19739379E+03</pdfrwt>
<pdfrwt beam="2">  1       21 0.45504164E-02 0.19739379E+03</pdfrwt>
<totfact> 0.24786242E+04</totfact>
</mgrwt>
</event>
<event>
12    1  0.1013215E-001  0.1947279E+03  0.7546771E-02  0.1154575E+00
         21   -1    0    0  503  502  0.00000000000E+00  0.00000000000E+00  0.99149802856E+02  0.99149802856E+02  0.00000000000E+00 0.  1.
         21   -1    0    0  501  503 -0.00000000000E+00 -0.00000000000E+00 -0.38202277314E+03  0.38202277314E+03  0.00000000000E+00 0.  1.
          6    2    1    2  501    0 -0.10571504921E+02 -0.84784811991E+02 -0.12203883929E+03  0.22861254115E+03  0.17340702008E+03 0.  0.
         24    2    3    3    0    0 -0.27349916333E+02  0.12448300727E+02 -0.86222017233E+02  0.12353767241E+03  0.83212632055E+02 0.  0.
         -6    2    1    2    0  502  0.10571504921E+02  0.84784811991E+02 -0.16083413099E+03  0.25256003485E+03  0.17498209180E+03 0.  0.
        -24    2    5    5    0    0 -0.39391984933E+02  0.44500136873E+02 -0.15955110598E+03  0.18819434895E+03  0.80178344320E+02 0.  0.
          5    1    3    3  501    0  0.16778411412E+02 -0.97233112718E+02 -0.35816822058E+02  0.10507486874E+03  0.47000000000E+01 0. -1.
        -11    1    4    4    0    0  0.15988789200E+02 -0.18309371053E+02 -0.25854457451E+01  0.24445019496E+02  0.00000000000E+00 0.  1.
         12    1    4    4    0    0 -0.43338705533E+02  0.30757671780E+02 -0.83636571488E+02  0.99092652911E+02  0.00000000000E+00 0. -1.
         -5    1    5    5    0  502  0.49963489854E+02  0.40284675118E+02 -0.12830250080E+01  0.64365685897E+02  0.47000000000E+01 0.  1.
         13    1    6    6    0    0  0.71593328757E+01 -0.16455917275E+02 -0.11102451909E+02  0.21102551954E+02  0.00000000000E+00 0. -1.
        -14    1    6    6    0    0 -0.46551317809E+02  0.60956054149E+02 -0.14844865407E+03  0.16709179700E+03  0.00000000000E+00 0.  1.
<mgrwt>
<rscale>  2 0.19437340E+03</rscale>
<asrwt>0</asrwt>
<pdfrwt beam="1">  1       21 0.15253816E-01 0.19472790E+03</pdfrwt>
<pdfrwt beam="2">  1       21 0.58772734E-01 0.19472790E+03</pdfrwt>
<totfact> 0.10297218E+05</totfact>
</mgrwt>
</event>
<event>
12    1  0.1013215E-001  0.2031027E+03  0.7546771E-02  0.1147237E+00
         21   -1    0    0  501  502  0.00000000000E+00  0.00000000000E+00  0.41234966460E+03  0.41234966460E+03  0.00000000000E+00 0.  1.
         21   -1    0    0  502  503 -0.00000000000E+00 -0.00000000000E+00 -0.10228538134E+03  0.10228538134E+03  0.00000000000E+00 0.  1.
         -6    2    1    2    0  503 -0.41753611605E+02  0.96581432636E+02  0.11496742587E+03  0.23300850590E+03  0.17321696684E+03 0.  0.
        -24    2    3    3    0    0 -0.13762509438E+02  0.13345883052E+03  0.91844142129E+02  0.18104485970E+03  0.79631832030E+02 0.  0.
          6    2    1    2  501    0  0.41753611605E+02 -0.96581432636E+02  0.19509685739E+03  0.28162654004E+03  0.17372215484E+03 0.  0.
         24    2    5    5    0    0 -0.30994344603E+02 -0.33929328631E+02  0.45263139623E+02  0.10361029290E+03  0.81083242703E+02 0.  0.
          5    1    5    5  501    0  0.72747956208E+02 -0.62652104005E+02  0.14983371776E+03  0.17801624714E+03  0.47000000000E+01 0. -1.
        -11    1    6    6    0    0  0.13143563231E+02 -0.29074222156E+02  0.49619616951E+02  0.58992965977E+02  0.00000000000E+00 0.  1.
         12    1    6    6    0    0 -0.44137907835E+02 -0.48551064751E+01 -0.43564773277E+01  0.44617326921E+02  0.00000000000E+00 0. -1.
         -5    1    3    3    0  503 -0.27991102167E+02 -0.36877397884E+02  0.23123283743E+02  0.51963646199E+02  0.47000000000E+01 0.  1.
         13    1    4    4    0    0 -0.11340358687E+02 -0.84148060187E+01  0.86485982373E+01  0.16559316017E+02  0.00000000000E+00 0. -1.
        -14    1    4    4    0    0 -0.24221507518E+01  0.14187363654E+03  0.83195543892E+02  0.16448554369E+03  0.00000000000E+00 0.  1.
<mgrwt>
<rscale>  2 0.20299467E+03</rscale>
<asrwt>0</asrwt>
<pdfrwt beam="1">  1       21 0.63438409E-01 0.20310274E+03</pdfrwt>
<pdfrwt beam="2">  1       21 0.15736213E-01 0.20310274E+03</pdfrwt>
<totfact> 0.82217035E+04</totfact>
</mgrwt>
</event>
<event>
12    1  0.1013215E-001  0.2080471E+03  0.7546771E-02  0.1143740E+00
         21   -1    0    0  503  502  0.00000000000E+00  0.00000000000E+00  0.18519686479E+03  0.18519686479E+03  0.00000000000E+00 0.  1.
         21   -1    0    0  501  503 -0.00000000000E+00 -0.00000000000E+00 -0.29118779959E+03  0.29118779959E+03  0.00000000000E+00 0. -1.
          6    2    1    2  501    0 -0.84006229610E+02 -0.68415455758E+02 -0.16222878173E+03  0.26382144617E+03  0.17761153295E+03 0.  0.
         24    2    3    3    0    0 -0.83878354625E+02 -0.11207810251E+03 -0.10747175444E+03  0.19362981483E+03  0.79657063412E+02 0.  0.
         -6    2    1    2    0  502  0.84006229610E+02  0.68415455758E+02  0.56237846924E+02  0.21256321821E+03  0.17401926649E+03 0.  0.
        -24    2    5    5    0    0 -0.19289537417E+02  0.14780886530E+02  0.51455023983E+02  0.95979995158E+02  0.77291520344E+02 0.  0.
          5    1    3    3  501    0 -0.12787498538E+00  0.43662646749E+02 -0.54757027291E+02  0.70191631345E+02  0.47000000000E+01 0. -1.
        -11    1    4    4    0    0 -0.16123921153E+02 -0.82009352040E+02 -0.37185759034E+02  0.91478387231E+02  0.00000000000E+00 0.  1.
         12    1    4    4    0    0 -0.67754433472E+02 -0.30068750466E+02 -0.70285995407E+02  0.10215142760E+03  0.00000000000E+00 0. -1.
         -5    1    5    5    0  502  0.10329576703E+03  0.53634569227E+02  0.47828229416E+01  0.11658322305E+03  0.47000000000E+01 0.  1.
         13    1    6    6    0    0 -0.18111664174E+02  0.43181375550E+02  0.13831526720E+02  0.48825963430E+02  0.00000000000E+00 0. -1.
        -14    1    6    6    0    0 -0.11778732432E+01 -0.28400489019E+02  0.37623497263E+02  0.47154031728E+02  0.00000000000E+00 0.  1.
<mgrwt>
<rscale>  2 0.20727825E+03</rscale>
<asrwt>0</asrwt>
<pdfrwt beam="1">  1       21 0.28491825E-01 0.20804706E+03</pdfrwt>
<pdfrwt beam="2">  1       21 0.44798123E-01 0.20804706E+03</pdfrwt>
<totfact> 0.55930291E+04</totfact>
</mgrwt>
</event>
<event>
12    1  0.1013215E-001  0.2123150E+03  0.7546771E-02  0.1139937E+00
         21   -1    0    0  501  502  0.00000000000E+00  0.00000000000E+00  0.63793840594E+03  0.63793840594E+03  0.00000000000E+00 0. -1.
         21   -1    0    0  502  503 -0.00000000000E+00 -0.00000000000E+00 -0.77598619751E+02  0.77598619751E+02  0.00000000000E+00 0. -1.
         -6    2    1    2    0  503 -0.12057284891E+03  0.15516804431E+02  0.17013890859E+03  0.27131369818E+03  0.17287362868E+03 0.  0.
        -24    2    3    3    0    0 -0.83988065444E+02  0.73541364652E+02  0.83558227233E+02  0.16075330585E+03  0.79983251691E+02 0.  0.
          6    2    1    2  501    0  0.12057284891E+03 -0.15516804431E+02  0.39020087761E+03  0.44422332751E+03  0.17406624229E+03 0.  0.
         24    2    5    5    0    0  0.24820731173E+00 -0.43677855008E+02  0.19614792076E+03  0.21411530026E+03  0.73915751781E+02 0.  0.
          5    1    5    5  501    0  0.12032464160E+03  0.28161050577E+02  0.19405295685E+03  0.23010802725E+03  0.47000000000E+01 0. -1.
        -13    1    6    6    0    0  0.18688391811E+02  0.10206791986E+02  0.20866741667E+02  0.29813679728E+02  0.00000000000E+00 0.  1.
         14    1    6    6    0    0 -0.18440184499E+02 -0.53884646994E+02  0.17528117909E+03  0.18430162053E+03  0.00000000000E+00 0. -1.
         -5    1    3    3    0  503 -0.36584783463E+02 -0.58024560221E+02  0.86580681353E+02  0.11056039234E+03  0.47000000000E+01 0.  1.
         13    1    4    4    0    0 -0.17197246609E+02  0.43120208035E+02 -0.38930103265E+01  0.46585976015E+02  0.00000000000E+00 0. -1.
        -14    1    4    4    0    0 -0.66790818835E+02  0.30421156617E+02  0.87451237559E+02  0.11416732983E+03  0.00000000000E+00 0.  1.
<mgrwt>
<rscale>  2 0.21207037E+03</rscale>
<asrwt>0</asrwt>
<pdfrwt beam="1">  1       21 0.98144367E-01 0.21231495E+03</pdfrwt>
<pdfrwt beam="2">  1       21 0.11938250E-01 0.21231495E+03</pdfrwt>
<totfact> 0.50322069E+04</totfact>
</mgrwt>
</event>
<event>
12    1  0.1013215E-001  0.2755921E+03  0.7546771E-02  0.1098156E+00
         21   -1    0    0  501  502  0.00000000000E+00  0.00000000000E+00  0.35640382998E+03  0.35640382998E+03  0.00000000000E+00 0.  1.
         21   -1    0    0  502  503 -0.00000000000E+00 -0.00000000000E+00 -0.79940194533E+03  0.79940194533E+03  0.00000000000E+00 0. -1.
         -6    2    1    2    0  503  0.18535640122E+03 -0.10627282050E+03  0.27347211739E+03  0.38824989981E+03  0.17406917550E+03 0.  0.
        -24    2    3    3    0    0  0.19595692663E+03 -0.95481008796E+02  0.28574336819E+03  0.36821223690E+03  0.80095185855E+02 0.  0.
          6    2    1    2  501    0 -0.18535640122E+03  0.10627282050E+03 -0.71647023273E+03  0.76755587550E+03  0.17367072226E+03 0.  0.
         24    2    5    5    0    0 -0.16306712919E+03  0.12187671086E+02 -0.49826966328E+03  0.52884599825E+03  0.68308158886E+02 0.  0.
          5    1    5    5  501    0 -0.22289272040E+02  0.94085149416E+02 -0.21820056945E+03  0.23870987725E+03  0.47000000000E+01 0. -1.
        -13    1    6    6    0    0 -0.13051255793E+02  0.68042250111E+01 -0.94370180005E+01  0.17483994524E+02  0.00000000000E+00 0.  1.
         14    1    6    6    0    0 -0.15001587339E+03  0.53834460751E+01 -0.48883264528E+03  0.51136200373E+03  0.00000000000E+00 0. -1.
         -5    1    3    3    0  503 -0.10600525406E+02 -0.10791811707E+02 -0.12271250802E+02  0.20037662914E+02  0.47000000000E+01 0.  1.
         11    1    4    4    0    0  0.77560527159E+02 -0.19217333716E+02  0.16243759626E+03  0.18102738458E+03  0.00000000000E+00 0. -1.
        -12    1    4    4    0    0  0.11839639947E+03 -0.76263675079E+02  0.12330577193E+03  0.18718485231E+03  0.00000000000E+00 0.  1.
<mgrwt>
<rscale>  2 0.27552917E+03</rscale>
<asrwt>0</asrwt>
<pdfrwt beam="1">  1       21 0.54831359E-01 0.27559206E+03</pdfrwt>
<pdfrwt beam="2">  1       21 0.12298491E+00 0.27559206E+03</pdfrwt>
<totfact> 0.14571568E+03</totfact>
</mgrwt>
</event>
<event>
12    1  0.1013215E-001  0.2018132E+03  0.7546771E-02  0.1148503E+00
         21   -1    0    0  501  502  0.00000000000E+00  0.00000000000E+00  0.14801294607E+03  0.14801294607E+03  0.00000000000E+00 0. -1.
         21   -1    0    0  502  503 -0.00000000000E+00 -0.00000000000E+00 -0.53739066811E+03  0.53739066811E+03  0.00000000000E+00 0. -1.
         -6    2    1    2    0  503 -0.98558112518E+02 -0.16217826018E+02 -0.43458701419E+03  0.47858864113E+03  0.17379440465E+03 0.  0.
        -24    2    3    3    0    0 -0.13417285041E+03 -0.30773560174E+02 -0.30837414876E+03  0.34655812817E+03  0.77836718731E+02 0.  0.
          6    2    1    2  501    0  0.98558112518E+02  0.16217826018E+02  0.45209292151E+02  0.20681497305E+03  0.17536200717E+03 0.  0.
         24    2    5    5    0    0  0.13594465271E+03  0.11699841564E+02  0.54265971577E+02  0.16779857889E+03  0.81201801166E+02 0.  0.
          5    1    5    5  501    0 -0.37386540194E+02  0.45179844539E+01 -0.90566794257E+01  0.39016394162E+02  0.47000000000E+01 0. -1.
        -11    1    6    6    0    0  0.43308250406E+02  0.20223720441E+02 -0.16872589992E+02  0.50688141757E+02  0.00000000000E+00 0.  1.
         12    1    6    6    0    0  0.92636402306E+02 -0.85238788770E+01  0.71138561569E+02  0.11711043713E+03  0.00000000000E+00 0. -1.
         -5    1    3    3    0  503  0.35614737894E+02  0.14555734156E+02 -0.12621286543E+03  0.13203051296E+03  0.47000000000E+01 0.  1.
         11    1    4    4    0    0 -0.25499639503E+02 -0.91397876923E+01 -0.15497737307E+03  0.15732690011E+03  0.00000000000E+00 0. -1.
        -12    1    4    4    0    0 -0.10867321091E+03 -0.21633772482E+02 -0.15339677569E+03  0.18923122806E+03  0.00000000000E+00 0.  1.
<mgrwt>
<rscale>  2 0.20147214E+03</rscale>
<asrwt>0</asrwt>
<pdfrwt beam="1">  1       21 0.22771222E-01 0.20181316E+03</pdfrwt>
<pdfrwt beam="2">  1       21 0.82675489E-01 0.20181316E+03</pdfrwt>
<totfact> 0.22963092E+04</totfact>
</mgrwt>
</event>
<event>
12    1  0.1013215E-001  0.4936758E+03  0.7546771E-02  0.1015497E+00
         21   -1    0    0  503  502  0.00000000000E+00  0.00000000000E+00  0.52331159717E+03  0.52331159717E+03  0.00000000000E+00 0. -1.
         21   -1    0    0  501  503 -0.00000000000E+00 -0.00000000000E+00 -0.60492523594E+03  0.60492523594E+03  0.00000000000E+00 0. -1.
          6    2    1    2  501    0 -0.45621032473E+03 -0.75267857784E+02  0.23057610826E+03  0.54413220076E+03  0.17064993229E+03 0.  0.
         24    2    3    3    0    0 -0.35445309805E+03 -0.46231698330E+01  0.20479943524E+03  0.41751572478E+03  0.81964622511E+02 0.  0.
         -6    2    1    2    0  502  0.45621032473E+03  0.75267857784E+02 -0.31218974703E+03  0.58410463235E+03  0.17298171168E+03 0.  0.
        -24    2    5    5    0    0  0.99151216281E+02  0.29511838065E+02 -0.11277551604E+03  0.17255518722E+03  0.79718651153E+02 0.  0.
          5    1    3    3  501    0 -0.10175722668E+03 -0.70644687951E+02  0.25776673020E+02  0.12661647598E+03  0.47000000000E+01 0. -1.
        -13    1    4    4    0    0 -0.69358090061E+02  0.27990721586E+02  0.24886576240E+02  0.78824912488E+02  0.00000000000E+00 0.  1.
         14    1    4    4    0    0 -0.28509500799E+03 -0.32613891419E+02  0.17991285900E+03  0.33869081229E+03  0.00000000000E+00 0. -1.
         -5    1    5    5    0  502  0.35705910845E+03  0.45756019719E+02 -0.19941423099E+03  0.41154944513E+03  0.47000000000E+01 0.  1.
         13    1    6    6    0    0  0.63917646454E+02  0.57165570320E+02 -0.71567541929E+02  0.11169279751E+03  0.00000000000E+00 0. -1.
        -14    1    6    6    0    0  0.35233569827E+02 -0.27653732255E+02 -0.41207974112E+02  0.60862389706E+02  0.00000000000E+00 0.  1.
<mgrwt>
<rscale>  2 0.49347261E+03</rscale>
<asrwt>0</asrwt>
<pdfrwt beam="1">  1       21 0.80509477E-01 0.49367579E+03</pdfrwt>
<pdfrwt beam="2">  1       21 0.93065421E-01 0.49367579E+03</pdfrwt>
<totfact> 0.11044946E+03</totfact>
</mgrwt>
</event>
<event>
12    1  0.1013215E-001  0.1733463E+03  0.7546771E-02  0.1174659E+00
         21   -1    0    0  503  502  0.00000000000E+00  0.00000000000E+00  0.33088473355E+03  0.33088473355E+03  0.00000000000E+00 0. -1.
         21   -1    0    0  501  503 -0.00000000000E+00 -0.00000000000E+00 -0.12219191975E+03  0.12219191975E+03  0.00000000000E+00 0. -1.
          6    2    1    2  501    0 -0.79684048522E+00  0.13533685008E+02 -0.11185909061E+02  0.17370687674E+03  0.17281538960E+03 0.  0.
         24    2    3    3    0    0 -0.48771948535E+02 -0.26026008854E+02  0.25878180560E+02  0.10116435741E+03  0.80675218508E+02 0.  0.
         -6    2    1    2    0  502  0.79684048522E+00 -0.13533685008E+02  0.21987872286E+03  0.27936977656E+03  0.17180519115E+03 0.  0.
        -24    2    5    5    0    0 -0.35595603504E+02  0.45460406799E+02  0.98485536908E+02  0.13950159418E+03  0.80172303340E+02 0.  0.
          5    1    3    3  501    0  0.47975108050E+02  0.39559693862E+02 -0.37064089621E+02  0.72542519327E+02  0.47000000000E+01 0. -1.
        -13    1    4    4    0    0 -0.45894116990E+02  0.21100235885E+02  0.11433039273E+02  0.51790002083E+02  0.00000000000E+00 0.  1.
         14    1    4    4    0    0 -0.28778315446E+01 -0.47126244739E+02  0.14445141287E+02  0.49374355332E+02  0.00000000000E+00 0. -1.
         -5    1    5    5    0  502  0.36392443989E+02 -0.58994091808E+02  0.12139318595E+03  0.13986818238E+03  0.47000000000E+01 0.  1.
         11    1    6    6    0    0 -0.43384478592E+02  0.13806162522E+01  0.80110418646E+02  0.91114204488E+02  0.00000000000E+00 0. -1.
        -12    1    6    6    0    0  0.77888750876E+01  0.44079790547E+02  0.18375118262E+02  0.48387389690E+02  0.00000000000E+00 0.  1.
<mgrwt>
<rscale>  2 0.17309402E+03</rscale>
<asrwt>0</asrwt>
<pdfrwt beam="1">  1       21 0.50905344E-01 0.17334634E+03</pdfrwt>
<pdfrwt beam="2">  1       21 0.18798757E-01 0.17334634E+03</pdfrwt>
<totfact> 0.95801195E+04</totfact>
</mgrwt>
</event>
<event>
12    1  0.1013215E-001  0.2014793E+03  0.7546771E-02  0.1148522E+00
         21   -1    0    0  501  502  0.00000000000E+00  0.00000000000E+00  0.10358389087E+04  0.10358389087E+04  0.00000000000E+00 0. -1.
         21   -1    0    0  502  503 -0.00000000000E+00 -0.00000000000E+00 -0.59259639681E+02  0.59259639681E+02  0.00000000000E+00 0. -1.
         -6    2    1    2    0  503  0.22796226848E+02 -0.10036402450E+03  0.16935264961E+03  0.26310773325E+03  0.17306863955E+03 0.  0.
        -24    2    3    3    0    0  0.54646293111E+02 -0.38132204095E+02  0.31122947164E+02  0.10813429414E+03  0.79272349467E+02 0.  0.
          6    2    1    2  501    0 -0.22796226848E+02  0.10036402450E+03  0.80722661937E+03  0.83199081509E+03  0.17320882193E+03 0.  0.
         24    2    5    5    0    0  0.50137667844E+02  0.42156635307E+02  0.34570666345E+03  0.36110843820E+03  0.81211078964E+02 0.  0.
          5    1    5    5  501    0 -0.72933894692E+02  0.58207389193E+02  0.46151995592E+03  0.47088237689E+03  0.47000000000E+01 0. -1.
        -11    1    6    6    0    0  0.46549353767E+02  0.65097811356E+02  0.24416808682E+03  0.25694867581E+03  0.00000000000E+00 0.  1.
         12    1    6    6    0    0  0.35883140770E+01 -0.22941176049E+02  0.10153857663E+03  0.10415976238E+03  0.00000000000E+00 0. -1.
         -5    1    3    3    0  503 -0.31850066263E+02 -0.62231820405E+02  0.13822970244E+03  0.15497343911E+03  0.47000000000E+01 0.  1.
         13    1    4    4    0    0  0.24935882093E+02  0.21671795114E+02  0.24295002873E+02  0.41008683030E+02  0.00000000000E+00 0. -1.
        -14    1    4    4    0    0  0.29710411018E+02 -0.59803999209E+02  0.68279442910E+01  0.67125611115E+02  0.00000000000E+00 0.  1.
<mgrwt>
<rscale>  2 0.20144915E+03</rscale>
<asrwt>0</asrwt>
<pdfrwt beam="1">  1       21 0.15935982E+00 0.20147928E+03</pdfrwt>
<pdfrwt beam="2">  1       21 0.91168684E-02 0.20147928E+03</pdfrwt>
<totfact> 0.24154325E+04</totfact>
</mgrwt>
</event>
<event>
12    1  0.1013215E-001  0.2382292E+03  0.7546771E-02  0.1121043E+00
         21   -1    0    0  501  502  0.00000000000E+00  0.00000000000E+00  0.14814288271E+03  0.14814288271E+03  0.00000000000E+00 0.  1.
         21   -1    0    0  502  503 -0.00000000000E+00 -0.00000000000E+00 -0.42270382384E+03  0.42270382384E+03  0.00000000000E+00 0.  1.
         -6    2    1    2    0  503  0.15523773818E+03 -0.50380883992E+02 -0.22542661947E+03  0.32797916381E+03  0.17354014607E+03 0.  0.
        -24    2    3    3    0    0  0.69669427872E+02  0.21644259081E+02 -0.50718415571E+02  0.12048313138E+03  0.81372748126E+02 0.  0.
          6    2    1    2  501    0 -0.15523773818E+03  0.50380883992E+02 -0.49134321656E+02  0.24286754273E+03  0.17301292704E+03 0.  0.
         24    2    5    5    0    0 -0.15084762346E+02 -0.15441507281E+02 -0.21671100968E+02  0.85540614590E+02  0.79884728986E+02 0.  0.
          5    1    5    5  501    0 -0.14015297584E+03  0.65822391273E+02 -0.27463220688E+02  0.15732692814E+03  0.47000000000E+01 0. -1.
        -13    1    6    6    0    0 -0.39659421093E+02 -0.18288865867E+02  0.10538581820E+02  0.44926762658E+02  0.00000000000E+00 0.  1.
         14    1    6    6    0    0  0.24574658748E+02  0.28473585860E+01 -0.32209682787E+02  0.40613851932E+02  0.00000000000E+00 0. -1.
         -5    1    3    3    0  503  0.85568310310E+02 -0.72025143073E+02 -0.17470820390E+03  0.20749603243E+03  0.47000000000E+01 0.  1.
         11    1    4    4    0    0  0.14644271261E+02 -0.10775608763E+02  0.18750620239E+02  0.26118081559E+02  0.00000000000E+00 0. -1.
        -12    1    4    4    0    0  0.55025156611E+02  0.32419867843E+02 -0.69469035810E+02  0.94365049819E+02  0.00000000000E+00 0.  1.
<mgrwt>
<rscale>  2 0.23813324E+03</rscale>
<asrwt>0</asrwt>
<pdfrwt beam="1">  1       21 0.22791213E-01 0.23822924E+03</pdfrwt>
<pdfrwt beam="2">  1       21 0.65031356E-01 0.23822924E+03</pdfrwt>
<totfact> 0.38447287E+04</totfact>
</mgrwt>
</event>
<event>
12    1  0.1013215E-001  0.1786681E+03  0.7546771E-02  0.1169293E+00
         21   -1    0    0  503  502  0.00000000000E+00  0.00000000000E+00  0.19874622122E+03  0.19874622122E+03  0.00000000000E+00 0. -1.
         21   -1    0    0  501  503 -0.00000000000E+00 -0.00000000000E+00 -0.25142062872E+03  0.25142062872E+03  0.00000000000E+00 0. -1.
          6    2    1    2  501    0  0.40395382482E+02  0.12146445838E+02 -0.16217276412E+03  0.24129297245E+03  0.17361730921E+03 0.  0.
         24    2    3    3    0    0 -0.10553899475E+02  0.18827726678E+02 -0.17136906462E+03  0.18887989403E+03  0.76435528236E+02 0.  0.
         -6    2    1    2    0  502 -0.40395382482E+02 -0.12146445838E+02  0.10949835663E+03  0.20887387750E+03  0.17279781111E+03 0.  0.
        -24    2    5    5    0    0 -0.16894212795E+02  0.39138559878E+02  0.61618242773E+01  0.91047795047E+02  0.80215282890E+02 0.  0.
          5    1    3    3  501    0  0.50949281957E+02 -0.66812808405E+01  0.91963004953E+01  0.52413078410E+02  0.47000000000E+01 0. -1.
        -11    1    4    4    0    0 -0.34001538811E+02 -0.13051981735E+02 -0.54997850610E+02  0.65963796438E+02  0.00000000000E+00 0.  1.
         12    1    4    4    0    0  0.23447639336E+02  0.31879708413E+02 -0.11637121401E+03  0.12291609760E+03  0.00000000000E+00 0. -1.
         -5    1    5    5    0  502 -0.23501169687E+02 -0.51285005715E+02  0.10333653235E+03  0.11782608245E+03  0.47000000000E+01 0.  1.
         13    1    6    6    0    0  0.10511019123E+02  0.30088111111E+02 -0.30686057275E+02  0.44242627231E+02  0.00000000000E+00 0. -1.
        -14    1    6    6    0    0 -0.27405231918E+02  0.90504487672E+01  0.36847881552E+02  0.46805167816E+02  0.00000000000E+00 0.  1.
<mgrwt>
<rscale>  2 0.17846872E+03</rscale>
<asrwt>0</asrwt>
<pdfrwt beam="1">  1       21 0.30576342E-01 0.17866811E+03</pdfrwt>
<pdfrwt beam="2">  1       21 0.38680097E-01 0.17866811E+03</pdfrwt>
<totfact> 0.66575975E+04</totfact>
</mgrwt>
</event>
<event>
12    1  0.1013215E-001  0.1805801E+03  0.7546771E-02  0.1167363E+00
         21   -1    0    0  503  502  0.00000000000E+00  0.00000000000E+00  0.39589579761E+03  0.39589579761E+03  0.00000000000E+00 0.  1.
         21   -1    0    0  501  503 -0.00000000000E+00 -0.00000000000E+00 -0.12839342537E+03  0.12839342537E+03  0.00000000000E+00 0.  1.
          6    2    1    2  501    0 -0.36624576808E+02  0.22836607992E+02 -0.23705308351E+02  0.18163621975E+03  0.17483393375E+03 0.  0.
         24    2    3    3    0    0  0.40989315071E+02 -0.28787502913E+01  0.14311699147E+02  0.91344588229E+02  0.80315614379E+02 0.  0.
         -6    2    1    2    0  502  0.36624576808E+02 -0.22836607992E+02  0.29120768059E+03  0.34265300323E+03  0.17534622065E+03 0.  0.
        -24    2    5    5    0    0 -0.83081924901E+01 -0.56505412416E+02  0.26131917342E+03  0.27887248106E+03  0.78868641406E+02 0.  0.
          5    1    3    3  501    0 -0.77613891878E+02  0.25715358283E+02 -0.38017007498E+02  0.90291631524E+02  0.47000000000E+01 0. -1.
        -13    1    4    4    0    0  0.21267228027E+02  0.14432163496E+02 -0.30210485637E+02  0.39664288390E+02  0.00000000000E+00 0.  1.
         14    1    4    4    0    0  0.19722087044E+02 -0.17310913787E+02  0.44522184784E+02  0.51680299839E+02  0.00000000000E+00 0. -1.
         -5    1    5    5    0  502  0.44932769298E+02  0.33668804425E+02  0.29888507171E+02  0.63780522176E+02  0.47000000000E+01 0.  1.
         11    1    6    6    0    0  0.18664036482E+02 -0.27502212396E+02  0.31931230011E+02  0.46090361189E+02  0.00000000000E+00 0. -1.
        -12    1    6    6    0    0 -0.26972228972E+02 -0.29003200020E+02  0.22938794341E+03  0.23278211987E+03  0.00000000000E+00 0.  1.
<mgrwt>
<rscale>  2 0.18045561E+03</rscale>
<asrwt>0</asrwt>
<pdfrwt beam="1">  1       21 0.60907045E-01 0.18058009E+03</pdfrwt>
<pdfrwt beam="2">  1       21 0.19752835E-01 0.18058009E+03</pdfrwt>
<totfact> 0.59597884E+04</totfact>
</mgrwt>
</event>
<event>
12    1  0.1013215E-001  0.2244413E+03  0.7546771E-02  0.1130811E+00
         21   -1    0    0  503  502  0.00000000000E+00  0.00000000000E+00  0.47734877024E+03  0.47734877024E+03  0.00000000000E+00 0. -1.
         21   -1    0    0  501  503 -0.00000000000E+00 -0.00000000000E+00 -0.22230153597E+03  0.22230153597E+03  0.00000000000E+00 0. -1.
          6    2    1    2  501    0 -0.27485651838E+02  0.13882685598E+03 -0.12642238489E+03  0.25759760722E+03  0.17419974410E+03 0.  0.
         24    2    3    3    0    0 -0.18766894531E+02  0.10184859207E+03 -0.54808150268E+01  0.13074193312E+03  0.79612070092E+02 0.  0.
         -6    2    1    2    0  502  0.27485651838E+02 -0.13882685598E+03  0.38146961916E+03  0.44205269899E+03  0.17280961011E+03 0.  0.
        -24    2    5    5    0    0 -0.89109253804E+01 -0.15870204643E+03  0.27652260722E+03  0.32911156679E+03  0.81141400998E+02 0.  0.
          5    1    3    3  501    0 -0.87187573076E+01  0.36978263905E+02 -0.12094156986E+03  0.12685567410E+03  0.47000000000E+01 0. -1.
        -11    1    4    4    0    0  0.30494363418E+02  0.28660878067E+02  0.38603257983E+01  0.42026827707E+02  0.00000000000E+00 0.  1.
         12    1    4    4    0    0 -0.49261257948E+02  0.73187714007E+02 -0.93411408251E+01  0.88715105411E+02  0.00000000000E+00 0. -1.
         -5    1    5    5    0  502  0.36396577218E+02  0.19875190456E+02  0.10494701194E+03  0.11294113221E+03  0.47000000000E+01 0.  1.
         13    1    6    6    0    0 -0.92042115125E+00 -0.72865901602E+02  0.54672953083E+02  0.91101144834E+02  0.00000000000E+00 0. -1.
        -14    1    6    6    0    0 -0.79905042291E+01 -0.85836144833E+02  0.22184965413E+03  0.23801042195E+03  0.00000000000E+00 0.  1.
<mgrwt>
<rscale>  2 0.22417153E+03</rscale>
<asrwt>0</asrwt>
<pdfrwt beam="1">  1       21 0.73438272E-01 0.22444132E+03</pdfrwt>
<pdfrwt beam="2">  1       21 0.34200237E-01 0.22444132E+03</pdfrwt>
<totfact> 0.13455680E+04</totfact>
</mgrwt>
</event>
<event>
11    1  0.1013215E-001  0.2728104E+03  0.7546771E-02  0.1099879E+00
         21   -1    0    0  501  502  0.00000000000E+00  0.00000000000E+00  0.34191284009E+03  0.34191284009E+03  0.00000000000E+00 0. -1.
         21   -1    0    0  502  503 -0.00000000000E+00 -0.00000000000E+00 -0.21704499887E+03  0.21704499887E+03  0.00000000000E+00 0.  1.
         -6    2    1    2    0  503 -0.87879212640E+02 -0.19052091924E+03  0.49133154446E+02  0.27583019334E+03  0.17218377395E+03 0.  0.
        -24    2    3    3    0    0 -0.83762045715E+02 -0.21524323936E+03  0.36505983716E+02  0.24737532353E+03  0.80722558498E+02 0.  0.
          6    2    1    2  501    0  0.87879212640E+02  0.19052091924E+03  0.75734686768E+02  0.28312764562E+03  0.17436898879E+03 0.  0.
          5    1    5    5  501    0 -0.17278780246E+02  0.66635696512E+02  0.12675307767E+02  0.70154299394E+02  0.47000000000E+01 0. -1.
        -11    1    5    5    0    0  0.65517937290E+02  0.81412640022E+02 -0.25023770042E+02  0.10745607069E+03  0.00000000000E+00 0.  1.
         12    1    5    5    0    0  0.39640055596E+02  0.42472582705E+02  0.88083149043E+02  0.10551727553E+03  0.00000000000E+00 0. -1.
         -5    1    3    3    0  503 -0.41171669251E+01  0.24722320118E+02  0.12627170730E+02  0.28454869815E+02  0.47000000000E+01 0.  1.
         13    1    4    4    0    0  0.16018204861E+02 -0.33665796941E+02  0.91633020437E+01  0.38391859489E+02  0.00000000000E+00 0. -1.
        -14    1    4    4    0    0 -0.99780250576E+02 -0.18157744242E+03  0.27342681673E+02  0.20898346404E+03  0.00000000000E+00 0.  1.
<mgrwt>
<rscale>  2 0.27246187E+03</rscale>
<asrwt>0</asrwt>
<pdfrwt beam="1">  1       21 0.52601975E-01 0.27281041E+03</pdfrwt>
<pdfrwt beam="2">  1       21 0.33391538E-01 0.27281041E+03</pdfrwt>
<totfact> 0.28471789E+04</totfact>
</mgrwt>
</event>
<event>
12    1  0.1013215E-001  0.2237886E+03  0.7546771E-02  0.1131413E+00
         21   -1    0    0  501  502  0.00000000000E+00  0.00000000000E+00  0.10631723295E+04  0.10631723295E+04  0.00000000000E+00 0. -1.
         21   -1    0    0  502  503 -0.00000000000E+00 -0.00000000000E+00 -0.61423142700E+02  0.61423142700E+02  0.00000000000E+00 0.  1.
         -6    2    1    2    0  503 -0.10058970133E+03  0.10091433473E+03  0.77735016994E+03  0.80892188669E+03  0.17256691772E+03 0.  0.
        -24    2    3    3    0    0 -0.24879347201E+02  0.10607851632E+03  0.36408214816E+03  0.38871803816E+03  0.81696199665E+02 0.  0.
          6    2    1    2  501    0  0.10058970133E+03 -0.10091433473E+03  0.22439901685E+03  0.31567358550E+03  0.17027302444E+03 0.  0.
         24    2    5    5    0    0  0.31026818839E+02 -0.12042230705E+03  0.16671553649E+03  0.22310453284E+03  0.80730210858E+02 0.  0.
          5    1    5    5  501    0  0.69562882486E+02  0.19507972313E+02  0.57683480354E+02  0.92569052654E+02  0.47000000000E+01 0. -1.
        -13    1    6    6    0    0 -0.11814153656E+02 -0.71868039713E+01 -0.34620794059E+01  0.14255187538E+02  0.00000000000E+00 0.  1.
         14    1    6    6    0    0  0.42840972496E+02 -0.11323550308E+03  0.17017761590E+03  0.20884934530E+03  0.00000000000E+00 0. -1.
         -5    1    3    3    0  503 -0.75710354124E+02 -0.51641815882E+01  0.41326802178E+03  0.42020384853E+03  0.47000000000E+01 0.  1.
         11    1    4    4    0    0  0.42314624214E+01  0.51577436086E+02  0.27788434268E+03  0.28266206872E+03  0.00000000000E+00 0. -1.
        -12    1    4    4    0    0 -0.29110809623E+02  0.54501080236E+02  0.86197805478E+02  0.10605596944E+03  0.00000000000E+00 0.  1.
<mgrwt>
<rscale>  2 0.22334626E+03</rscale>
<asrwt>0</asrwt>
<pdfrwt beam="1">  1       21 0.16356496E+00 0.22378859E+03</pdfrwt>
<pdfrwt beam="2">  1       21 0.94497150E-02 0.22378859E+03</pdfrwt>
<totfact> 0.20826327E+04</totfact>
</mgrwt>
</event>
<event>
12    1  0.1013215E-001  0.2382733E+03  0.7546771E-02  0.1121220E+00
         21   -1    0    0  503  502  0.00000000000E+00  0.00000000000E+00  0.26889698019E+03  0.26889698019E+03  0.00000000000E+00 0. -1.
         21   -1    0    0  501  503 -0.00000000000E+00 -0.00000000000E+00 -0.28116449224E+03  0.28116449224E+03  0.00000000000E+00 0.  1.
          6    2    1    2  501    0 -0.93033764452E+02  0.13402756690E+03 -0.14479242668E+03  0.27881716967E+03  0.17365338253E+03 0.  0.
         24    2    3    3    0    0 -0.12585309228E+03  0.83102424913E+02 -0.13436427993E+03  0.21716236767E+03  0.79754124332E+02 0.  0.
         -6    2    1    2    0  502  0.93033764452E+02 -0.13402756690E+03  0.13252491463E+03  0.27124430276E+03  0.17144080251E+03 0.  0.
        -24    2    5    5    0    0  0.42089103285E+02  0.13323522051E+02  0.26535768357E+02  0.82661453479E+02  0.64651063671E+02 0.  0.
          5    1    3    3  501    0  0.32819327825E+02  0.50925141986E+02 -0.10428146744E+02  0.61654802000E+02  0.47000000000E+01 0. -1.
        -11    1    4    4    0    0 -0.73689171050E+02  0.51085740172E+02 -0.12707427503E+03  0.15552401150E+03  0.00000000000E+00 0.  1.
         12    1    4    4    0    0 -0.52163921227E+02  0.32016684741E+02 -0.72900049014E+01  0.61638356168E+02  0.00000000000E+00 0. -1.
         -5    1    5    5    0  502  0.50944661167E+02 -0.14735108895E+03  0.10598914627E+03  0.18858284928E+03  0.47000000000E+01 0.  1.
         13    1    6    6    0    0 -0.11295009540E+02 -0.14251652569E+02  0.54563618320E+01  0.18985750602E+02  0.00000000000E+00 0. -1.
        -14    1    6    6    0    0  0.53384112825E+02  0.27575174621E+02  0.21079406525E+02  0.63675702877E+02  0.00000000000E+00 0.  1.
<mgrwt>
<rscale>  2 0.23787036E+03</rscale>
<asrwt>0</asrwt>
<pdfrwt beam="1">  1       21 0.41368766E-01 0.23827330E+03</pdfrwt>
<pdfrwt beam="2">  1       21 0.43256076E-01 0.23827330E+03</pdfrwt>
<totfact> 0.28233659E+04</totfact>
</mgrwt>
</event>
<event>
12    1  0.1013215E-001  0.1951338E+03  0.7546771E-02  0.1154989E+00
         21   -1    0    0  501  502  0.00000000000E+00  0.00000000000E+00  0.87528036556E+03  0.87528036556E+03  0.00000000000E+00 0. -1.
         21   -1    0    0  502  503 -0.00000000000E+00 -0.00000000000E+00 -0.58393574560E+02  0.58393574560E+02  0.00000000000E+00 0. -1.
         -6    2    1    2    0  503  0.72742069811E+02  0.27128621065E+02  0.16805813778E+03  0.25752813352E+03  0.17902466612E+03 0.  0.
        -24    2    3    3    0    0 -0.87910824068E+01 -0.26156540441E+00  0.14833849055E+03  0.16916053928E+03  0.80830864920E+02 0.  0.
          6    2    1    2  501    0 -0.72742069811E+02 -0.27128621065E+02  0.64882865322E+03  0.67614580660E+03  0.17368695904E+03 0.  0.
         24    2    5    5    0    0 -0.10240730922E+03  0.80671857999E+00  0.33634486724E+03  0.36098137947E+03  0.81803293485E+02 0.  0.
          5    1    5    5  501    0  0.29665239412E+02 -0.27935339645E+02  0.31248378598E+03  0.31516442713E+03  0.47000000000E+01 0. -1.
        -11    1    6    6    0    0 -0.14309957132E+02  0.33583427570E+02  0.79628250721E+02  0.87597259051E+02  0.00000000000E+00 0.  1.
         12    1    6    6    0    0 -0.88097352091E+02 -0.32776708990E+02  0.25671661652E+03  0.27338412041E+03  0.00000000000E+00 0. -1.
         -5    1    3    3    0  503  0.81533152218E+02  0.27390186469E+02  0.19719647229E+02  0.88367594243E+02  0.47000000000E+01 0.  1.
         11    1    4    4    0    0  0.92117822512E+01  0.31771884985E+02  0.28008398447E+02  0.43344895794E+02  0.00000000000E+00 0. -1.
        -12    1    4    4    0    0 -0.18002864658E+02 -0.32033450390E+02  0.12033009211E+03  0.12581564349E+03  0.00000000000E+00 0.  1.
<mgrwt>
<rscale>  2 0.19390087E+03</rscale>
<asrwt>0</asrwt>
<pdfrwt beam="1">  1       21 0.13465851E+00 0.19513381E+03</pdfrwt>
<pdfrwt beam="2">  1       21 0.89836275E-02 0.19513381E+03</pdfrwt>
<totfact> 0.38690372E+04</totfact>
</mgrwt>
</event>
<event>
12    1  0.1013215E-001  0.1791775E+03  0.7546771E-02  0.1168869E+00
         21   -1    0    0  501  502  0.00000000000E+00  0.00000000000E+00  0.83055755049E+02  0.83055755049E+02  0.00000000000E+00 0.  1.
         21   -1    0    0  502  503 -0.00000000000E+00 -0.00000000000E+00 -0.47304437339E+03  0.47304437339E+03  0.00000000000E+00 0.  1.
         -6    2    1    2    0  503 -0.57993540949E+01 -0.44674273043E+02 -0.31598789617E+03  0.36325323333E+03  0.17342184931E+03 0.  0.
        -24    2    3    3    0    0  0.42337932191E+02 -0.43166575405E+02 -0.29267344569E+03  0.30953987294E+03  0.80630846420E+02 0.  0.
          6    2    1    2  501    0  0.57993540949E+01  0.44674273043E+02 -0.74000722173E+02  0.19284689511E+03  0.17229159844E+03 0.  0.
         24    2    5    5    0    0  0.50805955538E+02 -0.15095561466E+02 -0.66550846549E+02  0.11751019796E+03  0.81058684633E+02 0.  0.
          5    1    5    5  501    0 -0.45006601443E+02  0.59769834509E+02 -0.74498756242E+01  0.75336697150E+02  0.47000000000E+01 0. -1.
        -11    1    6    6    0    0  0.40637330628E+02  0.92177666398E+00 -0.82987756516E+02  0.92407846227E+02  0.00000000000E+00 0.  1.
         12    1    6    6    0    0  0.10168624910E+02 -0.16017338130E+02  0.16436909967E+02  0.25102351734E+02  0.00000000000E+00 0. -1.
         -5    1    3    3    0  503 -0.48137286286E+02 -0.15076976384E+01 -0.23314450484E+02  0.53713360391E+02  0.47000000000E+01 0.  1.
         13    1    4    4    0    0  0.52987757061E+02 -0.20264551937E+02 -0.98008007249E+02  0.11324276555E+03  0.00000000000E+00 0. -1.
        -14    1    4    4    0    0 -0.10649824869E+02 -0.22902023468E+02 -0.19466543844E+03  0.19629710739E+03  0.00000000000E+00 0.  1.
<mgrwt>
<rscale>  2 0.17890340E+03</rscale>
<asrwt>0</asrwt>
<pdfrwt beam="1">  1       21 0.12777808E-01 0.17917746E+03</pdfrwt>
<pdfrwt beam="2">  1       21 0.72776058E-01 0.17917746E+03</pdfrwt>
<totfact> 0.89628278E+04</totfact>
</mgrwt>
</event>
<event>
12    1  0.1013215E-001  0.1827448E+03  0.7546771E-02  0.1165329E+00
         21   -1    0    0  501  502  0.00000000000E+00  0.00000000000E+00  0.21695753886E+04  0.21695753886E+04  0.00000000000E+00 0.  1.
         21   -1    0    0  502  503 -0.00000000000E+00 -0.00000000000E+00 -0.47704672311E+02  0.47704672311E+02  0.00000000000E+00 0.  1.
         -6    2    1    2    0  503 -0.42638362185E+02 -0.47210293347E+02  0.14835648392E+03  0.23538332184E+03  0.17131497352E+03 0.  0.
        -24    2    3    3    0    0  0.23635903475E+02 -0.45797021400E+02  0.32687852545E+02  0.10198317975E+03  0.81707099724E+02 0.  0.
          6    2    1    2  501    0  0.42638362185E+02  0.47210293347E+02  0.19735142323E+04  0.19818967390E+04  0.17061482129E+03 0.  0.
         24    2    5    5    0    0  0.49673969814E-01 -0.97230846923E+01  0.14152334511E+04  0.14190870673E+04  0.10405692015E+03 0.  0.
          5    1    5    5  501    0  0.42588688215E+02  0.56933378039E+02  0.55828078127E+03  0.56280967176E+03  0.47000000000E+01 0. -1.
        -11    1    6    6    0    0  0.26555175424E+02  0.10402778019E+02  0.11695666285E+03  0.12038378677E+03  0.00000000000E+00 0.  1.
         12    1    6    6    0    0 -0.26505501455E+02 -0.20125862711E+02  0.12982767882E+04  0.12987032805E+04  0.00000000000E+00 0. -1.
         -5    1    3    3    0  503 -0.66274265660E+02 -0.14132719470E+01  0.11566863137E+03  0.13340014209E+03  0.47000000000E+01 0.  1.
         13    1    4    4    0    0  0.41423370012E+01 -0.54180852309E+02  0.50572671774E+02  0.74231521897E+02  0.00000000000E+00 0. -1.
        -14    1    4    4    0    0  0.19493566474E+02  0.83838309093E+01 -0.17884819230E+02  0.27751657851E+02  0.00000000000E+00 0.  1.
<mgrwt>
<rscale>  2 0.18258053E+03</rscale>
<asrwt>0</asrwt>
<pdfrwt beam="1">  1       21 0.33378075E+00 0.18274480E+03</pdfrwt>
<pdfrwt beam="2">  1       21 0.73391820E-02 0.18274480E+03</pdfrwt>
<totfact> 0.30745026E+03</totfact>
</mgrwt>
</event>
<event>
12    1  0.1013215E-001  0.2574348E+03  0.7546771E-02  0.1108748E+00
         21   -1    0    0  501  502  0.00000000000E+00  0.00000000000E+00  0.48639368695E+03  0.48639368695E+03  0.00000000000E+00 0. -1.
         21   -1    0    0  502  503 -0.00000000000E+00 -0.00000000000E+00 -0.15261497304E+03  0.15261497304E+03  0.00000000000E+00 0. -1.
         -6    2    1    2    0  503 -0.18302790532E+03 -0.52649178347E+02  0.61572467652E+02  0.26435023928E+03  0.17268100685E+03 0.  0.
        -24    2    3    3    0    0 -0.19457924599E+03 -0.60089171738E+02  0.86233150267E+02  0.23573160479E+03  0.81617655954E+02 0.  0.
          6    2    1    2  501    0  0.18302790532E+03  0.52649178347E+02  0.27220624626E+03  0.37465842071E+03  0.17320953091E+03 0.  0.
         24    2    5    5    0    0  0.68921429279E+02  0.18675218067E+02  0.75572984299E+02  0.14474268057E+03  0.10069876087E+03 0.  0.
          5    1    5    5  501    0  0.11410647604E+03  0.33973960281E+02  0.19663326196E+03  0.22991574014E+03  0.47000000000E+01 0. -1.
        -13    1    6    6    0    0  0.33479688610E+02 -0.41083338151E+02  0.41762080580E+02  0.67474451442E+02  0.00000000000E+00 0.  1.
         14    1    6    6    0    0  0.35441740670E+02  0.59758556218E+02  0.33810903719E+02  0.77268229133E+02  0.00000000000E+00 0. -1.
         -5    1    3    3    0  503  0.11551340665E+02  0.74399933908E+01 -0.24660682615E+02  0.28618634486E+02  0.47000000000E+01 0.  1.
         13    1    4    4    0    0 -0.11316646656E+03 -0.24460466680E+02  0.58895266347E+01  0.11592950491E+03  0.00000000000E+00 0. -1.
        -14    1    4    4    0    0 -0.81412779424E+02 -0.35628705058E+02  0.80343623632E+02  0.11980209988E+03  0.00000000000E+00 0.  1.
<mgrwt>
<rscale>  2 0.25734596E+03</rscale>
<asrwt>0</asrwt>
<pdfrwt beam="1">  1       21 0.74829797E-01 0.25743483E+03</pdfrwt>
<pdfrwt beam="2">  1       21 0.23479227E-01 0.25743483E+03</pdfrwt>
<totfact> 0.26384231E+04</totfact>
</mgrwt>
</event>
<event>
12    1  0.1013215E-001  0.2236293E+03  0.7546771E-02  0.1131308E+00
         21   -1    0    0  503  502  0.00000000000E+00  0.00000000000E+00  0.19561991562E+03  0.19561991562E+03  0.00000000000E+00 0. -1.
         21   -1    0    0  501  503 -0.00000000000E+00 -0.00000000000E+00 -0.80438433256E+03  0.80438433256E+03  0.00000000000E+00 0. -1.
          6    2    1    2  501    0  0.34601243340E+02 -0.13756894186E+03 -0.71747423051E+03  0.75135214510E+03  0.17215781918E+03 0.  0.
         24    2    3    3    0    0  0.87189851320E+02 -0.11458118727E+03 -0.54398940824E+03  0.56855971608E+03  0.81269648850E+02 0.  0.
         -6    2    1    2    0  502 -0.34601243340E+02  0.13756894186E+03  0.10870981356E+03  0.24865210308E+03  0.17288026202E+03 0.  0.
        -24    2    5    5    0    0  0.95042236753E+01  0.56925032695E+01  0.58543913268E+02  0.10074877375E+03  0.81241558143E+02 0.  0.
          5    1    3    3  501    0 -0.52588607980E+02 -0.22987754588E+02 -0.17348482226E+03  0.18279242902E+03  0.47000000000E+01 0. -1.
        -13    1    4    4    0    0  0.57601802284E+02 -0.87781315370E+02 -0.49163724713E+03  0.50272329339E+03  0.00000000000E+00 0.  1.
         14    1    4    4    0    0  0.29588049036E+02 -0.26799871898E+02 -0.52352161112E+02  0.65836422690E+02  0.00000000000E+00 0. -1.
         -5    1    5    5    0  502 -0.44105467016E+02  0.13187643859E+03  0.50165900296E+02  0.14790332933E+03  0.47000000000E+01 0.  1.
         13    1    6    6    0    0 -0.78349875199E+01  0.40560251126E+02  0.40424869358E+02  0.57798711608E+02  0.00000000000E+00 0. -1.
        -14    1    6    6    0    0  0.17339211195E+02 -0.34867747857E+02  0.18119043910E+02  0.42950062138E+02  0.00000000000E+00 0.  1.
<mgrwt>
<rscale>  2 0.22348962E+03</rscale>
<asrwt>0</asrwt>
<pdfrwt beam="1">  1       21 0.30095372E-01 0.22362926E+03</pdfrwt>
<pdfrwt beam="2">  1       21 0.12375143E+00 0.22362926E+03</pdfrwt>
<totfact> 0.50574848E+03</totfact>
</mgrwt>
</event>
<event>
12    1  0.1013215E-001  0.1892840E+03  0.7546771E-02  0.1159113E+00
         21   -1    0    0  501  502  0.00000000000E+00  0.00000000000E+00  0.37149901298E+02  0.37149901298E+02  0.00000000000E+00 0. -1.
         21   -1    0    0  502  503 -0.00000000000E+00 -0.00000000000E+00 -0.11509959674E+04  0.11509959674E+04  0.00000000000E+00 0. -1.
         -6    2    1    2    0  503 -0.21848867637E+02  0.75290197160E+02 -0.79614236072E+03  0.81832958017E+03  0.17226333460E+03 0.  0.
        -24    2    3    3    0    0  0.27916915632E+02 -0.72903930662E+01 -0.24819049692E+03  0.26193985875E+03  0.78622279471E+02 0.  0.
          6    2    1    2  501    0  0.21848867637E+02 -0.75290197160E+02 -0.31770370537E+03  0.36981628851E+03  0.17228597168E+03 0.  0.
         24    2    5    5    0    0 -0.34471122364E+02 -0.68886561496E+02 -0.28004787461E+03  0.30160339081E+03  0.81266085421E+02 0.  0.
          5    1    5    5  501    0  0.56319990001E+02 -0.64036356639E+01 -0.37655830755E+02  0.68212897705E+02  0.47000000000E+01 0. -1.
        -13    1    6    6    0    0 -0.60641862879E+02 -0.39228860100E+02 -0.17231113055E+03  0.18683539469E+03  0.00000000000E+00 0.  1.
         14    1    6    6    0    0  0.26170740515E+02 -0.29657701396E+02 -0.10773674407E+03  0.11476799612E+03  0.00000000000E+00 0. -1.
         -5    1    3    3    0  503 -0.49765783269E+02  0.82580590226E+02 -0.54795186380E+03  0.55638972143E+03  0.47000000000E+01 0.  1.
         13    1    4    4    0    0 -0.25006402540E+02 -0.69690833273E+01 -0.12811053757E+03  0.13071418487E+03  0.00000000000E+00 0. -1.
        -14    1    4    4    0    0  0.52923318172E+02 -0.32130973895E+00 -0.12007995936E+03  0.13122567388E+03  0.00000000000E+00 0.  1.
<mgrwt>
<rscale>  2 0.18927888E+03</rscale>
<asrwt>0</asrwt>
<pdfrwt beam="1">  1       21 0.57153701E-02 0.18928403E+03</pdfrwt>
<pdfrwt beam="2">  1       21 0.17707628E+00 0.18928403E+03</pdfrwt>
<totfact> 0.40910516E+04</totfact>
</mgrwt>
</event>
<event>
12    1  0.1013215E-001  0.1803634E+03  0.7546771E-02  0.1167557E+00
         21   -1    0    0  503  502  0.00000000000E+00  0.00000000000E+00  0.27975552667E+03  0.27975552667E+03  0.00000000000E+00 0. -1.
         21   -1    0    0  501  503 -0.00000000000E+00 -0.00000000000E+00 -0.11816865851E+03  0.11816865851E+03  0.00000000000E+00 0. -1.
          6    2    1    2  501    0  0.46698364740E+02  0.13212519786E+02  0.10763043670E+03  0.20966304480E+03  0.17325984388E+03 0.  0.
         24    2    3    3    0    0  0.24071090081E+02  0.66655932524E+02  0.31988332511E+02  0.11420619670E+03  0.83650291265E+02 0.  0.
         -6    2    1    2    0  502 -0.46698364740E+02 -0.13212519786E+02  0.53956431459E+02  0.18826114038E+03  0.17371140588E+03 0.  0.
        -24    2    5    5    0    0 -0.82814936363E+02 -0.47184165617E+02  0.22734867274E+02  0.12947886808E+03  0.84635949330E+02 0.  0.
          5    1    3    3  501    0  0.22627274659E+02 -0.53443412738E+02  0.75642104194E+02  0.95456848106E+02  0.47000000000E+01 0. -1.
        -13    1    4    4    0    0 -0.30762963108E+02  0.32738866589E+02  0.94737306984E+01  0.45912360624E+02  0.00000000000E+00 0.  1.
         14    1    4    4    0    0  0.54834053189E+02  0.33917065935E+02  0.22514601812E+02  0.68293836073E+02  0.00000000000E+00 0. -1.
         -5    1    5    5    0  502  0.36116571623E+02  0.33971645830E+02  0.31221564185E+02  0.58782272297E+02  0.47000000000E+01 0.  1.
         13    1    6    6    0    0 -0.55634860349E+02  0.12017756125E+02  0.29280194537E+02  0.64007764689E+02  0.00000000000E+00 0. -1.
        -14    1    6    6    0    0 -0.27180076014E+02 -0.59201921741E+02 -0.65453272634E+01  0.65471103389E+02  0.00000000000E+00 0.  1.
<mgrwt>
<rscale>  2 0.18025460E+03</rscale>
<asrwt>0</asrwt>
<pdfrwt beam="1">  1       21 0.43039312E-01 0.18036341E+03</pdfrwt>
<pdfrwt beam="2">  1       21 0.18179794E-01 0.18036341E+03</pdfrwt>
<totfact> 0.14366906E+05</totfact>
</mgrwt>
</event>
<event>
12    1  0.1013215E-001  0.3044881E+03  0.7546771E-02  0.1083597E+00
         21   -1    0    0  503  502  0.00000000000E+00  0.00000000000E+00  0.40486932121E+03  0.40486932121E+03  0.00000000000E+00 0. -1.
         21   -1    0    0  501  503 -0.00000000000E+00 -0.00000000000E+00 -0.39436536984E+03  0.39436536984E+03  0.00000000000E+00 0.  1.
          6    2    1    2  501    0 -0.16315837982E+03 -0.18938799303E+03 -0.25627132828E+03  0.39441122190E+03  0.16551963466E+03 0.  0.
         24    2    3    3    0    0 -0.18064629709E+03 -0.16836222513E+03 -0.18828180883E+03  0.32097706826E+03  0.81223859243E+02 0.  0.
         -6    2    1    2    0  502  0.16315837982E+03  0.18938799303E+03  0.26677527965E+03  0.40482346915E+03  0.17385201331E+03 0.  0.
        -24    2    5    5    0    0  0.17510775075E+03  0.20402712625E+03  0.26201903379E+03  0.38477843081E+03  0.84324813239E+02 0.  0.
          5    1    3    3  501    0  0.17487917269E+02 -0.21025767898E+02 -0.67989519455E+02  0.73434153647E+02  0.47000000000E+01 0. -1.
        -13    1    4    4    0    0  0.41938836627E+01 -0.14799556523E+02  0.49303402804E+00  0.15390211695E+02  0.00000000000E+00 0.  1.
         14    1    4    4    0    0 -0.18484018075E+03 -0.15356266861E+03 -0.18877484285E+03  0.30558685656E+03  0.00000000000E+00 0. -1.
         -5    1    5    5    0  502 -0.11949370935E+02 -0.14639133224E+02  0.47562458596E+01  0.20045038338E+02  0.47000000000E+01 0.  1.
         13    1    6    6    0    0  0.86561728831E+02  0.14409249174E+03  0.11786656164E+03  0.20530003758E+03  0.00000000000E+00 0. -1.
        -14    1    6    6    0    0  0.88546021922E+02  0.59934634509E+02  0.14415247215E+03  0.17947839323E+03  0.00000000000E+00 0.  1.
<mgrwt>
<rscale>  2 0.30331142E+03</rscale>
<asrwt>0</asrwt>
<pdfrwt beam="1">  1       21 0.62287588E-01 0.30448808E+03</pdfrwt>
<pdfrwt beam="2">  1       21 0.60671596E-01 0.30448808E+03</pdfrwt>
<totfact> 0.56461595E+03</totfact>
</mgrwt>
</event>
<event>
12    1  0.1013215E-001  0.1751759E+03  0.7546771E-02  0.1172907E+00
         21   -1    0    0  501  502  0.00000000000E+00  0.00000000000E+00  0.33766338521E+03  0.33766338521E+03  0.00000000000E+00 0.  1.
         21   -1    0    0  502  503 -0.00000000000E+00 -0.00000000000E+00 -0.92350641223E+02  0.92350641223E+02  0.00000000000E+00 0.  1.
         -6    2    1    2    0  503  0.28475925741E+01  0.31161409448E+02  0.89034392661E+02  0.19525982289E+03  0.17093897489E+03 0.  0.
        -24    2    3    3    0    0  0.58363319660E+02 -0.12830383454E+02  0.41246499475E+02  0.10968502209E+03  0.82210914918E+02 0.  0.
          6    2    1    2  501    0 -0.28475925741E+01 -0.31161409448E+02  0.15627835132E+03  0.23475420354E+03  0.17235855292E+03 0.  0.
         24    2    5    5    0    0 -0.41493011305E+01  0.28187340839E+02  0.15198689640E+03  0.17505097757E+03  0.82043190981E+02 0.  0.
          5    1    5    5  501    0  0.13017085564E+01 -0.59348750287E+02  0.42914549221E+01  0.59703225969E+02  0.47000000000E+01 0. -1.
        -13    1    6    6    0    0 -0.17955009374E+01 -0.28769293308E+02  0.64269818413E+02  0.70437955819E+02  0.00000000000E+00 0.  1.
         14    1    6    6    0    0 -0.23538001931E+01  0.56956634147E+02  0.87717077986E+02  0.10461302175E+03  0.00000000000E+00 0. -1.
         -5    1    3    3    0  503 -0.55515727086E+02  0.43991792902E+02  0.47787893186E+02  0.85574800799E+02  0.47000000000E+01 0.  1.
         11    1    4    4    0    0  0.14400486115E+02 -0.44861734566E+02  0.16450460131E+02  0.49905579519E+02  0.00000000000E+00 0. -1.
        -12    1    4    4    0    0  0.43962833545E+02  0.32031351113E+02  0.24796039344E+02  0.59779442575E+02  0.00000000000E+00 0.  1.
<mgrwt>
<rscale>  2 0.17482576E+03</rscale>
<asrwt>0</asrwt>
<pdfrwt beam="1">  1       21 0.51948212E-01 0.17517595E+03</pdfrwt>
<pdfrwt beam="2">  1       21 0.14207791E-01 0.17517595E+03</pdfrwt>
<totfact> 0.15316310E+05</totfact>
</mgrwt>
</event>
<event>
12    1  0.1013215E-001  0.2023503E+03  0.7546771E-02  0.1148052E+00
         21   -1    0    0  501  502  0.00000000000E+00  0.00000000000E+00  0.12242119663E+04  0.12242119663E+04  0.00000000000E+00 0. -1.
         21   -1    0    0  502  503 -0.00000000000E+00 -0.00000000000E+00 -0.42787465860E+02  0.42787465860E+02  0.00000000000E+00 0. -1.
         -6    2    1    2    0  503 -0.37572472346E+02 -0.97606126454E+02  0.29274860876E+03  0.35587550847E+03  0.17322523777E+03 0.  0.
        -24    2    3    3    0    0  0.31978798426E+02 -0.87193931526E+02  0.14462043847E+03  0.19183332517E+03  0.85202864854E+02 0.  0.
          6    2    1    2  501    0  0.37572472346E+02  0.97606126454E+02  0.88867589167E+03  0.91112392368E+03  0.17164881957E+03 0.  0.
         24    2    5    5    0    0 -0.42425593637E+02  0.44948214188E+02  0.37613281114E+03  0.38968836132E+03  0.80999101119E+02 0.  0.
          5    1    5    5  501    0  0.79998065983E+02  0.52657912266E+02  0.51254308054E+03  0.52143556236E+03  0.47000000000E+01 0. -1.
        -11    1    6    6    0    0 -0.13634767626E+02 -0.19324434190E+02  0.41877817817E+02  0.48094617891E+02  0.00000000000E+00 0.  1.
         12    1    6    6    0    0 -0.28790826011E+02  0.64272648378E+02  0.33425499332E+03  0.34159374343E+03  0.00000000000E+00 0. -1.
         -5    1    3    3    0  503 -0.69551270771E+02 -0.10412194928E+02  0.14812817028E+03  0.16404218330E+03  0.47000000000E+01 0.  1.
         11    1    4    4    0    0 -0.20466415313E+02 -0.79432430158E+01  0.62470187619E+02  0.66215508806E+02  0.00000000000E+00 0. -1.
        -12    1    4    4    0    0  0.52445213739E+02 -0.79250688510E+02  0.82150250855E+02  0.12561781637E+03  0.00000000000E+00 0.  1.
<mgrwt>
<rscale>  2 0.20201245E+03</rscale>
<asrwt>0</asrwt>
<pdfrwt beam="1">  1       21 0.18834028E+00 0.20235026E+03</pdfrwt>
<pdfrwt beam="2">  1       21 0.65826880E-02 0.20235026E+03</pdfrwt>
<totfact> 0.26718342E+04</totfact>
</mgrwt>
</event>
<event>
12    1  0.1013215E-001  0.1766839E+03  0.7546771E-02  0.1172161E+00
         21   -1    0    0  503  502  0.00000000000E+00  0.00000000000E+00  0.58888883783E+03  0.58888883783E+03  0.00000000000E+00 0. -1.
         21   -1    0    0  501  503 -0.00000000000E+00 -0.00000000000E+00 -0.68381536280E+02  0.68381536280E+02  0.00000000000E+00 0. -1.
          6    2    1    2  501    0  0.33909498934E+02  0.16847351128E+02  0.95424717124E+02  0.19693094780E+03  0.16805425971E+03 0.  0.
         24    2    3    3    0    0  0.48923318651E+02 -0.44102390773E+02  0.35069815593E+02  0.10972378090E+03  0.80441930297E+02 0.  0.
         -6    2    1    2    0  502 -0.33909498934E+02 -0.16847351128E+02  0.42508258443E+03  0.46033942631E+03  0.17257895721E+03 0.  0.
        -24    2    5    5    0    0 -0.58145004271E+02 -0.56379719885E+02  0.19869247865E+03  0.22920150667E+03  0.80592277876E+02 0.  0.
          5    1    3    3  501    0 -0.15013819716E+02  0.60949741901E+02  0.60354901531E+02  0.87207166902E+02  0.47000000000E+01 0. -1.
        -11    1    4    4    0    0  0.15244347275E+02  0.75370128444E+01  0.44238273567E+02  0.47394319646E+02  0.00000000000E+00 0.  1.
         12    1    4    4    0    0  0.33678971375E+02 -0.51639403618E+02 -0.91684579738E+01  0.62329461257E+02  0.00000000000E+00 0. -1.
         -5    1    5    5    0  502  0.24235505337E+02  0.39532368757E+02  0.22639010578E+03  0.23113791963E+03  0.47000000000E+01 0.  1.
         13    1    6    6    0    0  0.10178231639E+02 -0.42000651635E+02  0.92708866668E+02  0.10228677870E+03  0.00000000000E+00 0. -1.
        -14    1    6    6    0    0 -0.68323235910E+02 -0.14379068250E+02  0.10598361198E+03  0.12691472798E+03  0.00000000000E+00 0.  1.
<mgrwt>
<rscale>  2 0.17556914E+03</rscale>
<asrwt>0</asrwt>
<pdfrwt beam="1">  1       21 0.90598279E-01 0.17668385E+03</pdfrwt>
<pdfrwt beam="2">  1       21 0.10520237E-01 0.17668385E+03</pdfrwt>
<totfact> 0.77284179E+04</totfact>
</mgrwt>
</event>
<event>
12    1  0.1013215E-001  0.1816419E+03  0.7546771E-02  0.1166704E+00
         21   -1    0    0  501  502  0.00000000000E+00  0.00000000000E+00  0.40466549275E+02  0.40466549275E+02  0.00000000000E+00 0.  1.
         21   -1    0    0  502  503 -0.00000000000E+00 -0.00000000000E+00 -0.11732125268E+04  0.11732125268E+04  0.00000000000E+00 0.  1.
         -6    2    1    2    0  503  0.40330201508E+02  0.28356697014E+02 -0.90785027589E+03  0.92584334985E+03  0.17482321815E+03 0.  0.
        -24    2    3    3    0    0 -0.11372248063E+02 -0.36979639344E+01 -0.78012775988E+03  0.78429556401E+03  0.79857416844E+02 0.  0.
          6    2    1    2  501    0 -0.40330201508E+02 -0.28356697014E+02 -0.22489570163E+03  0.28783572622E+03  0.17274461282E+03 0.  0.
         24    2    5    5    0    0  0.97936915955E+01 -0.39722159145E+02 -0.44333338855E+02  0.10004212878E+03  0.79807369802E+02 0.  0.
          5    1    5    5  501    0 -0.50123893104E+02  0.11365462131E+02 -0.18056236277E+03  0.18779359744E+03  0.47000000000E+01 0. -1.
        -13    1    6    6    0    0 -0.15220039804E+02  0.41408896387E+01  0.15250573186E+02  0.21940295375E+02  0.00000000000E+00 0.  1.
         14    1    6    6    0    0  0.25013731399E+02 -0.43863048784E+02 -0.59583912042E+02  0.78101833405E+02  0.00000000000E+00 0. -1.
         -5    1    3    3    0  503  0.51702449571E+02  0.32054660948E+02 -0.12772251601E+03  0.14154778584E+03  0.47000000000E+01 0.  1.
         13    1    4    4    0    0  0.41498186396E+01  0.33061945258E+02 -0.52597806342E+03  0.52703248136E+03  0.00000000000E+00 0. -1.
        -14    1    4    4    0    0 -0.15522066703E+02 -0.36759909192E+02 -0.25414969646E+03  0.25726308264E+03  0.00000000000E+00 0.  1.
<mgrwt>
<rscale>  2 0.18113991E+03</rscale>
<asrwt>0</asrwt>
<pdfrwt beam="1">  1       21 0.62256229E-02 0.18164191E+03</pdfrwt>
<pdfrwt beam="2">  1       21 0.18049424E+00 0.18164191E+03</pdfrwt>
<totfact> 0.33665322E+04</totfact>
</mgrwt>
</event>
<event>
12    1  0.1013215E-001  0.2149329E+03  0.7546771E-02  0.1137733E+00
         21   -1    0    0  503  502  0.00000000000E+00  0.00000000000E+00  0.71609618249E+02  0.71609618249E+02  0.00000000000E+00 0. -1.
         21   -1    0    0  501  503 -0.00000000000E+00 -0.00000000000E+00 -0.72589583645E+03  0.72589583645E+03  0.00000000000E+00 0.  1.
          6    2    1    2  501    0  0.12583441918E+03  0.18983298713E+02 -0.46040629315E+03  0.50810444400E+03  0.17320942399E+03 0.  0.
         24    2    3    3    0    0  0.78066875367E+02  0.15854236554E+02 -0.12238534686E+03  0.16667834746E+03  0.80359844065E+02 0.  0.
         -6    2    1    2    0  502 -0.12583441918E+03 -0.18983298713E+02 -0.19387992505E+03  0.28940101070E+03  0.17311514369E+03 0.  0.
        -24    2    5    5    0    0 -0.11190540688E+03  0.25256660510E+02 -0.66073397388E+02  0.15335767242E+03  0.77409061877E+02 0.  0.
          5    1    3    3  501    0  0.47767543815E+02  0.31290621586E+01 -0.33802094628E+03  0.34142609654E+03  0.47000000000E+01 0. -1.
        -11    1    4    4    0    0 -0.15452887235E+02 -0.58456928694E+01 -0.24680293827E+02  0.29699844317E+02  0.00000000000E+00 0.  1.
         12    1    4    4    0    0  0.93519762602E+02  0.21699929424E+02 -0.97705053037E+02  0.13697850314E+03  0.00000000000E+00 0. -1.
         -5    1    5    5    0  502 -0.13929012305E+02 -0.44239959222E+02 -0.12780652767E+03  0.13604333828E+03  0.47000000000E+01 0.  1.
         11    1    6    6    0    0 -0.19140154449E+02 -0.14486891464E+02 -0.43893643441E+02  0.50028666494E+02  0.00000000000E+00 0. -1.
        -12    1    6    6    0    0 -0.92765252427E+02  0.39743551974E+02 -0.22179753947E+02  0.10332900593E+03  0.00000000000E+00 0.  1.
<mgrwt>
<rscale>  2 0.21491395E+03</rscale>
<asrwt>0</asrwt>
<pdfrwt beam="1">  1       21 0.11016864E-01 0.21493295E+03</pdfrwt>
<pdfrwt beam="2">  1       21 0.11167628E+00 0.21493295E+03</pdfrwt>
<totfact> 0.42524611E+04</totfact>
</mgrwt>
</event>
<event>
12    1  0.1013215E-001  0.2536341E+03  0.7546771E-02  0.1111258E+00
         21   -1    0    0  503  502  0.00000000000E+00  0.00000000000E+00  0.26716413834E+03  0.26716413834E+03  0.00000000000E+00 0.  1.
         21   -1    0    0  501  503 -0.00000000000E+00 -0.00000000000E+00 -0.35234504858E+03  0.35234504858E+03  0.00000000000E+00 0. -1.
          6    2    1    2  501    0  0.17789001396E+03  0.43583555539E+02 -0.21788246993E+03  0.33325766146E+03  0.17333065175E+03 0.  0.
         24    2    3    3    0    0  0.37711368849E+02  0.11070539160E+02  0.26857684552E+01  0.69857611032E+02  0.57690278983E+02 0.  0.
         -6    2    1    2    0  502 -0.17789001396E+03 -0.43583555539E+02  0.13270155970E+03  0.28625152546E+03  0.17545896530E+03 0.  0.
        -24    2    5    5    0    0 -0.69607432392E+02 -0.60967715439E+02  0.17371197272E+02  0.12703309379E+03  0.85284180557E+02 0.  0.
          5    1    3    3  501    0  0.14017864511E+03  0.32513016379E+02 -0.22056823839E+03  0.26340005043E+03  0.47000000000E+01 0. -1.
        -11    1    4    4    0    0 -0.98275602058E+01  0.12950660192E+02 -0.11841815412E+02  0.20112909568E+02  0.00000000000E+00 0.  1.
         12    1    4    4    0    0  0.47538929054E+02 -0.18801210323E+01  0.14527583867E+02  0.49744701464E+02  0.00000000000E+00 0. -1.
         -5    1    5    5    0  502 -0.10828258157E+03  0.17384159900E+02  0.11533036243E+03  0.15921843167E+03  0.47000000000E+01 0.  1.
         13    1    6    6    0    0 -0.17892423949E+02  0.20491000011E+02 -0.57704581153E+01  0.27808597647E+02  0.00000000000E+00 0. -1.
        -14    1    6    6    0    0 -0.51715008443E+02 -0.81458715449E+02  0.23141655387E+02  0.99224496144E+02  0.00000000000E+00 0.  1.
<mgrwt>
<rscale>  2 0.25326634E+03</rscale>
<asrwt>0</asrwt>
<pdfrwt beam="1">  1       21 0.41102175E-01 0.25363405E+03</pdfrwt>
<pdfrwt beam="2">  1       21 0.54206931E-01 0.25363405E+03</pdfrwt>
<totfact> 0.17727551E+04</totfact>
</mgrwt>
</event>
<event>
12    1  0.1013215E-001  0.1827954E+03  0.7546771E-02  0.1165701E+00
         21   -1    0    0  501  502  0.00000000000E+00  0.00000000000E+00  0.60898299396E+03  0.60898299396E+03  0.00000000000E+00 0. -1.
         21   -1    0    0  502  503 -0.00000000000E+00 -0.00000000000E+00 -0.60940401694E+02  0.60940401694E+02  0.00000000000E+00 0. -1.
         -6    2    1    2    0  503 -0.14670333148E+02 -0.48314224391E+02  0.16380266865E+03  0.24544951203E+03  0.17568342480E+03 0.  0.
        -24    2    3    3    0    0  0.55650301209E+02 -0.51648397437E+02  0.63195658840E+02  0.12256758192E+03  0.72557617511E+02 0.  0.
          6    2    1    2  501    0  0.14670333148E+02  0.48314224391E+02  0.38423992361E+03  0.42447388362E+03  0.17317123324E+03 0.  0.
         24    2    5    5    0    0 -0.25021602681E+02  0.46601413478E+02  0.11005921721E+03  0.14738990131E+03  0.82540774012E+02 0.  0.
          5    1    5    5  501    0  0.39691935828E+02  0.17128109128E+01  0.27418070640E+03  0.27708398231E+03  0.47000000000E+01 0. -1.
        -11    1    6    6    0    0 -0.88752446688E+01 -0.23025078335E+02  0.16631453914E+02  0.29757847025E+02  0.00000000000E+00 0.  1.
         12    1    6    6    0    0 -0.16146358012E+02  0.69626491813E+02  0.93427763300E+02  0.11763205428E+03  0.00000000000E+00 0. -1.
         -5    1    3    3    0  503 -0.70320634356E+02  0.33341730457E+01  0.10060700981E+03  0.12288193011E+03  0.47000000000E+01 0.  1.
         13    1    4    4    0    0 -0.14432475353E+02 -0.19207039277E+02  0.30190156934E+02  0.38583056881E+02  0.00000000000E+00 0. -1.
        -14    1    4    4    0    0  0.70082776562E+02 -0.32441358160E+02  0.33005501907E+02  0.83984525039E+02  0.00000000000E+00 0.  1.
<mgrwt>
<rscale>  2 0.18218909E+03</rscale>
<asrwt>0</asrwt>
<pdfrwt beam="1">  1       21 0.93689687E-01 0.18279537E+03</pdfrwt>
<pdfrwt beam="2">  1       21 0.93754469E-02 0.18279537E+03</pdfrwt>
<totfact> 0.87359630E+04</totfact>
</mgrwt>
</event>
<event>
12    1  0.1013215E-001  0.2089484E+03  0.7546771E-02  0.1142906E+00
         21   -1    0    0  503  502  0.00000000000E+00  0.00000000000E+00  0.78616609774E+02  0.78616609774E+02  0.00000000000E+00 0.  1.
         21   -1    0    0  501  503 -0.00000000000E+00 -0.00000000000E+00 -0.60527111407E+03  0.60527111407E+03  0.00000000000E+00 0. -1.
          6    2    1    2  501    0 -0.38489240879E+02  0.10982062578E+03 -0.36932649466E+03  0.42433651273E+03  0.17354372611E+03 0.  0.
         24    2    3    3    0    0 -0.84632705445E+02  0.79973605263E+02 -0.31889349569E+03  0.34959936440E+03  0.83475634929E+02 0.  0.
         -6    2    1    2    0  502  0.38489240879E+02 -0.10982062578E+03 -0.15732800964E+03  0.25955121111E+03  0.17050729329E+03 0.  0.
        -24    2    5    5    0    0  0.77216422075E+02 -0.10314904505E+03 -0.15898239994E+03  0.21993894584E+03  0.80595502818E+02 0.  0.
          5    1    3    3  501    0  0.46143464566E+02  0.29847020515E+02 -0.50432998972E+02  0.74737148334E+02  0.47000000000E+01 0. -1.
        -11    1    4    4    0    0 -0.52913479190E+02 -0.40906068466E+01 -0.13042798448E+03  0.14081203244E+03  0.00000000000E+00 0.  1.
         12    1    4    4    0    0 -0.31719226255E+02  0.84064212110E+02 -0.18846551120E+03  0.20878733196E+03  0.00000000000E+00 0. -1.
         -5    1    5    5    0  502 -0.38727181196E+02 -0.66715807281E+01  0.16543902982E+01  0.39612265273E+02  0.47000000000E+01 0.  1.
         13    1    6    6    0    0  0.50597305414E+02 -0.15994044153E+02 -0.94239153946E+02  0.10815227644E+03  0.00000000000E+00 0. -1.
        -14    1    6    6    0    0  0.26619116661E+02 -0.87155000898E+02 -0.64743245993E+02  0.11178666940E+03  0.00000000000E+00 0.  1.
<mgrwt>
<rscale>  2 0.20831675E+03</rscale>
<asrwt>0</asrwt>
<pdfrwt beam="1">  1       21 0.12094863E-01 0.20894836E+03</pdfrwt>
<pdfrwt beam="2">  1       21 0.93118632E-01 0.20894836E+03</pdfrwt>
<totfact> 0.55715282E+04</totfact>
</mgrwt>
</event>
<event>
12    1  0.1013215E-001  0.1956123E+03  0.7546771E-02  0.1154107E+00
         21   -1    0    0  503  502  0.00000000000E+00  0.00000000000E+00  0.23973003857E+03  0.23973003857E+03  0.00000000000E+00 0. -1.
         21   -1    0    0  501  503 -0.00000000000E+00 -0.00000000000E+00 -0.16121608384E+03  0.16121608384E+03  0.00000000000E+00 0.  1.
          6    2    1    2  501    0 -0.88320350489E+02 -0.16886051831E+02  0.84364561519E+01  0.19579419089E+03  0.17371979835E+03 0.  0.
         24    2    3    3    0    0  0.20252972178E+02  0.85178240725E+01  0.11170912841E+01  0.83949716700E+02  0.81015867779E+02 0.  0.
         -6    2    1    2    0  502  0.88320350489E+02  0.16886051831E+02  0.70077498579E+02  0.20515193151E+03  0.17056035922E+03 0.  0.
        -24    2    5    5    0    0  0.99162583602E+02  0.60680814790E+02  0.26746385258E+02  0.14242067404E+03  0.77800385603E+02 0.  0.
          5    1    3    3  501    0 -0.10857332267E+03 -0.25403875904E+02  0.73193648678E+01  0.11184447420E+03  0.47000000000E+01 0. -1.
        -11    1    4    4    0    0  0.13213431918E+02  0.38094754121E+02 -0.21836817239E+02  0.45854679823E+02  0.00000000000E+00 0.  1.
         12    1    4    4    0    0  0.70395402601E+01 -0.29576930048E+02  0.22953908523E+02  0.38095036877E+02  0.00000000000E+00 0. -1.
         -5    1    5    5    0  502 -0.10842233112E+02 -0.43794762959E+02  0.43331113321E+02  0.62731257465E+02  0.47000000000E+01 0.  1.
         11    1    6    6    0    0  0.99824043138E+02  0.32175035944E+02  0.23705258499E+01  0.10490801647E+03  0.00000000000E+00 0. -1.
        -12    1    6    6    0    0 -0.66145953672E+00  0.28505778846E+02  0.24375859408E+02  0.37512657574E+02  0.00000000000E+00 0.  1.
<mgrwt>
<rscale>  2 0.19490847E+03</rscale>
<asrwt>0</asrwt>
<pdfrwt beam="1">  1       21 0.36881544E-01 0.19561235E+03</pdfrwt>
<pdfrwt beam="2">  1       21 0.24802474E-01 0.19561235E+03</pdfrwt>
<totfact> 0.10890908E+05</totfact>
</mgrwt>
</event>
<event>
12    1  0.1013215E-001  0.2339217E+03  0.7546771E-02  0.1124055E+00
         21   -1    0    0  501  502  0.00000000000E+00  0.00000000000E+00  0.40729332881E+02  0.40729332881E+02  0.00000000000E+00 0. -1.
         21   -1    0    0  502  503 -0.00000000000E+00 -0.00000000000E+00 -0.13513966683E+04  0.13513966683E+04  0.00000000000E+00 0.  1.
         -6    2    1    2    0  503  0.20870727359E+02 -0.15387189426E+03 -0.72410954465E+03  0.76095598669E+03  0.17494923245E+03 0.  0.
        -24    2    3    3    0    0 -0.34353387994E+02 -0.73434260813E+02 -0.22246738802E+03  0.24989154937E+03  0.79883050686E+02 0.  0.
          6    2    1    2  501    0 -0.20870727359E+02  0.15387189426E+03 -0.58655779079E+03  0.63117001451E+03  0.17382001660E+03 0.  0.
         24    2    5    5    0    0 -0.27183334301E+02  0.47094199960E+01 -0.12848480745E+03  0.14935859828E+03  0.70982623474E+02 0.  0.
          5    1    5    5  501    0  0.63126069424E+01  0.14916247426E+03 -0.45807298334E+03  0.48181141623E+03  0.47000000000E+01 0. -1.
        -11    1    6    6    0    0 -0.18076320199E+02  0.36816845618E+02 -0.54628523384E+02  0.68311851390E+02  0.00000000000E+00 0.  1.
         12    1    6    6    0    0 -0.91070141018E+01 -0.32107425622E+02 -0.73856284065E+02  0.81046746892E+02  0.00000000000E+00 0. -1.
         -5    1    3    3    0  503  0.55224115353E+02 -0.80437633448E+02 -0.50164215663E+03  0.51106443733E+03  0.47000000000E+01 0.  1.
         13    1    4    4    0    0 -0.45218421514E+02 -0.63334899302E+02 -0.22178523551E+03  0.23504192350E+03  0.00000000000E+00 0. -1.
        -14    1    4    4    0    0  0.10865033520E+02 -0.10099361510E+02 -0.68215250709E+00  0.14849625865E+02  0.00000000000E+00 0.  1.
<mgrwt>
<rscale>  2 0.23371062E+03</rscale>
<asrwt>0</asrwt>
<pdfrwt beam="1">  1       21 0.62660517E-02 0.23392174E+03</pdfrwt>
<pdfrwt beam="2">  1       21 0.20790716E+00 0.23392174E+03</pdfrwt>
<totfact> 0.21250205E+04</totfact>
</mgrwt>
</event>
<event>
12    1  0.1013215E-001  0.1791468E+03  0.7546771E-02  0.1168738E+00
         21   -1    0    0  503  502  0.00000000000E+00  0.00000000000E+00  0.99765332100E+02  0.99765332100E+02  0.00000000000E+00 0.  1.
         21   -1    0    0  501  503 -0.00000000000E+00 -0.00000000000E+00 -0.78215030800E+03  0.78215030800E+03  0.00000000000E+00 0.  1.
          6    2    1    2  501    0  0.31429186596E+02 -0.31121761086E+02 -0.67964570744E+03  0.70274786534E+03  0.17314709592E+03 0.  0.
         24    2    3    3    0    0 -0.38877147537E+02  0.14183750545E+02 -0.42885795050E+03  0.43833879018E+03  0.80679253122E+02 0.  0.
         -6    2    1    2    0  502 -0.31429186596E+02  0.31121761086E+02 -0.27392684690E+01  0.17916777476E+03  0.17360077804E+03 0.  0.
        -24    2    5    5    0    0  0.30028966231E+02  0.54881251148E+01 -0.47738964982E+02  0.98661560539E+02  0.80766555084E+02 0.  0.
          5    1    3    3  501    0  0.70306334132E+02 -0.45305511631E+02 -0.25078775693E+03  0.26440907517E+03  0.47000000000E+01 0. -1.
        -11    1    4    4    0    0 -0.42421838887E+02  0.30880789060E+01 -0.42330179901E+03  0.42543338103E+03  0.00000000000E+00 0.  1.
         12    1    4    4    0    0  0.35446913508E+01  0.11095671639E+02 -0.55561514885E+01  0.12905409147E+02  0.00000000000E+00 0. -1.
         -5    1    5    5    0  502 -0.61458152827E+02  0.25633635971E+02  0.44999696513E+02  0.80506214221E+02  0.47000000000E+01 0.  1.
         13    1    6    6    0    0  0.23840906806E+02  0.82281086590E+01  0.19002258949E+02  0.31578100871E+02  0.00000000000E+00 0. -1.
        -14    1    6    6    0    0  0.61880594255E+01 -0.27399835442E+01 -0.66741223931E+02  0.67083459668E+02  0.00000000000E+00 0.  1.
<mgrwt>
<rscale>  2 0.17903683E+03</rscale>
<asrwt>0</asrwt>
<pdfrwt beam="1">  1       21 0.15348513E-01 0.17914683E+03</pdfrwt>
<pdfrwt beam="2">  1       21 0.12033082E+00 0.17914683E+03</pdfrwt>
<totfact> 0.19903241E+04</totfact>
</mgrwt>
</event>
<event>
12    1  0.1013215E-001  0.1845627E+03  0.7546771E-02  0.1163604E+00
         21   -1    0    0  503  502  0.00000000000E+00  0.00000000000E+00  0.45129238396E+03  0.45129238396E+03  0.00000000000E+00 0.  1.
         21   -1    0    0  501  503 -0.00000000000E+00 -0.00000000000E+00 -0.10794357228E+03  0.10794357228E+03  0.00000000000E+00 0.  1.
          6    2    1    2  501    0  0.16085456259E+02  0.62198218892E+02  0.17936231650E+02  0.18543216576E+03  0.17302028597E+03 0.  0.
         24    2    3    3    0    0  0.68666271091E+02 -0.72556647198E+01  0.17093553884E+02  0.98188918789E+02  0.67684361062E+02 0.  0.
         -6    2    1    2    0  502 -0.16085456259E+02 -0.62198218892E+02  0.32541258003E+03  0.37380379048E+03  0.17236173066E+03 0.  0.
        -24    2    5    5    0    0  0.38724546927E+02  0.99458477317E+01  0.13568456892E+03  0.16349993650E+03  0.81996442420E+02 0.  0.
          5    1    3    3  501    0 -0.52580814832E+02  0.69453883611E+02  0.84267776625E+00  0.87243246976E+02  0.47000000000E+01 0. -1.
        -11    1    4    4    0    0 -0.96876569598E+01  0.33326569341E+01 -0.10284894098E+02  0.14516760872E+02  0.00000000000E+00 0.  1.
         12    1    4    4    0    0  0.78353928051E+02 -0.10588321654E+02  0.27378447982E+02  0.83672157916E+02  0.00000000000E+00 0. -1.
         -5    1    5    5    0  502 -0.54810003186E+02 -0.72144066623E+02  0.18972801111E+03  0.21030385398E+03  0.47000000000E+01 0.  1.
         13    1    6    6    0    0 -0.30453341762E+00  0.41021925521E+02  0.67991451491E+02  0.79408617857E+02  0.00000000000E+00 0. -1.
        -14    1    6    6    0    0  0.39029080344E+02 -0.31076077789E+02  0.67693117433E+02  0.84091318642E+02  0.00000000000E+00 0.  1.
<mgrwt>
<rscale>  2 0.18440817E+03</rscale>
<asrwt>0</asrwt>
<pdfrwt beam="1">  1       21 0.69429597E-01 0.18456267E+03</pdfrwt>
<pdfrwt beam="2">  1       21 0.16606704E-01 0.18456267E+03</pdfrwt>
<totfact> 0.61667218E+04</totfact>
</mgrwt>
</event>
<event>
12    1  0.1013215E-001  0.2754945E+03  0.7546771E-02  0.1098575E+00
         21   -1    0    0  501  502  0.00000000000E+00  0.00000000000E+00  0.95514104702E+03  0.95514104702E+03  0.00000000000E+00 0. -1.
         21   -1    0    0  502  503 -0.00000000000E+00 -0.00000000000E+00 -0.10036969936E+03  0.10036969936E+03  0.00000000000E+00 0. -1.
         -6    2    1    2    0  503 -0.19106442234E+03 -0.99473000142E+02  0.18010011195E+03  0.32675943847E+03  0.16713823341E+03 0.  0.
        -24    2    3    3    0    0 -0.16977820573E+03 -0.26415868673E+02  0.15763286973E+03  0.24727790321E+03  0.82315263067E+02 0.  0.
          6    2    1    2  501    0  0.19106442234E+03  0.99473000142E+02  0.67467123571E+03  0.72875130790E+03  0.17174603702E+03 0.  0.
         24    2    5    5    0    0  0.38682428457E+02  0.18436448215E+02  0.34375487614E+03  0.35550216612E+03  0.79863272866E+02 0.  0.
          5    1    5    5  501    0  0.15238199388E+03  0.81036551927E+02  0.33091635957E+03  0.37324914178E+03  0.47000000000E+01 0. -1.
        -11    1    6    6    0    0 -0.18690997216E+02  0.53620372437E+01  0.26684778812E+02  0.33017907877E+02  0.00000000000E+00 0.  1.
         12    1    6    6    0    0  0.57373425673E+02  0.13074410971E+02  0.31707009733E+03  0.32248425824E+03  0.00000000000E+00 0. -1.
         -5    1    3    3    0  503 -0.21286216607E+02 -0.73057131469E+02  0.22467242215E+02  0.79481535269E+02  0.47000000000E+01 0.  1.
         11    1    4    4    0    0 -0.13151995630E+03 -0.47900400427E+02  0.14518225829E+03  0.20166763595E+03  0.00000000000E+00 0. -1.
        -12    1    4    4    0    0 -0.38258249429E+02  0.21484531754E+02  0.12450611449E+02  0.45610267260E+02  0.00000000000E+00 0.  1.
<mgrwt>
<rscale>  2 0.27477949E+03</rscale>
<asrwt>0</asrwt>
<pdfrwt beam="1">  1       21 0.14694477E+00 0.27549445E+03</pdfrwt>
<pdfrwt beam="2">  1       21 0.15441493E-01 0.27549445E+03</pdfrwt>
<totfact> 0.11137837E+04</totfact>
</mgrwt>
</event>
<event>
12    1  0.1013215E-001  0.2796223E+03  0.7546771E-02  0.1095961E+00
         21   -1    0    0  501  502  0.00000000000E+00  0.00000000000E+00  0.35107530145E+03  0.35107530145E+03  0.00000000000E+00 0.  1.
         21   -1    0    0  502  503 -0.00000000000E+00 -0.00000000000E+00 -0.24576050644E+03  0.24576050644E+03  0.00000000000E+00 0. -1.
         -6    2    1    2    0  503 -0.84935432580E+02  0.20212422210E+03 -0.39530452585E+02  0.28192505356E+03  0.17277398612E+03 0.  0.
        -24    2    3    3    0    0 -0.11014440277E+03  0.14416353415E+03  0.15664289839E+02  0.19788052300E+03  0.77436537671E+02 0.  0.
          6    2    1    2  501    0  0.84935432580E+02 -0.20212422210E+03  0.14484524760E+03  0.31491075432E+03  0.17355232229E+03 0.  0.
         24    2    5    5    0    0  0.11192842540E+02 -0.13881109243E+03  0.14686514566E+03  0.21758299897E+03  0.79869839901E+02 0.  0.
          5    1    5    5  501    0  0.73742590039E+02 -0.63313129664E+02 -0.20198980629E+01  0.97327755352E+02  0.47000000000E+01 0. -1.
        -11    1    6    6    0    0 -0.46880785186E+00  0.50796251895E+01  0.33883330742E+02  0.34265178754E+02  0.00000000000E+00 0.  1.
         12    1    6    6    0    0  0.11661650392E+02 -0.14389071762E+03  0.11298181492E+03  0.18331782022E+03  0.00000000000E+00 0. -1.
         -5    1    3    3    0  503  0.25208970195E+02  0.57960687945E+02 -0.55194742424E+02  0.84044530558E+02  0.47000000000E+01 0.  1.
         13    1    4    4    0    0 -0.13464833402E+02  0.76213558816E+02  0.18892818552E+02  0.79666472740E+02  0.00000000000E+00 0. -1.
        -14    1    4    4    0    0 -0.96679569373E+02  0.67949975335E+02 -0.32285287128E+01  0.11821405026E+03  0.00000000000E+00 0.  1.
<mgrwt>
<rscale>  2 0.27950163E+03</rscale>
<asrwt>0</asrwt>
<pdfrwt beam="1">  1       21 0.54011585E-01 0.27962231E+03</pdfrwt>
<pdfrwt beam="2">  1       21 0.37809308E-01 0.27962231E+03</pdfrwt>
<totfact> 0.20918818E+04</totfact>
</mgrwt>
</event>
<event>
12    1  0.1013215E-001  0.2015024E+03  0.7546771E-02  0.1148662E+00
         21   -1    0    0  501  502  0.00000000000E+00  0.00000000000E+00  0.49757625776E+02  0.49757625776E+02  0.00000000000E+00 0. -1.
         21   -1    0    0  502  503 -0.00000000000E+00 -0.00000000000E+00 -0.93773946853E+03  0.93773946853E+03  0.00000000000E+00 0.  1.
         -6    2    1    2    0  503 -0.23671198512E+02 -0.99833319600E+02 -0.62361577060E+03  0.65509275209E+03  0.17240321099E+03 0.  0.
        -24    2    3    3    0    0 -0.13302036503E+02 -0.12457298566E+03 -0.60227923946E+03  0.62049639161E+03  0.81117918966E+02 0.  0.
          6    2    1    2  501    0  0.23671198512E+02  0.99833319600E+02 -0.26436607216E+03  0.33240434222E+03  0.17342493845E+03 0.  0.
         24    2    5    5    0    0 -0.19372027851E+01  0.11283282666E+03 -0.26830041488E+03  0.30303860618E+03  0.84334362397E+02 0.  0.
          5    1    5    5  501    0  0.25608401297E+02 -0.12999507065E+02  0.39343427186E+01  0.29365736046E+02  0.47000000000E+01 0. -1.
        -13    1    6    6    0    0  0.94572052910E+01  0.26592995696E+02 -0.16763624119E+03  0.16999569262E+03  0.00000000000E+00 0.  1.
         14    1    6    6    0    0 -0.11394408076E+02  0.86239830968E+02 -0.10066417369E+03  0.13304291355E+03  0.00000000000E+00 0. -1.
         -5    1    3    3    0  503 -0.10369162009E+02  0.24739666063E+02 -0.21336531135E+02  0.34596360481E+02  0.47000000000E+01 0.  1.
         13    1    4    4    0    0 -0.45612789623E+02 -0.48991733735E+02 -0.28241281859E+03  0.29023734539E+03  0.00000000000E+00 0. -1.
        -14    1    4    4    0    0  0.32310753120E+02 -0.75581251927E+02 -0.31986642087E+03  0.33025904622E+03  0.00000000000E+00 0.  1.
<mgrwt>
<rscale>  2 0.20128239E+03</rscale>
<asrwt>0</asrwt>
<pdfrwt beam="1">  1       21 0.76550195E-02 0.20150242E+03</pdfrwt>
<pdfrwt beam="2">  1       21 0.14426761E+00 0.20150242E+03</pdfrwt>
<totfact> 0.42665904E+04</totfact>
</mgrwt>
</event>
<event>
12    1  0.1013215E-001  0.1784280E+03  0.7546771E-02  0.1169874E+00
         21   -1    0    0  503  502  0.00000000000E+00  0.00000000000E+00  0.42811915919E+03  0.42811915919E+03  0.00000000000E+00 0.  1.
         21   -1    0    0  501  503 -0.00000000000E+00 -0.00000000000E+00 -0.10364141733E+03  0.10364141733E+03  0.00000000000E+00 0.  1.
          6    2    1    2  501    0 -0.41395574031E+02 -0.24206194226E+02  0.18028112821E+02  0.17715101831E+03  0.16958165304E+03 0.  0.
         24    2    3    3    0    0 -0.71106793276E+02 -0.43477309835E+02  0.53657927604E+02  0.12669602701E+03  0.78906638156E+02 0.  0.
         -6    2    1    2    0  502  0.41395574031E+02  0.24206194226E+02  0.30644962904E+03  0.35460955821E+03  0.17186340578E+03 0.  0.
        -24    2    5    5    0    0 -0.25922313381E+02  0.30707532469E+02  0.85993826692E+02  0.12396520828E+03  0.79734031341E+02 0.  0.
          5    1    3    3  501    0  0.29711219245E+02  0.19271115608E+02 -0.35629814783E+02  0.50454991302E+02  0.47000000000E+01 0. -1.
        -11    1    4    4    0    0 -0.60861940125E+02  0.27432348884E+01  0.50701926574E+02  0.79261506747E+02  0.00000000000E+00 0.  1.
         12    1    4    4    0    0 -0.10244853151E+02 -0.46220544723E+02  0.29560010305E+01  0.47434520264E+02  0.00000000000E+00 0. -1.
         -5    1    5    5    0  502  0.67317887413E+02 -0.65013382430E+01  0.22045580235E+03  0.23064434993E+03  0.47000000000E+01 0.  1.
         11    1    6    6    0    0 -0.77059302492E+01  0.47779295424E+02  0.86360550477E+02  0.98996904552E+02  0.00000000000E+00 0. -1.
        -12    1    6    6    0    0 -0.18216383132E+02 -0.17071762955E+02 -0.36672378495E+00  0.24968303730E+02  0.00000000000E+00 0.  1.
<mgrwt>
<rscale>  2 0.17787630E+03</rscale>
<asrwt>0</asrwt>
<pdfrwt beam="1">  1       21 0.65864485E-01 0.17842803E+03</pdfrwt>
<pdfrwt beam="2">  1       21 0.15944834E-01 0.17842803E+03</pdfrwt>
<totfact> 0.74757083E+04</totfact>
</mgrwt>
</event>
<event>
12    1  0.1013215E-001  0.3034924E+03  0.7546771E-02  0.1083673E+00
         21   -1    0    0  503  502  0.00000000000E+00  0.00000000000E+00  0.24873769955E+03  0.24873769955E+03  0.00000000000E+00 0.  1.
         21   -1    0    0  501  503 -0.00000000000E+00 -0.00000000000E+00 -0.68482579945E+03  0.68482579945E+03  0.00000000000E+00 0.  1.
          6    2    1    2  501    0 -0.24345187561E+03 -0.54113263697E+02 -0.53546073757E+03  0.61548830994E+03  0.17294680439E+03 0.  0.
         24    2    3    3    0    0 -0.16265928959E+03  0.27197177232E+01 -0.21999328079E+03  0.28488396027E+03  0.79349769202E+02 0.  0.
         -6    2    1    2    0  502  0.24345187561E+03  0.54113263697E+02  0.99372637678E+02  0.31807518906E+03  0.17058676305E+03 0.  0.
        -24    2    5    5    0    0  0.20499744481E+03  0.57728280865E+02  0.13524335994E+03  0.26515439624E+03  0.81606253722E+02 0.  0.
          5    1    3    3  501    0 -0.80792586021E+02 -0.56832981420E+02 -0.31546745678E+03  0.33060434967E+03  0.47000000000E+01 0. -1.
        -13    1    4    4    0    0 -0.33857425357E+02  0.32670804161E+02 -0.75971384621E+02  0.89360830220E+02  0.00000000000E+00 0.  1.
         14    1    4    4    0    0 -0.12880186424E+03 -0.29951086438E+02 -0.14402189617E+03  0.19552313005E+03  0.00000000000E+00 0. -1.
         -5    1    5    5    0  502  0.38454430803E+02 -0.36150171689E+01 -0.35870722258E+02  0.52920792821E+02  0.47000000000E+01 0.  1.
         11    1    6    6    0    0 -0.57760001929E+01  0.15348646995E+01  0.14834026834E+02  0.15992696457E+02  0.00000000000E+00 0. -1.
        -12    1    6    6    0    0  0.21077344500E+03  0.56193416166E+02  0.12040933310E+03  0.24916169978E+03  0.00000000000E+00 0.  1.
<mgrwt>
<rscale>  2 0.30315722E+03</rscale>
<asrwt>0</asrwt>
<pdfrwt beam="1">  1       21 0.38267339E-01 0.30349244E+03</pdfrwt>
<pdfrwt beam="2">  1       21 0.10535781E+00 0.30349244E+03</pdfrwt>
<totfact> 0.44387342E+03</totfact>
</mgrwt>
</event>
<event>
12    1  0.1013215E-001  0.1810217E+03  0.7546771E-02  0.1167052E+00
         21   -1    0    0  501  502  0.00000000000E+00  0.00000000000E+00  0.85001590299E+03  0.85001590299E+03  0.00000000000E+00 0. -1.
         21   -1    0    0  502  503 -0.00000000000E+00 -0.00000000000E+00 -0.64787308387E+02  0.64787308387E+02  0.00000000000E+00 0.  1.
         -6    2    1    2    0  503  0.28396873286E+02 -0.41935366758E+02  0.99770379247E+02  0.20584494603E+03  0.17278036877E+03 0.  0.
        -24    2    3    3    0    0 -0.30421505178E+02 -0.55465508389E+02  0.10271475177E+03  0.14523615370E+03  0.80878486092E+02 0.  0.
          6    2    1    2  501    0 -0.28396873286E+02  0.41935366758E+02  0.68545821536E+03  0.70895826535E+03  0.17379269149E+03 0.  0.
         24    2    5    5    0    0 -0.14092857915E+02  0.80655282211E+02  0.29368316794E+03  0.31498667439E+03  0.79138604475E+02 0.  0.
          5    1    5    5  501    0 -0.14304015371E+02 -0.38719915453E+02  0.39177504741E+03  0.39397159096E+03  0.47000000000E+01 0. -1.
        -11    1    6    6    0    0 -0.40765426571E+02  0.36605147863E+02  0.94300022064E+02  0.10906076753E+03  0.00000000000E+00 0.  1.
         12    1    6    6    0    0  0.26672568656E+02  0.44050134348E+02  0.19938314588E+03  0.20592590686E+03  0.00000000000E+00 0. -1.
         -5    1    3    3    0  503  0.58818378464E+02  0.13530141632E+02 -0.29443725210E+01  0.60608792326E+02  0.47000000000E+01 0.  1.
         11    1    4    4    0    0 -0.19190259381E+02 -0.98240771008E+01  0.95231410031E+02  0.97641179850E+02  0.00000000000E+00 0. -1.
        -12    1    4    4    0    0 -0.11231245797E+02 -0.45641431289E+02  0.74833417370E+01  0.47594973850E+02  0.00000000000E+00 0.  1.
<mgrwt>
<rscale>  2 0.18077829E+03</rscale>
<asrwt>0</asrwt>
<pdfrwt beam="1">  1       21 0.13077167E+00 0.18102170E+03</pdfrwt>
<pdfrwt beam="2">  1       21 0.99672788E-02 0.18102170E+03</pdfrwt>
<totfact> 0.34989885E+04</totfact>
</mgrwt>
</event>
<event>
12    1  0.1013215E-001  0.2073766E+03  0.7546771E-02  0.1143740E+00
         21   -1    0    0  503  502  0.00000000000E+00  0.00000000000E+00  0.58502922919E+03  0.58502922919E+03  0.00000000000E+00 0.  1.
         21   -1    0    0  501  503 -0.00000000000E+00 -0.00000000000E+00 -0.98975528697E+02  0.98975528697E+02  0.00000000000E+00 0. -1.
          6    2    1    2  501    0 -0.10252945004E+03 -0.50627256216E+02  0.68896134467E+02  0.21814480226E+03  0.17252556393E+03 0.  0.
         24    2    3    3    0    0 -0.29132264685E+02 -0.75354167072E+02  0.88047680273E+02  0.13822334928E+03  0.69472015555E+02 0.  0.
         -6    2    1    2    0  502  0.10252945004E+03  0.50627256216E+02  0.41715756603E+03  0.46585995563E+03  0.17300189642E+03 0.  0.
        -24    2    5    5    0    0  0.11905620531E+03  0.86446708313E+02  0.33361098650E+03  0.37334894148E+03  0.80285293712E+02 0.  0.
          5    1    3    3  501    0 -0.73397185359E+02  0.24726910855E+02 -0.19151545806E+02  0.79921452977E+02  0.47000000000E+01 0. -1.
        -13    1    4    4    0    0 -0.21597380263E+02  0.66012495272E+01  0.96512303917E+01  0.24559510940E+02  0.00000000000E+00 0.  1.
         14    1    4    4    0    0 -0.75348844219E+01 -0.81955416599E+02  0.78396449882E+02  0.11366383834E+03  0.00000000000E+00 0. -1.
         -5    1    5    5    0  502 -0.16526755270E+02 -0.35819452097E+02  0.83546579528E+02  0.92511014150E+02  0.47000000000E+01 0.  1.
         11    1    6    6    0    0  0.38843186246E+02  0.25281873473E+01  0.32755639085E+02  0.50873536744E+02  0.00000000000E+00 0. -1.
        -12    1    6    6    0    0  0.80213019069E+02  0.83918520966E+02  0.30085534742E+03  0.32247540474E+03  0.00000000000E+00 0.  1.
<mgrwt>
<rscale>  2 0.20727725E+03</rscale>
<asrwt>0</asrwt>
<pdfrwt beam="1">  1       21 0.90004495E-01 0.20737662E+03</pdfrwt>
<pdfrwt beam="2">  1       21 0.15227005E-01 0.20737662E+03</pdfrwt>
<totfact> 0.39783888E+04</totfact>
</mgrwt>
</event>
<event>
12    1  0.1013215E-001  0.2027281E+03  0.7546771E-02  0.1147696E+00
         21   -1    0    0  503  502  0.00000000000E+00  0.00000000000E+00  0.32328627252E+03  0.32328627252E+03  0.00000000000E+00 0. -1.
         21   -1    0    0  501  503 -0.00000000000E+00 -0.00000000000E+00 -0.13102186891E+03  0.13102186891E+03  0.00000000000E+00 0. -1.
          6    2    1    2  501    0  0.36189176832E+02 -0.97632496020E+02  0.53778147353E+02  0.20973978031E+03  0.17394517962E+03 0.  0.
         24    2    3    3    0    0  0.35676891391E+02 -0.12527310474E+03  0.23771357184E+02  0.16866955821E+03  0.10448995691E+03 0.  0.
         -6    2    1    2    0  502 -0.36189176832E+02  0.97632496020E+02  0.13848625626E+03  0.24456836112E+03  0.17260787725E+03 0.  0.
        -24    2    5    5    0    0 -0.76817409781E+02  0.63363748505E+02  0.31069720010E+02  0.12462919892E+03  0.68199931463E+02 0.  0.
          5    1    3    3  501    0  0.51228544065E+00  0.27640608716E+02  0.30006790169E+02  0.41070222094E+02  0.47000000000E+01 0. -1.
        -11    1    4    4    0    0 -0.27565035383E+02 -0.97529321406E+01 -0.12903312936E+02  0.31960074244E+02  0.00000000000E+00 0.  1.
         12    1    4    4    0    0  0.63241926774E+02 -0.11552017260E+03  0.36674670120E+02  0.13670948397E+03  0.00000000000E+00 0. -1.
         -5    1    5    5    0  502  0.40628232950E+02  0.34268747516E+02  0.10741653625E+03  0.11993916220E+03  0.47000000000E+01 0.  1.
         11    1    6    6    0    0 -0.74206669465E+02  0.26258356937E+02  0.36973472486E+02  0.86966480726E+02  0.00000000000E+00 0. -1.
        -12    1    6    6    0    0 -0.26107403160E+01  0.37105391568E+02 -0.59037524759E+01  0.37662718193E+02  0.00000000000E+00 0.  1.
<mgrwt>
<rscale>  2 0.20244093E+03</rscale>
<asrwt>0</asrwt>
<pdfrwt beam="1">  1       21 0.49736349E-01 0.20272811E+03</pdfrwt>
<pdfrwt beam="2">  1       21 0.20157211E-01 0.20272811E+03</pdfrwt>
<totfact> 0.87267590E+04</totfact>
</mgrwt>
</event>
<event>
12    1  0.1013215E-001  0.1813783E+03  0.7546771E-02  0.1171393E+00
         21   -1    0    0  503  502  0.00000000000E+00  0.00000000000E+00  0.80737791967E+02  0.80737791967E+02  0.00000000000E+00 0.  1.
         21   -1    0    0  501  503 -0.00000000000E+00 -0.00000000000E+00 -0.37394536956E+03  0.37394536956E+03  0.00000000000E+00 0.  1.
          6    2    1    2  501    0 -0.48083418192E+02  0.33581418411E+01 -0.17325857787E+03  0.23723002841E+03  0.15471347502E+03 0.  0.
         24    2    3    3    0    0 -0.22969790727E+02 -0.12773982754E+01 -0.18889119331E+03  0.20692076939E+03  0.81283939769E+02 0.  0.
         -6    2    1    2    0  502  0.48083418192E+02 -0.33581418411E+01 -0.11994899972E+03  0.21745313312E+03  0.17485654219E+03 0.  0.
        -24    2    5    5    0    0 -0.38252826179E+02 -0.39661207520E+01 -0.77682121806E+02  0.12120919461E+03  0.84723951663E+02 0.  0.
          5    1    3    3  501    0 -0.25113627465E+02  0.46355401166E+01  0.15632615438E+02  0.30309259016E+02  0.47000000000E+01 0. -1.
        -13    1    4    4    0    0 -0.22449641328E+02 -0.29826119142E+02 -0.16650350829E+03  0.17063704771E+03  0.00000000000E+00 0.  1.
         14    1    4    4    0    0 -0.52014939894E+00  0.28548720867E+02 -0.22387685015E+02  0.36283721679E+02  0.00000000000E+00 0. -1.
         -5    1    5    5    0  502  0.86336244371E+02  0.60797891091E+00 -0.42266877916E+02  0.96243938507E+02  0.47000000000E+01 0.  1.
         13    1    6    6    0    0 -0.13652271952E+02 -0.40005330852E+01 -0.91766097644E+02  0.92862293054E+02  0.00000000000E+00 0. -1.
        -14    1    6    6    0    0 -0.24600554227E+02  0.34412333146E-01  0.14083975838E+02  0.28346901557E+02  0.00000000000E+00 0.  1.
<mgrwt>
<rscale>  2 0.17633965E+03</rscale>
<asrwt>0</asrwt>
<pdfrwt beam="1">  1       21 0.12421199E-01 0.18137834E+03</pdfrwt>
<pdfrwt beam="2">  1       21 0.57530057E-01 0.18137834E+03</pdfrwt>
<totfact> 0.15696858E+05</totfact>
</mgrwt>
</event>
<event>
12    1  0.1013215E-001  0.2030063E+03  0.7546771E-02  0.1147477E+00
         21   -1    0    0  503  502  0.00000000000E+00  0.00000000000E+00  0.37119356301E+03  0.37119356301E+03  0.00000000000E+00 0.  1.
         21   -1    0    0  501  503 -0.00000000000E+00 -0.00000000000E+00 -0.11817901282E+03  0.11817901282E+03  0.00000000000E+00 0.  1.
          6    2    1    2  501    0 -0.80058649976E+02 -0.68764261697E+02  0.18906776198E+03  0.27653280124E+03  0.17200540812E+03 0.  0.
         24    2    3    3    0    0 -0.10721201176E+03 -0.76995874717E+02  0.19379831904E+03  0.24738605736E+03  0.78862492505E+02 0.  0.
         -6    2    1    2    0  502  0.80058649976E+02  0.68764261697E+02  0.63946788207E+02  0.21283977459E+03  0.17341760811E+03 0.  0.
        -24    2    5    5    0    0  0.43792661387E+02 -0.30276611998E+02  0.12401090375E+02  0.95352049464E+02  0.78126537546E+02 0.  0.
          5    1    3    3  501    0  0.27153361780E+02  0.82316130203E+01 -0.47305570636E+01  0.29146743884E+02  0.47000000000E+01 0. -1.
        -13    1    4    4    0    0 -0.76095502040E+02 -0.88860600682E+02  0.12653674099E+03  0.17233188505E+03  0.00000000000E+00 0.  1.
         14    1    4    4    0    0 -0.31116509716E+02  0.11864725965E+02  0.67261578051E+02  0.75054172310E+02  0.00000000000E+00 0. -1.
         -5    1    5    5    0  502  0.36265988589E+02  0.99040873695E+02  0.51545697832E+02  0.11748772513E+03  0.47000000000E+01 0.  1.
         13    1    6    6    0    0 -0.18272819217E+01 -0.25661387445E+01 -0.28145745143E+02  0.28321493551E+02  0.00000000000E+00 0. -1.
        -14    1    6    6    0    0  0.45619943309E+02 -0.27710473254E+02  0.40546835519E+02  0.67030555913E+02  0.00000000000E+00 0.  1.
<mgrwt>
<rscale>  2 0.20270442E+03</rscale>
<asrwt>0</asrwt>
<pdfrwt beam="1">  1       21 0.57106702E-01 0.20300635E+03</pdfrwt>
<pdfrwt beam="2">  1       21 0.18181387E-01 0.20300635E+03</pdfrwt>
<totfact> 0.79016719E+04</totfact>
</mgrwt>
</event>
<event>
12    1  0.1013215E-001  0.4506751E+03  0.7546771E-02  0.1027550E+00
         21   -1    0    0  501  502  0.00000000000E+00  0.00000000000E+00  0.28338569384E+03  0.28338569384E+03  0.00000000000E+00 0.  1.
         21   -1    0    0  502  503 -0.00000000000E+00 -0.00000000000E+00 -0.81026225434E+03  0.81026225434E+03  0.00000000000E+00 0. -1.
         -6    2    1    2    0  503 -0.40528279915E+03 -0.93124494475E+02 -0.44994069191E+03  0.63683174784E+03  0.17372889818E+03 0.  0.
        -24    2    3    3    0    0 -0.30795102939E+03 -0.43066564059E+02 -0.40773455952E+03  0.51943192921E+03  0.82906529397E+02 0.  0.
          6    2    1    2  501    0  0.40528279915E+03  0.93124494475E+02 -0.76935868588E+02  0.45681620033E+03  0.17272983022E+03 0.  0.
         24    2    5    5    0    0  0.18351964252E+03  0.16604748074E+02  0.22778788964E+02  0.20186665206E+03  0.79221809755E+02 0.  0.
          5    1    5    5  501    0  0.22176315664E+03  0.76519746402E+02 -0.99714657552E+02  0.25494954827E+03  0.47000000000E+01 0. -1.
        -11    1    6    6    0    0  0.15762547989E+03 -0.15532045018E+02  0.10180237603E+02  0.15871570046E+03  0.00000000000E+00 0.  1.
         12    1    6    6    0    0  0.25894162624E+02  0.32136793092E+02  0.12598551361E+02  0.43150951607E+02  0.00000000000E+00 0. -1.
         -5    1    3    3    0  503 -0.97331769768E+02 -0.50057930416E+02 -0.42206132393E+02  0.11739981863E+03  0.47000000000E+01 0.  1.
         11    1    4    4    0    0 -0.54201426601E+02 -0.20055633677E+01 -0.13072801156E+03  0.14153314077E+03  0.00000000000E+00 0. -1.
        -12    1    4    4    0    0 -0.25374960278E+03 -0.41061000691E+02 -0.27700654796E+03  0.37789878844E+03  0.00000000000E+00 0.  1.
<mgrwt>
<rscale>  2 0.45057903E+03</rscale>
<asrwt>0</asrwt>
<pdfrwt beam="1">  1       21 0.43597799E-01 0.45067510E+03</pdfrwt>
<pdfrwt beam="2">  1       21 0.12465573E+00 0.45067510E+03</pdfrwt>
<totfact> 0.20899052E+03</totfact>
</mgrwt>
</event>
<event>
12    1  0.1013215E-001  0.4429443E+03  0.7546771E-02  0.1029851E+00
         21   -1    0    0  503  502  0.00000000000E+00  0.00000000000E+00  0.13903205882E+04  0.13903205882E+04  0.00000000000E+00 0.  1.
         21   -1    0    0  501  503 -0.00000000000E+00 -0.00000000000E+00 -0.14414245144E+03  0.14414245144E+03  0.00000000000E+00 0. -1.
          6    2    1    2  501    0  0.40094018021E+03  0.73231580652E+02  0.73456641978E+03  0.85778055789E+03  0.17344672933E+03 0.  0.
         24    2    3    3    0    0  0.10982260927E+03  0.82854559617E+01  0.16550600980E+03  0.21527041834E+03  0.82580018432E+02 0.  0.
         -6    2    1    2    0  502 -0.40094018021E+03 -0.73231580652E+02  0.51161171694E+03  0.67668248171E+03  0.17331110648E+03 0.  0.
        -24    2    5    5    0    0 -0.20766022546E+03  0.12275648366E+02  0.32839068107E+03  0.39693140466E+03  0.80253596894E+02 0.  0.
          5    1    3    3  501    0  0.29111757093E+03  0.64946124690E+02  0.56906040998E+03  0.64251013955E+03  0.47000000000E+01 0. -1.
        -13    1    4    4    0    0  0.97209576820E+02  0.66107184404E+00  0.17322131045E+03  0.19863474328E+03  0.00000000000E+00 0.  1.
         14    1    4    4    0    0  0.12613032453E+02  0.76243841177E+01 -0.77153006481E+01  0.16635675067E+02  0.00000000000E+00 0. -1.
         -5    1    5    5    0  502 -0.19327995475E+03 -0.85507229017E+02  0.18322103588E+03  0.27975107705E+03  0.47000000000E+01 0.  1.
         13    1    6    6    0    0 -0.54075036036E+02 -0.23625891877E+02  0.13530532946E+03  0.14761376789E+03  0.00000000000E+00 0. -1.
        -14    1    6    6    0    0 -0.15358518942E+03  0.35901540242E+02  0.19308535160E+03  0.24931763677E+03  0.00000000000E+00 0.  1.
<mgrwt>
<rscale>  2 0.44293104E+03</rscale>
<asrwt>0</asrwt>
<pdfrwt beam="1">  1       21 0.21389547E+00 0.44294431E+03</pdfrwt>
<pdfrwt beam="2">  1       21 0.22175763E-01 0.44294431E+03</pdfrwt>
<totfact> 0.17580057E+03</totfact>
</mgrwt>
</event>
<event>
12    1  0.1013215E-001  0.1787015E+03  0.7546771E-02  0.1169132E+00
         21   -1    0    0  503  502  0.00000000000E+00  0.00000000000E+00  0.63604378488E+03  0.63604378488E+03  0.00000000000E+00 0. -1.
         21   -1    0    0  501  503 -0.00000000000E+00 -0.00000000000E+00 -0.57583579318E+02  0.57583579318E+02  0.00000000000E+00 0. -1.
          6    2    1    2  501    0 -0.28586817262E+02 -0.37043335533E+02  0.16427122553E+03  0.24253232978E+03  0.17218443781E+03 0.  0.
         24    2    3    3    0    0 -0.39531206697E+02  0.30794507986E+02  0.13987083463E+03  0.16946235134E+03  0.81502270628E+02 0.  0.
         -6    2    1    2    0  502  0.28586817262E+02  0.37043335533E+02  0.41418898003E+03  0.45109503442E+03  0.17246682020E+03 0.  0.
        -24    2    5    5    0    0  0.65405899883E+02  0.70783002556E+02  0.25958012971E+03  0.28855274277E+03  0.81195298079E+02 0.  0.
          5    1    3    3  501    0  0.10944389435E+02 -0.67837843519E+02  0.24400390908E+02  0.73069978444E+02  0.47000000000E+01 0. -1.
        -11    1    4    4    0    0  0.19996125052E+02  0.21724529274E+02  0.21070678180E+02  0.36273594642E+02  0.00000000000E+00 0.  1.
         12    1    4    4    0    0 -0.59527331749E+02  0.90699787121E+01  0.11880015645E+03  0.13318875670E+03  0.00000000000E+00 0. -1.
         -5    1    5    5    0  502 -0.36819082621E+02 -0.33739667023E+02  0.15460885032E+03  0.16254229165E+03  0.47000000000E+01 0.  1.
         11    1    6    6    0    0  0.61106258559E+02  0.77472989748E+02  0.15546411957E+03  0.18413346097E+03  0.00000000000E+00 0. -1.
        -12    1    6    6    0    0  0.42996413237E+01 -0.66899871925E+01  0.10411601014E+03  0.10441928180E+03  0.00000000000E+00 0.  1.
<mgrwt>
<rscale>  2 0.17863331E+03</rscale>
<asrwt>0</asrwt>
<pdfrwt beam="1">  1       21 0.97852885E-01 0.17870148E+03</pdfrwt>
<pdfrwt beam="2">  1       21 0.88590126E-02 0.17870148E+03</pdfrwt>
<totfact> 0.87301464E+04</totfact>
</mgrwt>
</event>
<event>
12    1  0.1013215E-001  0.2078719E+03  0.7546771E-02  0.1143624E+00
         21   -1    0    0  501  502  0.00000000000E+00  0.00000000000E+00  0.36833342726E+03  0.36833342726E+03  0.00000000000E+00 0.  1.
         21   -1    0    0  502  503 -0.00000000000E+00 -0.00000000000E+00 -0.13087689297E+03  0.13087689297E+03  0.00000000000E+00 0.  1.
         -6    2    1    2    0  503 -0.11266490536E+03  0.12576175436E+02  0.35893923167E+02  0.21094806767E+03  0.17423883736E+03 0.  0.
        -24    2    3    3    0    0 -0.11982717158E+03 -0.31659913490E+02  0.60381579738E+02  0.15966585881E+03  0.80537880074E+02 0.  0.
          6    2    1    2  501    0  0.11266490536E+03 -0.12576175436E+02  0.20156261112E+03  0.28826225256E+03  0.17209328563E+03 0.  0.
         24    2    5    5    0    0  0.67409781970E+02 -0.73242340409E+02  0.11062901563E+03  0.16985862696E+03  0.81881957231E+02 0.  0.
          5    1    5    5  501    0  0.45255123394E+02  0.60666164973E+02  0.90933595488E+02  0.11840362560E+03  0.47000000000E+01 0. -1.
        -13    1    6    6    0    0  0.80494139676E+02 -0.33751957472E+02  0.74120445020E+02  0.11450913293E+03  0.00000000000E+00 0.  1.
         14    1    6    6    0    0 -0.13084357706E+02 -0.39490382937E+02  0.36508570612E+02  0.55349494029E+02  0.00000000000E+00 0. -1.
         -5    1    3    3    0  503  0.71622662212E+01  0.44236088926E+02 -0.24487656572E+02  0.51282208857E+02  0.47000000000E+01 0.  1.
         13    1    4    4    0    0 -0.63759406289E+02 -0.44748439853E+02  0.23675142204E+01  0.77931315164E+02  0.00000000000E+00 0. -1.
        -14    1    4    4    0    0 -0.56067765296E+02  0.13088526363E+02  0.58014065518E+02  0.81734543649E+02  0.00000000000E+00 0.  1.
<mgrwt>
<rscale>  2 0.20742164E+03</rscale>
<asrwt>0</asrwt>
<pdfrwt beam="1">  1       21 0.56666681E-01 0.20787187E+03</pdfrwt>
<pdfrwt beam="2">  1       21 0.20134907E-01 0.20787187E+03</pdfrwt>
<totfact> 0.66280496E+04</totfact>
</mgrwt>
</event>
<event>
12    1  0.1013215E-001  0.2386005E+03  0.7546771E-02  0.1120849E+00
         21   -1    0    0  503  502  0.00000000000E+00  0.00000000000E+00  0.22429910007E+04  0.22429910007E+04  0.00000000000E+00 0. -1.
         21   -1    0    0  501  503 -0.00000000000E+00 -0.00000000000E+00 -0.28898550600E+02  0.28898550600E+02  0.00000000000E+00 0. -1.
          6    2    1    2  501    0 -0.67680746726E+02  0.14789046169E+03  0.70503855369E+03  0.74408921017E+03  0.17360045614E+03 0.  0.
         24    2    3    3    0    0  0.20003612454E+02  0.72717614370E+02  0.46523155354E+03  0.47787690554E+03  0.78980646269E+02 0.  0.
         -6    2    1    2    0  502  0.67680746726E+02 -0.14789046169E+03  0.15090538964E+04  0.15278003411E+04  0.17457934569E+03 0.  0.
        -24    2    5    5    0    0  0.59971424221E+02 -0.98684749448E+02  0.14090222372E+04  0.14159564382E+04  0.79080456203E+02 0.  0.
          5    1    3    3  501    0 -0.87684359179E+02  0.75172847321E+02  0.23980700015E+03  0.26621230463E+03  0.47000000000E+01 0. -1.
        -13    1    4    4    0    0 -0.94521544924E+01  0.40954547259E+02  0.37952082317E+03  0.38184116250E+03  0.00000000000E+00 0.  1.
         14    1    4    4    0    0  0.29455766946E+02  0.31763067110E+02  0.85710730378E+02  0.96035743036E+02  0.00000000000E+00 0. -1.
         -5    1    5    5    0  502  0.77093225049E+01 -0.49205712242E+02  0.10003165923E+03  0.11184390291E+03  0.47000000000E+01 0.  1.
         11    1    6    6    0    0  0.14805060029E+02 -0.79141479202E+02  0.59154692012E+03  0.59700110740E+03  0.00000000000E+00 0. -1.
        -12    1    6    6    0    0  0.45166364192E+02 -0.19543270247E+02  0.81747531704E+03  0.81895533079E+03  0.00000000000E+00 0.  1.
<mgrwt>
<rscale>  2 0.23842152E+03</rscale>
<asrwt>0</asrwt>
<pdfrwt beam="1">  1       21 0.34507540E+00 0.23860055E+03</pdfrwt>
<pdfrwt beam="2">  1       21 0.44459326E-02 0.23860055E+03</pdfrwt>
<totfact> 0.58235665E+03</totfact>
</mgrwt>
</event>
<event>
12    1  0.1013215E-001  0.2642371E+03  0.7546771E-02  0.1105146E+00
         21   -1    0    0  503  502  0.00000000000E+00  0.00000000000E+00  0.19363658775E+03  0.19363658775E+03  0.00000000000E+00 0. -1.
         21   -1    0    0  501  503 -0.00000000000E+00 -0.00000000000E+00 -0.50942723812E+03  0.50942723812E+03  0.00000000000E+00 0. -1.
          6    2    1    2  501    0 -0.17633180425E+03 -0.83644049195E+02 -0.35168340111E+03  0.43988916254E+03  0.17813486058E+03 0.  0.
         24    2    3    3    0    0 -0.42231088980E+02 -0.36015856883E+02 -0.55805104442E+02  0.11153340581E+03  0.79024579134E+02 0.  0.
         -6    2    1    2    0  502  0.17633180425E+03  0.83644049195E+02  0.35892750741E+02  0.26317466333E+03  0.17286810494E+03 0.  0.
        -24    2    5    5    0    0  0.51796894147E+02  0.57856409058E+02 -0.35559027384E+02  0.11722469650E+03  0.80292606942E+02 0.  0.
          5    1    3    3  501    0 -0.13410071527E+03 -0.47628192312E+02 -0.29587829667E+03  0.32835575673E+03  0.47000000000E+01 0. -1.
        -11    1    4    4    0    0 -0.48579975852E+02 -0.46994341713E+02 -0.15588896069E+02  0.69364947109E+02  0.00000000000E+00 0.  1.
         12    1    4    4    0    0  0.63488868719E+01  0.10978484829E+02 -0.40216208374E+02  0.42168458706E+02  0.00000000000E+00 0. -1.
         -5    1    5    5    0  502  0.12453491010E+03  0.25787640138E+02  0.71451778125E+02  0.14594996682E+03  0.47000000000E+01 0.  1.
         13    1    6    6    0    0  0.71117900692E+02  0.29355108648E+02 -0.20360046015E+02  0.79586491796E+02  0.00000000000E+00 0. -1.
        -14    1    6    6    0    0 -0.19321006545E+02  0.28501300410E+02 -0.15198981369E+02  0.37638204708E+02  0.00000000000E+00 0.  1.
<mgrwt>
<rscale>  2 0.26335231E+03</rscale>
<asrwt>0</asrwt>
<pdfrwt beam="1">  1       21 0.29790244E-01 0.26423713E+03</pdfrwt>
<pdfrwt beam="2">  1       21 0.78373422E-01 0.26423713E+03</pdfrwt>
<totfact> 0.14944520E+04</totfact>
</mgrwt>
</event>
<event>
12    1  0.1013215E-001  0.2425343E+03  0.7546771E-02  0.1118125E+00
         21   -1    0    0  503  502  0.00000000000E+00  0.00000000000E+00  0.30466956676E+03  0.30466956676E+03  0.00000000000E+00 0. -1.
         21   -1    0    0  501  503 -0.00000000000E+00 -0.00000000000E+00 -0.22465459926E+03  0.22465459926E+03  0.00000000000E+00 0.  1.
          6    2    1    2  501    0 -0.69071026077E+02  0.15582027275E+03  0.13930438304E+03  0.27964810249E+03  0.17247198626E+03 0.  0.
         24    2    3    3    0    0 -0.26560491917E+02  0.17598819953E+03  0.10820783097E+03  0.22305325876E+03  0.79790447141E+02 0.  0.
         -6    2    1    2    0  502  0.69071026077E+02 -0.15582027275E+03 -0.59289415542E+02  0.24967606354E+03  0.17254604564E+03 0.  0.
        -24    2    5    5    0    0 -0.19241584681E+02 -0.37686641774E+02 -0.13161547931E+02  0.95065125512E+02  0.84104876169E+02 0.  0.
          5    1    3    3  501    0 -0.42510534160E+02 -0.20167926783E+02  0.31096552072E+02  0.56594843723E+02  0.47000000000E+01 0. -1.
        -13    1    4    4    0    0  0.27306644595E+02  0.46267547208E+02  0.20763308078E+02  0.57597341311E+02  0.00000000000E+00 0.  1.
         14    1    4    4    0    0 -0.53867136512E+02  0.12972065233E+03  0.87444522894E+02  0.16545591745E+03  0.00000000000E+00 0. -1.
         -5    1    5    5    0  502  0.88312610758E+02 -0.11813363098E+03 -0.46127867611E+02  0.15461093803E+03  0.47000000000E+01 0.  1.
         13    1    6    6    0    0 -0.10829644969E+02 -0.61242928522E+02  0.74713074243E+01  0.62640226203E+02  0.00000000000E+00 0. -1.
        -14    1    6    6    0    0 -0.84119397116E+01  0.23556286748E+02 -0.20632855355E+02  0.32424899308E+02  0.00000000000E+00 0.  1.
<mgrwt>
<rscale>  2 0.24252116E+03</rscale>
<asrwt>0</asrwt>
<pdfrwt beam="1">  1       21 0.46872241E-01 0.24253433E+03</pdfrwt>
<pdfrwt beam="2">  1       21 0.34562246E-01 0.24253433E+03</pdfrwt>
<totfact> 0.34299576E+04</totfact>
</mgrwt>
</event>
<event>
12    1  0.1013215E-001  0.1993690E+03  0.7546771E-02  0.1151514E+00
         21   -1    0    0  501  502  0.00000000000E+00  0.00000000000E+00  0.99253622513E+03  0.99253622513E+03  0.00000000000E+00 0.  1.
         21   -1    0    0  502  503 -0.00000000000E+00 -0.00000000000E+00 -0.80734113844E+02  0.80734113844E+02  0.00000000000E+00 0.  1.
         -6    2    1    2    0  503 -0.87952705436E+02 -0.11873823076E+02  0.72836874995E+02  0.21225736723E+03  0.17852538620E+03 0.  0.
        -24    2    3    3    0    0 -0.68077248060E+02 -0.30506064073E+02  0.11645095522E+03  0.16061947219E+03  0.81686340513E+02 0.  0.
          6    2    1    2  501    0  0.87952705436E+02  0.11873823076E+02  0.83896523629E+03  0.86101297174E+03  0.17205814055E+03 0.  0.
         24    2    5    5    0    0  0.60213727816E+00 -0.20300578270E+02  0.57952149347E+03  0.58533479061E+03  0.79744464774E+02 0.  0.
          5    1    5    5  501    0  0.87350568158E+02  0.32174401346E+02  0.25944374282E+03  0.27567818112E+03  0.47000000000E+01 0. -1.
        -13    1    6    6    0    0  0.36342541990E+02 -0.14947900607E+02  0.41680770237E+03  0.41865604121E+03  0.00000000000E+00 0.  1.
         14    1    6    6    0    0 -0.35740404712E+02 -0.53526776635E+01  0.16271379110E+03  0.16667874940E+03  0.00000000000E+00 0. -1.
         -5    1    3    3    0  503 -0.19875457376E+02  0.18632240997E+02 -0.43614080226E+02  0.51637895043E+02  0.47000000000E+01 0.  1.
         11    1    4    4    0    0 -0.85723396839E+02 -0.28979447943E+02  0.83101447999E+02  0.12285829165E+03  0.00000000000E+00 0. -1.
        -12    1    4    4    0    0  0.17646148779E+02 -0.15266161305E+01  0.33349507223E+02  0.37761180537E+02  0.00000000000E+00 0.  1.
<mgrwt>
<rscale>  2 0.19791060E+03</rscale>
<asrwt>0</asrwt>
<pdfrwt beam="1">  1       21 0.15269787E+00 0.19936895E+03</pdfrwt>
<pdfrwt beam="2">  1       21 0.12420634E-01 0.19936895E+03</pdfrwt>
<totfact> 0.15658003E+04</totfact>
</mgrwt>
</event>
<event>
12    1  0.1013215E-001  0.1850354E+03  0.7546771E-02  0.1163070E+00
         21   -1    0    0  501  502  0.00000000000E+00  0.00000000000E+00  0.64271365736E+03  0.64271365736E+03  0.00000000000E+00 0. -1.
         21   -1    0    0  502  503 -0.00000000000E+00 -0.00000000000E+00 -0.57514881514E+02  0.57514881514E+02  0.00000000000E+00 0.  1.
         -6    2    1    2    0  503 -0.64780276876E+02 -0.50952117214E+01  0.19659455969E+03  0.26982019446E+03  0.17300598539E+03 0.  0.
        -24    2    3    3    0    0  0.11774195570E+02 -0.10715809989E+02  0.16818870145E+03  0.18783750629E+03  0.82109860611E+02 0.  0.
          6    2    1    2  501    0  0.64780276876E+02  0.50952117214E+01  0.38860421615E+03  0.43040834442E+03  0.17325028334E+03 0.  0.
         24    2    5    5    0    0  0.18447301074E+02  0.35138584762E+02  0.35417167766E+03  0.36516235897E+03  0.79567255164E+02 0.  0.
          5    1    5    5  501    0  0.46332975802E+02 -0.30043373040E+02  0.34432538492E+02  0.65245985450E+02  0.47000000000E+01 0. -1.
        -11    1    6    6    0    0 -0.30914927958E+02  0.60018813527E+01  0.11728229048E+03  0.12143677784E+03  0.00000000000E+00 0.  1.
         12    1    6    6    0    0  0.49362229032E+02  0.29136703409E+02  0.23688938718E+03  0.24372558113E+03  0.00000000000E+00 0. -1.
         -5    1    3    3    0  503 -0.76554472446E+02  0.56205982677E+01  0.28405858245E+02  0.81982688167E+02  0.47000000000E+01 0.  1.
         11    1    4    4    0    0  0.49826065773E+01  0.24024143667E+02  0.11313263778E+02  0.27018064041E+02  0.00000000000E+00 0. -1.
        -12    1    4    4    0    0  0.67915889929E+01 -0.34739953656E+02  0.15687543767E+03  0.16081944225E+03  0.00000000000E+00 0.  1.
<mgrwt>
<rscale>  2 0.18497821E+03</rscale>
<asrwt>0</asrwt>
<pdfrwt beam="1">  1       21 0.98879019E-01 0.18503542E+03</pdfrwt>
<pdfrwt beam="2">  1       21 0.88484438E-02 0.18503542E+03</pdfrwt>
<totfact> 0.85127411E+04</totfact>
</mgrwt>
</event>
<event>
12    1  0.1013215E-001  0.3725411E+03  0.7546771E-02  0.1053850E+00
         21   -1    0    0  501  502  0.00000000000E+00  0.00000000000E+00  0.22302165735E+03  0.22302165735E+03  0.00000000000E+00 0. -1.
         21   -1    0    0  502  503 -0.00000000000E+00 -0.00000000000E+00 -0.69838513994E+03  0.69838513994E+03  0.00000000000E+00 0.  1.
         -6    2    1    2    0  503 -0.48110215189E+02  0.32634875627E+03 -0.39227614659E+03  0.54098745780E+03  0.17311484855E+03 0.  0.
        -24    2    3    3    0    0 -0.34899771203E+02  0.28228616764E+03 -0.23745703321E+03  0.37941061721E+03  0.81627809969E+02 0.  0.
          6    2    1    2  501    0  0.48110215189E+02 -0.32634875627E+03 -0.83087336002E+02  0.38041933949E+03  0.17028583303E+03 0.  0.
         24    2    5    5    0    0  0.24812030373E+02 -0.26766110083E+03 -0.12228938095E+03  0.30594829381E+03  0.79947257878E+02 0.  0.
          5    1    5    5  501    0  0.23298184817E+02 -0.58687655445E+02  0.39202044952E+02  0.74471045688E+02  0.47000000000E+01 0. -1.
        -13    1    6    6    0    0 -0.28798427505E+02 -0.10282449138E+03 -0.53844818705E+02  0.11958883709E+03  0.00000000000E+00 0.  1.
         14    1    6    6    0    0  0.53610457877E+02 -0.16483660945E+03 -0.68444562249E+02  0.18635945672E+03  0.00000000000E+00 0. -1.
         -5    1    3    3    0  503 -0.13210443987E+02  0.44062588631E+02 -0.15481911338E+03  0.16157684059E+03  0.47000000000E+01 0.  1.
         13    1    4    4    0    0 -0.44501879506E+02  0.16114716631E+03 -0.17774832511E+03  0.24401494538E+03  0.00000000000E+00 0. -1.
        -14    1    4    4    0    0  0.96021083032E+01  0.12113900133E+03 -0.59708708093E+02  0.13539567183E+03  0.00000000000E+00 0.  1.
<mgrwt>
<rscale>  2 0.37221411E+03</rscale>
<asrwt>0</asrwt>
<pdfrwt beam="1">  1       21 0.34311024E-01 0.37254108E+03</pdfrwt>
<pdfrwt beam="2">  1       21 0.10744387E+00 0.37254108E+03</pdfrwt>
<totfact> 0.51088079E+03</totfact>
</mgrwt>
</event>
<event>
12    1  0.1013215E-001  0.1957345E+03  0.7546771E-02  0.1153834E+00
         21   -1    0    0  501  502  0.00000000000E+00  0.00000000000E+00  0.33966032216E+03  0.33966032216E+03  0.00000000000E+00 0. -1.
         21   -1    0    0  502  503 -0.00000000000E+00 -0.00000000000E+00 -0.59865012443E+03  0.59865012443E+03  0.00000000000E+00 0. -1.
         -6    2    1    2    0  503 -0.65651525908E+02  0.57221131258E+02 -0.55252957704E+03  0.58549663090E+03  0.17301153306E+03 0.  0.
        -24    2    3    3    0    0 -0.58993348759E+02  0.78813993183E+02 -0.24180203206E+03  0.27391312650E+03  0.82875312592E+02 0.  0.
          6    2    1    2  501    0  0.65651525908E+02 -0.57221131258E+02  0.29353977477E+03  0.35281381569E+03  0.17529292185E+03 0.  0.
         24    2    5    5    0    0 -0.30117489365E+02 -0.14516921948E+02  0.94214483365E+02  0.12754061361E+03  0.79198706152E+02 0.  0.
          5    1    5    5  501    0  0.95769015273E+02 -0.42704209311E+02  0.19932529141E+03  0.22527320208E+03  0.47000000000E+01 0. -1.
        -11    1    6    6    0    0 -0.29652646520E+02 -0.41998510944E+02  0.83463871143E+02  0.98027405114E+02  0.00000000000E+00 0.  1.
         12    1    6    6    0    0 -0.46484284526E+00  0.27481588997E+02  0.10750612222E+02  0.29513208498E+02  0.00000000000E+00 0. -1.
         -5    1    3    3    0  503 -0.66581771491E+01 -0.21592861925E+02 -0.31072754498E+03  0.31158350440E+03  0.47000000000E+01 0.  1.
         13    1    4    4    0    0 -0.43154409615E+01  0.96332632488E+01 -0.13500363914E+03  0.13541567624E+03  0.00000000000E+00 0. -1.
        -14    1    4    4    0    0 -0.54677907797E+02  0.69180729935E+02 -0.10679839293E+03  0.13849745026E+03  0.00000000000E+00 0.  1.
<mgrwt>
<rscale>  2 0.19522236E+03</rscale>
<asrwt>0</asrwt>
<pdfrwt beam="1">  1       21 0.52255435E-01 0.19573449E+03</pdfrwt>
<pdfrwt beam="2">  1       21 0.92100018E-01 0.19573449E+03</pdfrwt>
<totfact> 0.34511830E+03</totfact>
</mgrwt>
</event>
<event>
12    1  0.1013215E-001  0.2370247E+03  0.7546771E-02  0.1121791E+00
         21   -1    0    0  503  502  0.00000000000E+00  0.00000000000E+00  0.24379375836E+04  0.24379375836E+04  0.00000000000E+00 0. -1.
         21   -1    0    0  501  503 -0.00000000000E+00 -0.00000000000E+00 -0.27403267048E+02  0.27403267048E+02  0.00000000000E+00 0.  1.
          6    2    1    2  501    0 -0.34115707252E+02 -0.15845387065E+03  0.16968995810E+04  0.17133732752E+04  0.17294010970E+03 0.  0.
         24    2    3    3    0    0  0.39932440573E+02 -0.11681748668E+03  0.90960564531E+03  0.92149541350E+03  0.80811150941E+02 0.  0.
         -6    2    1    2    0  502  0.34115707252E+02  0.15845387065E+03  0.71363473553E+03  0.75196757543E+03  0.17294273082E+03 0.  0.
        -24    2    5    5    0    0  0.25474380344E+01  0.12603842488E+03  0.67673686439E+03  0.69339403498E+03  0.83248604452E+02 0.  0.
          5    1    3    3  501    0 -0.74048147825E+02 -0.41636383971E+02  0.78729393571E+03  0.79187786172E+03  0.47000000000E+01 0. -1.
        -11    1    4    4    0    0 -0.18539536677E+02 -0.61848636798E+01  0.72474978440E+02  0.75063902502E+02  0.00000000000E+00 0.  1.
         12    1    4    4    0    0  0.58471977250E+02 -0.11063262300E+03  0.83713066687E+03  0.84643151099E+03  0.00000000000E+00 0. -1.
         -5    1    5    5    0  502  0.31568269218E+02  0.32415445769E+02  0.36897871142E+02  0.58573540448E+02  0.47000000000E+01 0.  1.
         11    1    6    6    0    0  0.21051840862E+02  0.10532962553E+03  0.62949899584E+03  0.63859728764E+03  0.00000000000E+00 0. -1.
        -12    1    6    6    0    0 -0.18504402828E+02  0.20708799349E+02  0.47237868547E+02  0.54796747343E+02  0.00000000000E+00 0.  1.
<mgrwt>
<rscale>  2 0.23702420E+03</rscale>
<asrwt>0</asrwt>
<pdfrwt beam="1">  1       21 0.37506715E+00 0.23702468E+03</pdfrwt>
<pdfrwt beam="2">  1       21 0.42158892E-02 0.23702468E+03</pdfrwt>
<totfact> 0.42108811E+03</totfact>
</mgrwt>
</event>
<event>
12    1  0.1013215E-001  0.2061392E+03  0.7546771E-02  0.1144867E+00
         21   -1    0    0  501  502  0.00000000000E+00  0.00000000000E+00  0.16302625026E+04  0.16302625026E+04  0.00000000000E+00 0. -1.
         21   -1    0    0  502  503 -0.00000000000E+00 -0.00000000000E+00 -0.10293677541E+03  0.10293677541E+03  0.00000000000E+00 0. -1.
         -6    2    1    2    0  503  0.89714138925E+02  0.67676048009E+02  0.13678468651E+02  0.20557975537E+03  0.17160204287E+03 0.  0.
        -24    2    3    3    0    0  0.75776111362E+02  0.11851808022E+02 -0.49757599807E+02  0.11980773684E+03  0.77431199532E+02 0.  0.
          6    2    1    2  501    0 -0.89714138925E+02 -0.67676048009E+02  0.15136472585E+04  0.15276195226E+04  0.17281408638E+03 0.  0.
         24    2    5    5    0    0 -0.72443315950E+02  0.14510780644E+02  0.11037608055E+04  0.11091915712E+04  0.80990302806E+02 0.  0.
          5    1    5    5  501    0 -0.17270822975E+02 -0.82186828653E+02  0.40988645300E+03  0.41842795136E+03  0.47000000000E+01 0. -1.
        -13    1    6    6    0    0 -0.21388228008E+00 -0.23867310253E+02  0.14532241179E+03  0.14726947278E+03  0.00000000000E+00 0.  1.
         14    1    6    6    0    0 -0.72229433669E+02  0.38378090898E+02  0.95843839372E+03  0.96192209846E+03  0.00000000000E+00 0. -1.
         -5    1    3    3    0  503  0.13938027562E+02  0.55824239987E+02  0.63436068458E+02  0.85772018537E+02  0.47000000000E+01 0.  1.
         11    1    4    4    0    0  0.31129048216E+02  0.37771417062E+02 -0.47389085474E+02  0.68127989929E+02  0.00000000000E+00 0. -1.
        -12    1    4    4    0    0  0.44647063147E+02 -0.25919609040E+02 -0.23685143334E+01  0.51679746909E+02  0.00000000000E+00 0.  1.
<mgrwt>
<rscale>  2 0.20588500E+03</rscale>
<asrwt>0</asrwt>
<pdfrwt beam="1">  1       21 0.25080960E+00 0.20613923E+03</pdfrwt>
<pdfrwt beam="2">  1       21 0.15836428E-01 0.20613923E+03</pdfrwt>
<totfact> 0.23021448E+03</totfact>
</mgrwt>
</event>
<event>
12    1  0.1013215E-001  0.2030116E+03  0.7546771E-02  0.1147303E+00
         21   -1    0    0  503  502  0.00000000000E+00  0.00000000000E+00  0.70760562107E+03  0.70760562107E+03  0.00000000000E+00 0.  1.
         21   -1    0    0  501  503 -0.00000000000E+00 -0.00000000000E+00 -0.83584622205E+02  0.83584622205E+02  0.00000000000E+00 0.  1.
          6    2    1    2  501    0 -0.10539629714E+03 -0.69736807164E+01  0.93504359586E+02  0.22315712299E+03  0.17291334422E+03 0.  0.
         24    2    3    3    0    0 -0.74778076480E+00 -0.31080301939E+02  0.71879343269E+02  0.11351145506E+03  0.82168522543E+02 0.  0.
         -6    2    1    2    0  502  0.10539629714E+03  0.69736807164E+01  0.53051663928E+03  0.56803312028E+03  0.17336870972E+03 0.  0.
        -24    2    5    5    0    0  0.10820726877E+02 -0.28903082182E+02  0.34805767339E+03  0.35935862534E+03  0.83916633087E+02 0.  0.
          5    1    3    3  501    0 -0.10464851637E+03  0.24106621222E+02  0.21625016316E+02  0.10964566793E+03  0.47000000000E+01 0. -1.
        -11    1    4    4    0    0  0.18647851128E+02 -0.17571633866E+02 -0.10587914531E+02  0.27723791272E+02  0.00000000000E+00 0.  1.
         12    1    4    4    0    0 -0.19395631893E+02 -0.13508668073E+02  0.82467257800E+02  0.85787663791E+02  0.00000000000E+00 0. -1.
         -5    1    5    5    0  502  0.94575570260E+02  0.35876762899E+02  0.18245896589E+03  0.20867449494E+03  0.47000000000E+01 0.  1.
         13    1    6    6    0    0  0.14299155715E+02 -0.54559737808E+02  0.16264914549E+03  0.17215102489E+03  0.00000000000E+00 0. -1.
        -14    1    6    6    0    0 -0.34784288375E+01  0.25656655626E+02  0.18540852790E+03  0.18720760045E+03  0.00000000000E+00 0.  1.
<mgrwt>
<rscale>  2 0.20291437E+03</rscale>
<asrwt>0</asrwt>
<pdfrwt beam="1">  1       21 0.10886240E+00 0.20301163E+03</pdfrwt>
<pdfrwt beam="2">  1       21 0.12859173E-01 0.20301163E+03</pdfrwt>
<totfact> 0.34514514E+04</totfact>
</mgrwt>
</event>
<event>
12    1  0.1013215E-001  0.2028573E+03  0.7546771E-02  0.1148036E+00
         21   -1    0    0  501  502  0.00000000000E+00  0.00000000000E+00  0.11207787496E+04  0.11207787496E+04  0.00000000000E+00 0.  1.
         21   -1    0    0  502  503 -0.00000000000E+00 -0.00000000000E+00 -0.70523415066E+02  0.70523415066E+02  0.00000000000E+00 0.  1.
         -6    2    1    2    0  503  0.50359266479E+02  0.91267840207E+02  0.10693835903E+03  0.22641979299E+03  0.17018882352E+03 0.  0.
        -24    2    3    3    0    0  0.43780621776E+02 -0.14788430015E+02  0.36691671057E+02  0.98952549395E+02  0.79434802206E+02 0.  0.
          6    2    1    2  501    0 -0.50359266479E+02 -0.91267840207E+02  0.94331697551E+03  0.96488237168E+03  0.17402643624E+03 0.  0.
         24    2    5    5    0    0 -0.18555866060E+01  0.90231775760E+01  0.24315234873E+03  0.25589472030E+03  0.79209735826E+02 0.  0.
          5    1    5    5  501    0 -0.48503679873E+02 -0.10029101778E+03  0.70016462679E+03  0.70898765138E+03  0.47000000000E+01 0. -1.
        -11    1    6    6    0    0 -0.71688709750E+01 -0.13279796862E+01  0.24411124027E+03  0.24422009309E+03  0.00000000000E+00 0.  1.
         12    1    6    6    0    0  0.53132843690E+01  0.10351157262E+02 -0.95889154594E+00  0.11674627208E+02  0.00000000000E+00 0. -1.
         -5    1    3    3    0  503  0.65786447033E+01  0.10605627022E+03  0.70246687969E+02  0.12746724360E+03  0.47000000000E+01 0.  1.
         11    1    4    4    0    0 -0.22671239510E+01  0.20708090510E+02  0.35067823281E+02  0.40788688300E+02  0.00000000000E+00 0. -1.
        -12    1    4    4    0    0  0.46047745727E+02 -0.35496520525E+02  0.16238477761E+01  0.58163861095E+02  0.00000000000E+00 0.  1.
<mgrwt>
<rscale>  2 0.20203164E+03</rscale>
<asrwt>0</asrwt>
<pdfrwt beam="1">  1       21 0.17242749E+00 0.20285728E+03</pdfrwt>
<pdfrwt beam="2">  1       21 0.10849757E-01 0.20285728E+03</pdfrwt>
<totfact> 0.14301350E+04</totfact>
</mgrwt>
</event>
<event>
12    1  0.1013215E-001  0.2188105E+03  0.7546771E-02  0.1134897E+00
         21   -1    0    0  501  502  0.00000000000E+00  0.00000000000E+00  0.33987102059E+03  0.33987102059E+03  0.00000000000E+00 0.  1.
         21   -1    0    0  502  503 -0.00000000000E+00 -0.00000000000E+00 -0.20375586076E+03  0.20375586076E+03  0.00000000000E+00 0.  1.
         -6    2    1    2    0  503 -0.69590047304E+02 -0.10931712471E+03 -0.83382513841E+02  0.23415948498E+03  0.17630942219E+03 0.  0.
        -24    2    3    3    0    0 -0.34662744349E+02 -0.11315874443E+03 -0.11777340182E+03  0.18476821339E+03  0.79134766161E+02 0.  0.
          6    2    1    2  501    0  0.69590047304E+02  0.10931712471E+03  0.21949767367E+03  0.30946739638E+03  0.17549311165E+03 0.  0.
         24    2    5    5    0    0  0.24538826623E+02  0.61052315599E+01  0.16208579261E+03  0.18297422874E+03  0.81045273478E+02 0.  0.
          5    1    5    5  501    0  0.45051220681E+02  0.10321189315E+03  0.57411881060E+02  0.12649316764E+03  0.47000000000E+01 0. -1.
        -11    1    6    6    0    0  0.48244997433E+02  0.17585499921E+02  0.67635092557E+02  0.84919581546E+02  0.00000000000E+00 0.  1.
         12    1    6    6    0    0 -0.23706170810E+02 -0.11480268361E+02  0.94450700052E+02  0.98054647195E+02  0.00000000000E+00 0. -1.
         -5    1    3    3    0  503 -0.34927302955E+02  0.38416197224E+01  0.34390887976E+02  0.49391271593E+02  0.47000000000E+01 0.  1.
         11    1    4    4    0    0 -0.13534793338E+02 -0.96258737889E+02 -0.44977260355E+02  0.10710690547E+03  0.00000000000E+00 0. -1.
        -12    1    4    4    0    0 -0.21127951012E+02 -0.16900006540E+02 -0.72796141463E+02  0.77661307914E+02  0.00000000000E+00 0.  1.
<mgrwt>
<rscale>  2 0.21864598E+03</rscale>
<asrwt>0</asrwt>
<pdfrwt beam="1">  1       21 0.52287849E-01 0.21881047E+03</pdfrwt>
<pdfrwt beam="2">  1       21 0.31347056E-01 0.21881047E+03</pdfrwt>
<totfact> 0.33474200E+04</totfact>
</mgrwt>
</event>
<event>
12    1  0.1013215E-001  0.2329633E+03  0.7546771E-02  0.1124654E+00
         21   -1    0    0  501  502  0.00000000000E+00  0.00000000000E+00  0.89121945049E+03  0.89121945049E+03  0.00000000000E+00 0. -1.
         21   -1    0    0  502  503 -0.00000000000E+00 -0.00000000000E+00 -0.60845113814E+02  0.60845113814E+02  0.00000000000E+00 0. -1.
         -6    2    1    2    0  503  0.15349376616E+03  0.24252992511E+02  0.43131591675E+03  0.48998284556E+03  0.17291970682E+03 0.  0.
        -24    2    3    3    0    0  0.58341390978E+02 -0.45182637539E+02  0.26023760819E+03  0.28222058026E+03  0.80496301588E+02 0.  0.
          6    2    1    2  501    0 -0.15349376616E+03 -0.24252992511E+02  0.39905841992E+03  0.46208171874E+03  0.17356079162E+03 0.  0.
         24    2    5    5    0    0 -0.13691933495E+02  0.22399191526E+01  0.21448819713E+03  0.22898370518E+03  0.78967488549E+02 0.  0.
          5    1    5    5  501    0 -0.13980183267E+03 -0.26492911663E+02  0.18457022279E+03  0.23309801356E+03  0.47000000000E+01 0. -1.
        -13    1    6    6    0    0 -0.16753062570E+01 -0.36070784069E+02  0.13740266064E+03  0.14206829085E+03  0.00000000000E+00 0.  1.
         14    1    6    6    0    0 -0.12016627238E+02  0.38310703221E+02  0.77085536492E+02  0.86915414328E+02  0.00000000000E+00 0. -1.
         -5    1    3    3    0  503  0.95152375185E+02  0.69435630050E+02  0.17107830856E+03  0.20776226530E+03  0.47000000000E+01 0.  1.
         11    1    4    4    0    0  0.52684279045E+02 -0.26916505328E+02  0.72791178095E+02  0.93801317293E+02  0.00000000000E+00 0. -1.
        -12    1    4    4    0    0  0.56571119329E+01 -0.18266132211E+02  0.18744643009E+03  0.18841926296E+03  0.00000000000E+00 0.  1.
<mgrwt>
<rscale>  2 0.23284389E+03</rscale>
<asrwt>0</asrwt>
<pdfrwt beam="1">  1       21 0.13711068E+00 0.23296329E+03</pdfrwt>
<pdfrwt beam="2">  1       21 0.93607874E-02 0.23296329E+03</pdfrwt>
<totfact> 0.33648950E+04</totfact>
</mgrwt>
</event>
<event>
12    1  0.1013215E-001  0.2076861E+03  0.7546771E-02  0.1143499E+00
         21   -1    0    0  501  502  0.00000000000E+00  0.00000000000E+00  0.45086291679E+03  0.45086291679E+03  0.00000000000E+00 0. -1.
         21   -1    0    0  502  503 -0.00000000000E+00 -0.00000000000E+00 -0.10534011148E+03  0.10534011148E+03  0.00000000000E+00 0. -1.
         -6    2    1    2    0  503 -0.11016160175E+03 -0.31353064203E+02  0.87792327494E+02  0.22547952419E+03  0.17324817438E+03 0.  0.
        -24    2    3    3    0    0 -0.52193481062E+02 -0.20832067044E+02 -0.22536267253E+02  0.10031769608E+03  0.79985138131E+02 0.  0.
          6    2    1    2  501    0  0.11016160175E+03  0.31353064203E+02  0.25773047781E+03  0.33072350408E+03  0.17272650005E+03 0.  0.
         24    2    5    5    0    0  0.59774119614E+02  0.37465369471E+02  0.25927884321E+03  0.27972599367E+03  0.77746470762E+02 0.  0.
          5    1    5    5  501    0  0.50387482140E+02 -0.61123052679E+01 -0.15483653954E+01  0.50997510405E+02  0.47000000000E+01 0. -1.
        -13    1    6    6    0    0 -0.77941367538E+01 -0.25887511008E+01  0.11631832629E+03  0.11660790381E+03  0.00000000000E+00 0.  1.
         14    1    6    6    0    0  0.67568256368E+02  0.40054120572E+02  0.14296051692E+03  0.16311808987E+03  0.00000000000E+00 0. -1.
         -5    1    3    3    0  503 -0.57968120692E+02 -0.10520997159E+02  0.11032859475E+03  0.12516182811E+03  0.47000000000E+01 0.  1.
         11    1    4    4    0    0  0.16222459865E+02 -0.18391378866E+02  0.73756178058E+01  0.25608802367E+02  0.00000000000E+00 0. -1.
        -12    1    4    4    0    0 -0.68415940926E+02 -0.24406881779E+01 -0.29911885059E+02  0.74708893710E+02  0.00000000000E+00 0.  1.
<mgrwt>
<rscale>  2 0.20757729E+03</rscale>
<asrwt>0</asrwt>
<pdfrwt beam="1">  1       21 0.69363524E-01 0.20768612E+03</pdfrwt>
<pdfrwt beam="2">  1       21 0.16206171E-01 0.20768612E+03</pdfrwt>
<totfact> 0.63946474E+04</totfact>
</mgrwt>
</event>
<event>
12    1  0.1013215E-001  0.1831136E+03  0.7546771E-02  0.1165017E+00
         21   -1    0    0  501  502  0.00000000000E+00  0.00000000000E+00  0.47689729763E+03  0.47689729763E+03  0.00000000000E+00 0.  1.
         21   -1    0    0  502  503 -0.00000000000E+00 -0.00000000000E+00 -0.72749286434E+02  0.72749286434E+02  0.00000000000E+00 0.  1.
         -6    2    1    2    0  503  0.53177170823E+02  0.17025434899E+02  0.14904485386E+03  0.23610372523E+03  0.17439301499E+03 0.  0.
        -24    2    3    3    0    0  0.13438189128E+02 -0.56757559186E+02  0.83942038286E+02  0.12987951199E+03  0.80127500851E+02 0.  0.
          6    2    1    2  501    0 -0.53177170823E+02 -0.17025434899E+02  0.25510315733E+03  0.31354285883E+03  0.17353335850E+03 0.  0.
         24    2    5    5    0    0  0.27043701861E+02 -0.40426454139E+02  0.10144558710E+03  0.13856933224E+03  0.80898656922E+02 0.  0.
          5    1    5    5  501    0 -0.80220872684E+02  0.23401019240E+02  0.15365757023E+03  0.17497352658E+03  0.47000000000E+01 0. -1.
        -11    1    6    6    0    0 -0.23201583597E+02  0.28632314454E+01  0.95785210913E+01  0.25263801020E+02  0.00000000000E+00 0.  1.
         12    1    6    6    0    0  0.50245285458E+02 -0.43289685585E+02  0.91867066009E+02  0.11330553122E+03  0.00000000000E+00 0. -1.
         -5    1    3    3    0  503  0.39738981694E+02  0.73782994085E+02  0.65102815575E+02  0.10622421324E+03  0.47000000000E+01 0.  1.
         13    1    4    4    0    0 -0.22698572727E+02 -0.14652590164E+02 -0.25313832383E+01  0.27135428935E+02  0.00000000000E+00 0. -1.
        -14    1    4    4    0    0  0.36136761855E+02 -0.42104969022E+02  0.86473421524E+02  0.10274408306E+03  0.00000000000E+00 0.  1.
<mgrwt>
<rscale>  2 0.18290865E+03</rscale>
<asrwt>0</asrwt>
<pdfrwt beam="1">  1       21 0.73368813E-01 0.18311363E+03</pdfrwt>
<pdfrwt beam="2">  1       21 0.11192198E-01 0.18311363E+03</pdfrwt>
<totfact> 0.11135871E+05</totfact>
</mgrwt>
</event>
<event>
12    1  0.1013215E-001  0.1868424E+03  0.7546771E-02  0.1161708E+00
         21   -1    0    0  503  502  0.00000000000E+00  0.00000000000E+00  0.15291034959E+03  0.15291034959E+03  0.00000000000E+00 0. -1.
         21   -1    0    0  501  503 -0.00000000000E+00 -0.00000000000E+00 -0.22824131814E+03  0.22824131814E+03  0.00000000000E+00 0. -1.
          6    2    1    2  501    0 -0.57218790317E+02  0.31654399161E+02 -0.20560801173E+02  0.18797028107E+03  0.17502596685E+03 0.  0.
         24    2    3    3    0    0 -0.87431703876E+02  0.69561351024E+02 -0.90595256829E+01  0.13792903326E+03  0.80369514186E+02 0.  0.
         -6    2    1    2    0  502  0.57218790317E+02 -0.31654399161E+02 -0.54770167377E+02  0.19318138665E+03  0.17332999153E+03 0.  0.
        -24    2    5    5    0    0  0.31485293702E+01 -0.55616891827E+02 -0.82995182901E+02  0.12748103905E+03  0.79120560155E+02 0.  0.
          5    1    3    3  501    0  0.30212913559E+02 -0.37906951862E+02 -0.11501275490E+02  0.50041247817E+02  0.47000000000E+01 0. -1.
        -11    1    4    4    0    0 -0.61352068807E+02 -0.16937015480E+00 -0.15264777342E+02  0.63222768529E+02  0.00000000000E+00 0.  1.
         12    1    4    4    0    0 -0.26079635069E+02  0.69730721179E+02  0.62052516592E+01  0.74706264728E+02  0.00000000000E+00 0. -1.
         -5    1    5    5    0  502  0.54070260947E+02  0.23962492666E+02  0.28225015524E+02  0.65700347602E+02  0.47000000000E+01 0.  1.
         13    1    6    6    0    0  0.11981019889E+02 -0.50646422897E+02 -0.97067179648E+02  0.11013919536E+03  0.00000000000E+00 0. -1.
        -14    1    6    6    0    0 -0.88324905188E+01 -0.49704689298E+01  0.14071996747E+02  0.17341843691E+02  0.00000000000E+00 0.  1.
<mgrwt>
<rscale>  2 0.18644418E+03</rscale>
<asrwt>0</asrwt>
<pdfrwt beam="1">  1       21 0.23524669E-01 0.18684239E+03</pdfrwt>
<pdfrwt beam="2">  1       21 0.35114049E-01 0.18684239E+03</pdfrwt>
<totfact> 0.13322374E+05</totfact>
</mgrwt>
</event>
<event>
12    1  0.1013215E-001  0.3281276E+03  0.7546771E-02  0.1072046E+00
         21   -1    0    0  503  502  0.00000000000E+00  0.00000000000E+00  0.28867244990E+03  0.28867244990E+03  0.00000000000E+00 0.  1.
         21   -1    0    0  501  503 -0.00000000000E+00 -0.00000000000E+00 -0.39196756486E+03  0.39196756486E+03  0.00000000000E+00 0.  1.
          6    2    1    2  501    0  0.53193447876E+00  0.27851062623E+03 -0.12804347905E+03  0.35158047458E+03  0.17217794777E+03 0.  0.
         24    2    3    3    0    0 -0.70475680242E+01  0.14466655693E+03  0.25261184906E+01  0.16438487221E+03  0.77704079862E+02 0.  0.
         -6    2    1    2    0  502 -0.53193447876E+00 -0.27851062623E+03  0.24748364085E+02  0.32905954019E+03  0.17349134730E+03 0.  0.
        -24    2    5    5    0    0  0.50262597190E+02 -0.94550453592E+02  0.32069460620E+02  0.13801735108E+03  0.80958149341E+02 0.  0.
          5    1    3    3  501    0  0.75795025030E+01  0.13384406930E+03 -0.13056959754E+03  0.18719560237E+03  0.47000000000E+01 0. -1.
        -13    1    4    4    0    0  0.22934585521E+02  0.63472347840E+02 -0.27350847223E+02  0.72820347412E+02  0.00000000000E+00 0.  1.
         14    1    4    4    0    0 -0.29982153545E+02  0.81194209092E+02  0.29876965714E+02  0.91564524798E+02  0.00000000000E+00 0. -1.
         -5    1    5    5    0  502 -0.50794531669E+02 -0.18396017264E+03 -0.73210965343E+01  0.19104218911E+03  0.47000000000E+01 0.  1.
         13    1    6    6    0    0  0.11665265483E+02  0.15017349372E+01 -0.19187346488E+02  0.22505285865E+02  0.00000000000E+00 0. -1.
        -14    1    6    6    0    0  0.38597331707E+02 -0.96052188529E+02  0.51256807107E+02  0.11551206522E+03  0.00000000000E+00 0.  1.
<mgrwt>
<rscale>  2 0.32795429E+03</rscale>
<asrwt>0</asrwt>
<pdfrwt beam="1">  1       21 0.44411146E-01 0.32812757E+03</pdfrwt>
<pdfrwt beam="2">  1       21 0.60302702E-01 0.32812757E+03</pdfrwt>
<totfact> 0.11631040E+04</totfact>
</mgrwt>
</event>
<event>
12    1  0.1013215E-001  0.2097600E+03  0.7546771E-02  0.1142200E+00
         21   -1    0    0  501  502  0.00000000000E+00  0.00000000000E+00  0.32517585491E+03  0.32517585491E+03  0.00000000000E+00 0. -1.
         21   -1    0    0  502  503 -0.00000000000E+00 -0.00000000000E+00 -0.44530973265E+03  0.44530973265E+03  0.00000000000E+00 0. -1.
         -6    2    1    2    0  503  0.92762564501E+02 -0.70369944842E+02 -0.38233299643E+03  0.43609378682E+03  0.17447764395E+03 0.  0.
        -24    2    3    3    0    0  0.35370145174E+02 -0.53103816120E+02 -0.35614488741E+03  0.37052004169E+03  0.79842707918E+02 0.  0.
          6    2    1    2  501    0 -0.92762564501E+02  0.70369944842E+02  0.26219911868E+03  0.33439180073E+03  0.17179253782E+03 0.  0.
         24    2    5    5    0    0 -0.75279406558E+02  0.58839530458E+02  0.28039259927E+03  0.30625456555E+03  0.77735254548E+02 0.  0.
          5    1    5    5  501    0 -0.17483157943E+02  0.11530414384E+02 -0.18193480591E+02  0.28137235180E+02  0.47000000000E+01 0. -1.
        -11    1    6    6    0    0 -0.15785074325E+02 -0.10486988045E+02  0.12152180034E+03  0.12299062341E+03  0.00000000000E+00 0.  1.
         12    1    6    6    0    0 -0.59494332232E+02  0.69326518503E+02  0.15887079893E+03  0.18326394214E+03  0.00000000000E+00 0. -1.
         -5    1    3    3    0  503  0.57392419327E+02 -0.17266128722E+02 -0.26188109018E+02  0.65573745136E+02  0.47000000000E+01 0.  1.
         13    1    4    4    0    0  0.44261215621E+02 -0.60488322603E+02 -0.19418491954E+03  0.20814820527E+03  0.00000000000E+00 0. -1.
        -14    1    4    4    0    0 -0.88910704471E+01  0.73845064826E+01 -0.16195996787E+03  0.16237183642E+03  0.00000000000E+00 0.  1.
<mgrwt>
<rscale>  2 0.20920077E+03</rscale>
<asrwt>0</asrwt>
<pdfrwt beam="1">  1       21 0.50027055E-01 0.20976003E+03</pdfrwt>
<pdfrwt beam="2">  1       21 0.68509189E-01 0.20976003E+03</pdfrwt>
<totfact> 0.73039177E+03</totfact>
</mgrwt>
</event>
<event>
12    1  0.1013215E-001  0.2026281E+03  0.7546771E-02  0.1148139E+00
         21   -1    0    0  501  502  0.00000000000E+00  0.00000000000E+00  0.65302276633E+03  0.65302276633E+03  0.00000000000E+00 0.  1.
         21   -1    0    0  502  503 -0.00000000000E+00 -0.00000000000E+00 -0.69047225742E+02  0.69047225742E+02  0.00000000000E+00 0.  1.
         -6    2    1    2    0  503  0.98185798928E+02 -0.14601301355E+02  0.17468397364E+03  0.26536688565E+03  0.17335352388E+03 0.  0.
        -24    2    3    3    0    0  0.61127364400E+02 -0.19062872830E+02  0.19626502570E+03  0.22199563944E+03  0.81622030218E+02 0.  0.
          6    2    1    2  501    0 -0.98185798928E+02  0.14601301355E+02  0.40929156695E+03  0.45670310642E+03  0.17664793100E+03 0.  0.
         24    2    5    5    0    0  0.10193367183E+02 -0.16713454877E+02  0.12064071067E+03  0.14675461968E+03  0.81237263720E+02 0.  0.
          5    1    5    5  501    0 -0.10837916611E+03  0.31314756233E+02  0.28865085628E+03  0.30994848675E+03  0.47000000000E+01 0. -1.
        -13    1    6    6    0    0 -0.47449246314E+01 -0.48341626336E+02  0.71273337305E+02  0.86251468145E+02  0.00000000000E+00 0.  1.
         14    1    6    6    0    0  0.14938291815E+02  0.31628171459E+02  0.49367373365E+02  0.60503151531E+02  0.00000000000E+00 0. -1.
         -5    1    3    3    0  503  0.37058434528E+02  0.44615714749E+01 -0.21581052064E+02  0.43371246211E+02  0.47000000000E+01 0.  1.
         13    1    4    4    0    0  0.57062059139E+02 -0.35608870974E+02  0.80131663154E+02  0.10461908872E+03  0.00000000000E+00 0. -1.
        -14    1    4    4    0    0  0.40653052609E+01  0.16545998143E+02  0.11613336255E+03  0.11737655071E+03  0.00000000000E+00 0.  1.
<mgrwt>
<rscale>  2 0.20190788E+03</rscale>
<asrwt>0</asrwt>
<pdfrwt beam="1">  1       21 0.10046504E+00 0.20262808E+03</pdfrwt>
<pdfrwt beam="2">  1       21 0.10622651E-01 0.20262808E+03</pdfrwt>
<totfact> 0.58913475E+04</totfact>
</mgrwt>
</event>
<event>
12    1  0.1013215E-001  0.2535847E+03  0.7546771E-02  0.1111911E+00
         21   -1    0    0  501  502  0.00000000000E+00  0.00000000000E+00  0.81752973642E+03  0.81752973642E+03  0.00000000000E+00 0. -1.
         21   -1    0    0  502  503 -0.00000000000E+00 -0.00000000000E+00 -0.83543946837E+02  0.83543946837E+02  0.00000000000E+00 0. -1.
         -6    2    1    2    0  503  0.12936761127E+03  0.12395057275E+03  0.23711177833E+03  0.34323053775E+03  0.17171337540E+03 0.  0.
        -24    2    3    3    0    0  0.87795841239E+02  0.74470681243E+02  0.56795476126E+02  0.15162539542E+03  0.80687931713E+02 0.  0.
          6    2    1    2  501    0 -0.12936761127E+03 -0.12395057275E+03  0.49687401125E+03  0.55784314551E+03  0.17945882146E+03 0.  0.
         24    2    5    5    0    0 -0.16602299038E+03 -0.10383237070E+03  0.42927578942E+03  0.47821922657E+03  0.77917461070E+02 0.  0.
          5    1    5    5  501    0  0.36655379114E+02 -0.20118202047E+02  0.67598221835E+02  0.79623918936E+02  0.47000000000E+01 0. -1.
        -11    1    6    6    0    0 -0.55054202572E+02 -0.64190820276E+00  0.76294657908E+02  0.94086407585E+02  0.00000000000E+00 0.  1.
         12    1    6    6    0    0 -0.11096878781E+03 -0.10319046250E+03  0.35298113151E+03  0.38413281899E+03  0.00000000000E+00 0. -1.
         -5    1    3    3    0  503  0.41571770028E+02  0.49479891507E+02  0.18031630220E+03  0.19160514233E+03  0.47000000000E+01 0.  1.
         11    1    4    4    0    0 -0.62494798313E+01  0.39538286433E+02  0.20186993673E+02  0.44831315013E+02  0.00000000000E+00 0. -1.
        -12    1    4    4    0    0  0.94045321070E+02  0.34932394810E+02  0.36608482452E+02  0.10679408041E+03  0.00000000000E+00 0.  1.
<mgrwt>
<rscale>  2 0.25221843E+03</rscale>
<asrwt>0</asrwt>
<pdfrwt beam="1">  1       21 0.12577380E+00 0.25358468E+03</pdfrwt>
<pdfrwt beam="2">  1       21 0.12852915E-01 0.25358468E+03</pdfrwt>
<totfact> 0.23547763E+04</totfact>
</mgrwt>
</event>
<event>
12    1  0.1013215E-001  0.3927334E+03  0.7546771E-02  0.1046365E+00
         21   -1    0    0  501  502  0.00000000000E+00  0.00000000000E+00  0.85205899188E+03  0.85205899188E+03  0.00000000000E+00 0.  1.
         21   -1    0    0  502  503 -0.00000000000E+00 -0.00000000000E+00 -0.18447115733E+03  0.18447115733E+03  0.00000000000E+00 0. -1.
         -6    2    1    2    0  503  0.32779602214E+02 -0.34995361729E+03  0.40697301160E+03  0.56556742886E+03  0.17520687154E+03 0.  0.
        -24    2    3    3    0    0 -0.21845943112E+02 -0.10057965919E+03  0.88683191272E+02  0.15752108234E+03  0.79716183389E+02 0.  0.
          6    2    1    2  501    0 -0.32779602214E+02  0.34995361729E+03  0.26061482295E+03  0.47096272035E+03  0.17419460796E+03 0.  0.
         24    2    5    5    0    0  0.10317162472E+02  0.32497205235E+03  0.25447323228E+03  0.42055221699E+03  0.79964133303E+02 0.  0.
          5    1    5    5  501    0 -0.43096764686E+02  0.24981564940E+02  0.61415906692E+01  0.50410503362E+02  0.47000000000E+01 0. -1.
        -11    1    6    6    0    0 -0.67673080913E+01  0.18143226682E+02  0.44024104112E+02  0.48094644984E+02  0.00000000000E+00 0.  1.
         12    1    6    6    0    0  0.17084470563E+02  0.30682882567E+03  0.21044912817E+03  0.37245757200E+03  0.00000000000E+00 0. -1.
         -5    1    3    3    0  503  0.54625545326E+02 -0.24937395810E+03  0.31828982033E+03  0.40804634652E+03  0.47000000000E+01 0.  1.
         13    1    4    4    0    0 -0.48158437078E+02 -0.84388185233E+02  0.54338430478E+02  0.11132504613E+03  0.00000000000E+00 0. -1.
        -14    1    4    4    0    0  0.26312493966E+02 -0.16191473956E+02  0.34344760794E+02  0.46196036211E+02  0.00000000000E+00 0.  1.
<mgrwt>
<rscale>  2 0.39262067E+03</rscale>
<asrwt>0</asrwt>
<pdfrwt beam="1">  1       21 0.13108600E+00 0.39273335E+03</pdfrwt>
<pdfrwt beam="2">  1       21 0.28380179E-01 0.39273335E+03</pdfrwt>
<totfact> 0.44773839E+03</totfact>
</mgrwt>
</event>
<event>
12    1  0.1013215E-001  0.3108008E+03  0.7546771E-02  0.1080310E+00
         21   -1    0    0  501  502  0.00000000000E+00  0.00000000000E+00  0.22604453823E+03  0.22604453823E+03  0.00000000000E+00 0. -1.
         21   -1    0    0  502  503 -0.00000000000E+00 -0.00000000000E+00 -0.52426584826E+03  0.52426584826E+03  0.00000000000E+00 0.  1.
         -6    2    1    2    0  503 -0.72299236058E+02  0.24660699917E+03 -0.31312604705E+03  0.43915236103E+03  0.16960154270E+03 0.  0.
        -24    2    3    3    0    0 -0.60565478207E+02  0.25621736417E+03 -0.24272797092E+03  0.36698575302E+03  0.80287982904E+02 0.  0.
          6    2    1    2  501    0  0.72299236058E+02 -0.24660699917E+03  0.14904737021E+02  0.31115802545E+03  0.17479981135E+03 0.  0.
         24    2    5    5    0    0  0.60639070013E+02 -0.13639516178E+03 -0.56240912270E+02  0.17937638035E+03  0.82049428071E+02 0.  0.
          5    1    5    5  501    0  0.11660166046E+02 -0.11021183739E+03  0.71145649292E+02  0.13178164510E+03  0.47000000000E+01 0. -1.
        -13    1    6    6    0    0  0.69495301209E+02 -0.12718455819E+03 -0.69696823878E+02  0.16082025989E+03  0.00000000000E+00 0.  1.
         14    1    6    6    0    0 -0.88562311968E+01 -0.92106035896E+01  0.13455911608E+02  0.18556120464E+02  0.00000000000E+00 0. -1.
         -5    1    3    3    0  503 -0.11733757851E+02 -0.96103650064E+01 -0.70398076130E+02  0.72166608010E+02  0.47000000000E+01 0.  1.
         11    1    4    4    0    0 -0.12019573782E+01  0.17278416378E+03 -0.15619350450E+03  0.23292106561E+03  0.00000000000E+00 0. -1.
        -12    1    4    4    0    0 -0.59363520829E+02  0.83433200391E+02 -0.86534466421E+02  0.13406468741E+03  0.00000000000E+00 0.  1.
<mgrwt>
<rscale>  2 0.31007491E+03</rscale>
<asrwt>0</asrwt>
<pdfrwt beam="1">  1       21 0.34776083E-01 0.31080085E+03</pdfrwt>
<pdfrwt beam="2">  1       21 0.80656284E-01 0.31080085E+03</pdfrwt>
<totfact> 0.10078577E+04</totfact>
</mgrwt>
</event>
<event>
12    1  0.1013215E-001  0.2537809E+03  0.7546771E-02  0.1111014E+00
         21   -1    0    0  503  502  0.00000000000E+00  0.00000000000E+00  0.12216392732E+04  0.12216392732E+04  0.00000000000E+00 0.  1.
         21   -1    0    0  501  503 -0.00000000000E+00 -0.00000000000E+00 -0.13646094726E+03  0.13646094726E+03  0.00000000000E+00 0.  1.
          6    2    1    2  501    0  0.53946162476E+02  0.17796129062E+03  0.10524736197E+02  0.25399904462E+03  0.17269723563E+03 0.  0.
         24    2    3    3    0    0  0.80882576812E+02  0.18444292244E+03  0.31008282296E+02  0.21922480661E+03  0.80850599232E+02 0.  0.
         -6    2    1    2    0  502 -0.53946162476E+02 -0.17796129062E+03  0.10746535897E+04  0.11041011758E+04  0.17198447351E+03 0.  0.
        -24    2    5    5    0    0  0.17453430776E+02 -0.53069673891E+02  0.60590882778E+03  0.61375480875E+03  0.80302211359E+02 0.  0.
          5    1    3    3  501    0 -0.26936414336E+02 -0.64816318195E+01 -0.20483546099E+02  0.34774238009E+02  0.47000000000E+01 0. -1.
        -13    1    4    4    0    0  0.78143084463E+02  0.16133800679E+03 -0.14706839490E+01  0.17927201956E+03  0.00000000000E+00 0.  1.
         14    1    4    4    0    0  0.27394923488E+01  0.23104915640E+02  0.32478966245E+02  0.39952787054E+02  0.00000000000E+00 0. -1.
         -5    1    5    5    0  502 -0.71399593252E+02 -0.12489161672E+03  0.46874476194E+03  0.49034636706E+03  0.47000000000E+01 0.  1.
         13    1    6    6    0    0  0.33878435825E+02  0.56585655352E+01  0.15632145719E+03  0.16005051001E+03  0.00000000000E+00 0. -1.
        -14    1    6    6    0    0 -0.16425005049E+02 -0.58728239426E+02  0.44958737059E+03  0.45370429874E+03  0.00000000000E+00 0.  1.
<mgrwt>
<rscale>  2 0.25365969E+03</rscale>
<asrwt>0</asrwt>
<pdfrwt beam="1">  1       21 0.18794450E+00 0.25378090E+03</pdfrwt>
<pdfrwt beam="2">  1       21 0.20993993E-01 0.25378090E+03</pdfrwt>
<totfact> 0.32207600E+03</totfact>
</mgrwt>
</event>
<event>
12    1  0.1013215E-001  0.2282646E+03  0.7546771E-02  0.1127929E+00
         21   -1    0    0  501  502  0.00000000000E+00  0.00000000000E+00  0.29440510523E+03  0.29440510523E+03  0.00000000000E+00 0.  1.
         21   -1    0    0  502  503 -0.00000000000E+00 -0.00000000000E+00 -0.21406670504E+03  0.21406670504E+03  0.00000000000E+00 0. -1.
         -6    2    1    2    0  503  0.13294287519E+03  0.65581969639E+02  0.14639415674E+03  0.27117516992E+03  0.17357972475E+03 0.  0.
        -24    2    3    3    0    0  0.29871035066E+02  0.16386135601E+02  0.54358089831E+01  0.89694096203E+02  0.82793107796E+02 0.  0.
          6    2    1    2  501    0 -0.13294287519E+03 -0.65581969639E+02 -0.66055756553E+02  0.23729664034E+03  0.17312287468E+03 0.  0.
         24    2    5    5    0    0 -0.49797649226E+01 -0.16770614794E+01  0.46662690843E+00  0.79481202637E+02  0.79305947054E+02 0.  0.
          5    1    5    5  501    0 -0.12796311027E+03 -0.63904908159E+02 -0.66522383462E+02  0.15781543771E+03  0.47000000000E+01 0. -1.
        -11    1    6    6    0    0  0.13753099517E+02 -0.94309395382E+01 -0.34920373512E+02  0.38697840419E+02  0.00000000000E+00 0.  1.
         12    1    6    6    0    0 -0.18732864439E+02  0.77538780588E+01  0.35387000420E+02  0.40783362218E+02  0.00000000000E+00 0. -1.
         -5    1    3    3    0  503  0.10307184013E+03  0.49195834038E+02  0.14095834776E+03  0.18148107372E+03  0.47000000000E+01 0.  1.
         11    1    4    4    0    0  0.44466177741E+01 -0.33358377117E+02  0.27128518257E+01  0.33762602070E+02  0.00000000000E+00 0. -1.
        -12    1    4    4    0    0  0.25424417292E+02  0.49744512718E+02  0.27229571575E+01  0.55931494133E+02  0.00000000000E+00 0.  1.
<mgrwt>
<rscale>  2 0.22817774E+03</rscale>
<asrwt>0</asrwt>
<pdfrwt beam="1">  1       21 0.45293093E-01 0.22826459E+03</pdfrwt>
<pdfrwt beam="2">  1       21 0.32933339E-01 0.22826459E+03</pdfrwt>
<totfact> 0.40786030E+04</totfact>
</mgrwt>
</event>
<event>
12    1  0.1013215E-001  0.1941478E+03  0.7546771E-02  0.1154841E+00
         21   -1    0    0  501  502  0.00000000000E+00  0.00000000000E+00  0.19800708577E+03  0.19800708577E+03  0.00000000000E+00 0.  1.
         21   -1    0    0  502  503 -0.00000000000E+00 -0.00000000000E+00 -0.84272793261E+03  0.84272793261E+03  0.00000000000E+00 0. -1.
         -6    2    1    2    0  503 -0.83175080769E+02 -0.30716040644E+02 -0.78024703407E+03  0.80396359390E+03  0.17236721534E+03 0.  0.
        -24    2    3    3    0    0 -0.74197670191E+02 -0.39825283147E+02 -0.78160518099E+03  0.79027028302E+03  0.80802932137E+02 0.  0.
          6    2    1    2  501    0  0.83175080769E+02  0.30716040644E+02  0.13552618722E+03  0.23677142448E+03  0.17271882009E+03 0.  0.
         24    2    5    5    0    0 -0.12755338778E+02  0.49632275093E+02  0.53095362839E+02  0.10879720782E+03  0.79947817209E+02 0.  0.
          5    1    5    5  501    0  0.95930419547E+02 -0.18916234449E+02  0.82430824385E+02  0.12797421666E+03  0.47000000000E+01 0. -1.
        -11    1    6    6    0    0  0.26601823779E+02  0.21787706886E+02  0.49741481659E+02  0.60469630372E+02  0.00000000000E+00 0.  1.
         12    1    6    6    0    0 -0.39357162558E+02  0.27844568207E+02  0.33538811809E+01  0.48327577450E+02  0.00000000000E+00 0. -1.
         -5    1    3    3    0  503 -0.89774105773E+01  0.91092425027E+01  0.13581469191E+01  0.13693310874E+02  0.47000000000E+01 0.  1.
         11    1    4    4    0    0 -0.76067074488E+02 -0.29796681703E+02 -0.38679058766E+03  0.39532391878E+03  0.00000000000E+00 0. -1.
        -12    1    4    4    0    0  0.18694042961E+01 -0.10028601444E+02 -0.39481459333E+03  0.39494636424E+03  0.00000000000E+00 0.  1.
<mgrwt>
<rscale>  2 0.19406955E+03</rscale>
<asrwt>0</asrwt>
<pdfrwt beam="1">  1       21 0.30462628E-01 0.19414778E+03</pdfrwt>
<pdfrwt beam="2">  1       21 0.12965046E+00 0.19414778E+03</pdfrwt>
<totfact> 0.44957586E+03</totfact>
</mgrwt>
</event>
<event>
12    1  0.1013215E-001  0.2277214E+03  0.7546771E-02  0.1128546E+00
         21   -1    0    0  501  502  0.00000000000E+00  0.00000000000E+00  0.73493623269E+03  0.73493623269E+03  0.00000000000E+00 0.  1.
         21   -1    0    0  502  503 -0.00000000000E+00 -0.00000000000E+00 -0.13006704003E+03  0.13006704003E+03  0.00000000000E+00 0. -1.
         -6    2    1    2    0  503  0.13418799295E+03  0.59807379839E+02  0.92404531258E+01  0.22790877424E+03  0.17399334259E+03 0.  0.
        -24    2    3    3    0    0  0.76346131262E+02  0.73011164861E+02 -0.52279514966E+02  0.14231194383E+03  0.79750734903E+02 0.  0.
          6    2    1    2  501    0 -0.13418799295E+03 -0.59807379839E+02  0.59562873954E+03  0.63709449848E+03  0.17185012220E+03 0.  0.
         24    2    5    5    0    0 -0.40588100632E+02 -0.66621932429E+02  0.45011136762E+03  0.46387563837E+03  0.80588391339E+02 0.  0.
          5    1    5    5  501    0 -0.93599892319E+02  0.68145525895E+01  0.14551737192E+03  0.17321886011E+03  0.47000000000E+01 0. -1.
        -11    1    6    6    0    0 -0.50991323933E+02 -0.69687669946E+02  0.27074948018E+03  0.28418614934E+03  0.00000000000E+00 0.  1.
         12    1    6    6    0    0  0.10403223301E+02  0.30657375178E+01  0.17936188744E+03  0.17968948903E+03  0.00000000000E+00 0. -1.
         -5    1    3    3    0  503  0.57841861689E+02 -0.13203785022E+02  0.61519968091E+02  0.85596830412E+02  0.47000000000E+01 0.  1.
         11    1    4    4    0    0  0.13863797646E+02 -0.17156089203E+02 -0.13996184797E+02  0.26123351063E+02  0.00000000000E+00 0. -1.
        -12    1    4    4    0    0  0.62482333617E+02  0.90167254064E+02 -0.38283330169E+02  0.11618859276E+03  0.00000000000E+00 0.  1.
<mgrwt>
<rscale>  2 0.22731194E+03</rscale>
<asrwt>0</asrwt>
<pdfrwt beam="1">  1       21 0.11306711E+00 0.22772137E+03</pdfrwt>
<pdfrwt beam="2">  1       21 0.20010314E-01 0.22772137E+03</pdfrwt>
<totfact> 0.13774188E+04</totfact>
</mgrwt>
</event>
<event>
12    1  0.1013215E-001  0.2130804E+03  0.7546771E-02  0.1139503E+00
         21   -1    0    0  503  502  0.00000000000E+00  0.00000000000E+00  0.91974686955E+03  0.91974686955E+03  0.00000000000E+00 0.  1.
         21   -1    0    0  501  503 -0.00000000000E+00 -0.00000000000E+00 -0.49412995380E+02  0.49412995380E+02  0.00000000000E+00 0.  1.
          6    2    1    2  501    0  0.76095968488E+02  0.96791615030E+02  0.38992554376E+03  0.44434807021E+03  0.17390820757E+03 0.  0.
         24    2    3    3    0    0  0.91134093534E+01 -0.13813935768E+02  0.17641322468E+03  0.19468859914E+03  0.80673079402E+02 0.  0.
         -6    2    1    2    0  502 -0.76095968488E+02 -0.96791615030E+02  0.48040833041E+03  0.52481179473E+03  0.17168588409E+03 0.  0.
        -24    2    5    5    0    0 -0.98650679470E+02 -0.36276673117E+02  0.23919037129E+03  0.27505397806E+03  0.85992462213E+02 0.  0.
          5    1    3    3  501    0  0.66982559135E+02  0.11060555080E+03  0.21351231908E+03  0.24965947107E+03  0.47000000000E+01 0. -1.
        -13    1    4    4    0    0  0.40501095108E+02 -0.17186114249E+02  0.13867875765E+03  0.14549054626E+03  0.00000000000E+00 0.  1.
         14    1    4    4    0    0 -0.31387685755E+02  0.33721784812E+01  0.37734467033E+02  0.49198052879E+02  0.00000000000E+00 0. -1.
         -5    1    5    5    0  502  0.22554710982E+02 -0.60514941913E+02  0.24121795913E+03  0.24975781667E+03  0.47000000000E+01 0.  1.
         11    1    6    6    0    0 -0.43706226164E+01 -0.11802706425E+02  0.12209373066E+03  0.12274072384E+03  0.00000000000E+00 0. -1.
        -12    1    6    6    0    0 -0.94280056854E+02 -0.24473966693E+02  0.11709664062E+03  0.15231325422E+03  0.00000000000E+00 0.  1.
<mgrwt>
<rscale>  2 0.21262653E+03</rscale>
<asrwt>0</asrwt>
<pdfrwt beam="1">  1       21 0.14149951E+00 0.21308045E+03</pdfrwt>
<pdfrwt beam="2">  1       21 0.76019999E-02 0.21308045E+03</pdfrwt>
<totfact> 0.45128344E+04</totfact>
</mgrwt>
</event>
<event>
12    1  0.1013215E-001  0.2433916E+03  0.7546771E-02  0.1117775E+00
         21   -1    0    0  503  502  0.00000000000E+00  0.00000000000E+00  0.12086081075E+03  0.12086081075E+03  0.00000000000E+00 0.  1.
         21   -1    0    0  501  503 -0.00000000000E+00 -0.00000000000E+00 -0.17197410762E+04  0.17197410762E+04  0.00000000000E+00 0. -1.
          6    2    1    2  501    0 -0.50076876578E+02 -0.16233582332E+03 -0.15791047613E+04  0.15977519572E+04  0.17429531361E+03 0.  0.
         24    2    3    3    0    0 -0.45249273621E+02 -0.64146956255E+02 -0.12241665578E+04  0.12294211579E+04  0.82038366274E+02 0.  0.
         -6    2    1    2    0  502  0.50076876578E+02  0.16233582332E+03 -0.19775504208E+02  0.24284992984E+03  0.17240767024E+03 0.  0.
        -24    2    5    5    0    0  0.35188341938E+02  0.14627047050E+03 -0.73403315852E+02  0.18473111872E+03  0.78129824627E+02 0.  0.
          5    1    3    3  501    0 -0.48276029573E+01 -0.98188867068E+02 -0.35493820350E+03  0.36833079925E+03  0.47000000000E+01 0. -1.
        -11    1    4    4    0    0  0.15129105036E+02 -0.18166741635E+02 -0.62779905292E+03  0.62824403791E+03  0.00000000000E+00 0.  1.
         12    1    4    4    0    0 -0.60378378657E+02 -0.45980214620E+02 -0.59636750487E+03  0.60117711999E+03  0.00000000000E+00 0. -1.
         -5    1    5    5    0  502  0.14888534640E+02  0.16065352824E+02  0.53627811644E+02  0.58118811127E+02  0.47000000000E+01 0.  1.
         13    1    6    6    0    0 -0.25171432407E+02  0.41206692553E+02 -0.23271052746E+02  0.53601626995E+02  0.00000000000E+00 0. -1.
        -14    1    6    6    0    0  0.60359774346E+02  0.10506377795E+03 -0.50132263106E+02  0.13112949172E+03  0.00000000000E+00 0.  1.
<mgrwt>
<rscale>  2 0.24305385E+03</rscale>
<asrwt>0</asrwt>
<pdfrwt beam="1">  1       21 0.18593972E-01 0.24339160E+03</pdfrwt>
<pdfrwt beam="2">  1       21 0.26457553E+00 0.24339160E+03</pdfrwt>
<totfact> 0.13662721E+03</totfact>
</mgrwt>
</event>
<event>
12    1  0.1013215E-001  0.2001144E+03  0.7546771E-02  0.1149657E+00
         21   -1    0    0  501  502  0.00000000000E+00  0.00000000000E+00  0.15475741078E+04  0.15475741078E+04  0.00000000000E+00 0.  1.
         21   -1    0    0  502  503 -0.00000000000E+00 -0.00000000000E+00 -0.26725087835E+02  0.26725087835E+02  0.00000000000E+00 0.  1.
         -6    2    1    2    0  503 -0.94211257092E+02 -0.34618738414E+02  0.61933003456E+03  0.65083709456E+03  0.17304627684E+03 0.  0.
        -24    2    3    3    0    0 -0.11558714533E+02  0.20498108240E+02  0.42063461199E+03  0.42864062625E+03  0.79028686860E+02 0.  0.
          6    2    1    2  501    0  0.94211257092E+02  0.34618738414E+02  0.90151898545E+03  0.92346210113E+03  0.17312294208E+03 0.  0.
         24    2    5    5    0    0  0.35114318878E+02 -0.25887898457E+01  0.76387955261E+03  0.76904852744E+03  0.81755424522E+02 0.  0.
          5    1    5    5  501    0  0.59096938215E+02  0.37207528260E+02  0.13763943284E+03  0.15441357368E+03  0.47000000000E+01 0. -1.
        -11    1    6    6    0    0  0.74062372800E+01  0.29784360743E+02  0.12363398328E+03  0.12738650760E+03  0.00000000000E+00 0.  1.
         12    1    6    6    0    0  0.27708081598E+02 -0.32373150589E+02  0.64024556933E+03  0.64166201985E+03  0.00000000000E+00 0. -1.
         -5    1    3    3    0  503 -0.82652542559E+02 -0.55116846654E+02  0.19869542257E+03  0.22219646831E+03  0.47000000000E+01 0.  1.
         11    1    4    4    0    0 -0.21266996894E+02  0.48091881555E+02  0.29457711278E+03  0.29923367057E+03  0.00000000000E+00 0. -1.
        -12    1    4    4    0    0  0.97082823603E+01 -0.27593773315E+02  0.12605749921E+03  0.12940695568E+03  0.00000000000E+00 0.  1.
<mgrwt>
<rscale>  2 0.20009781E+03</rscale>
<asrwt>0</asrwt>
<pdfrwt beam="1">  1       21 0.23808825E+00 0.20011440E+03</pdfrwt>
<pdfrwt beam="2">  1       21 0.41115532E-02 0.20011440E+03</pdfrwt>
<totfact> 0.29091201E+04</totfact>
</mgrwt>
</event>
<event>
12    1  0.1013215E-001  0.1794696E+03  0.7546771E-02  0.1168417E+00
         21   -1    0    0  501  502  0.00000000000E+00  0.00000000000E+00  0.18026951257E+03  0.18026951257E+03  0.00000000000E+00 0. -1.
         21   -1    0    0  502  503 -0.00000000000E+00 -0.00000000000E+00 -0.18193009539E+03  0.18193009539E+03  0.00000000000E+00 0. -1.
         -6    2    1    2    0  503 -0.12009436768E+01  0.43029540067E+02  0.24875957006E+02  0.18118535780E+03  0.17423070068E+03 0.  0.
        -24    2    3    3    0    0  0.22961056288E+01  0.81269798389E+02 -0.25919113185E+02  0.11733572299E+03  0.80534584055E+02 0.  0.
          6    2    1    2  501    0  0.12009436768E+01 -0.43029540067E+02 -0.26536539829E+02  0.18101425016E+03  0.17380732789E+03 0.  0.
         24    2    5    5    0    0  0.22779260608E+02  0.33075015013E+01  0.42572762135E+02  0.94927486942E+02  0.81663660348E+02 0.  0.
          5    1    5    5  501    0 -0.21578316931E+02 -0.46337041569E+02 -0.69109301964E+02  0.86086763215E+02  0.47000000000E+01 0. -1.
        -13    1    6    6    0    0  0.40774453313E+02  0.26230962651E+02  0.70709215241E+01  0.48996095516E+02  0.00000000000E+00 0.  1.
         14    1    6    6    0    0 -0.17995192705E+02 -0.22923461150E+02  0.35501840611E+02  0.45931391427E+02  0.00000000000E+00 0. -1.
         -5    1    3    3    0  503 -0.34970493056E+01 -0.38240258322E+02  0.50795070191E+02  0.63849634816E+02  0.47000000000E+01 0.  1.
         11    1    4    4    0    0  0.50770548026E+01  0.61222879842E+01  0.25187849224E+02  0.26413758614E+02  0.00000000000E+00 0. -1.
        -12    1    4    4    0    0 -0.27809491738E+01  0.75147510405E+02 -0.51106962409E+02  0.90921964371E+02  0.00000000000E+00 0.  1.
<mgrwt>
<rscale>  2 0.17936672E+03</rscale>
<asrwt>0</asrwt>
<pdfrwt beam="1">  1       21 0.27733771E-01 0.17946955E+03</pdfrwt>
<pdfrwt beam="2">  1       21 0.27989246E-01 0.17946955E+03</pdfrwt>
<totfact> 0.15195445E+05</totfact>
</mgrwt>
</event>
<event>
12    1  0.1013215E-001  0.3575775E+03  0.7546771E-02  0.1059611E+00
         21   -1    0    0  501  502  0.00000000000E+00  0.00000000000E+00  0.51834578778E+03  0.51834578778E+03  0.00000000000E+00 0. -1.
         21   -1    0    0  502  503 -0.00000000000E+00 -0.00000000000E+00 -0.33657169949E+03  0.33657169949E+03  0.00000000000E+00 0.  1.
         -6    2    1    2    0  503 -0.28634060790E+03 -0.12650441217E+03 -0.13063088057E+03  0.38009278156E+03  0.17149864608E+03 0.  0.
        -24    2    3    3    0    0 -0.10460058384E+03 -0.24231746543E+02 -0.10448283792E+03  0.16986684450E+03  0.80060113416E+02 0.  0.
          6    2    1    2  501    0  0.28634060790E+03  0.12650441217E+03  0.31240496887E+03  0.47482470570E+03  0.17282166109E+03 0.  0.
         24    2    5    5    0    0  0.15910032745E+03  0.20078431970E+02  0.22339711592E+03  0.28651361703E+03  0.80422159372E+02 0.  0.
          5    1    5    5  501    0  0.12724028045E+03  0.10642598020E+03  0.89007852946E+02  0.18831108867E+03  0.47000000000E+01 0. -1.
        -11    1    6    6    0    0  0.43210964321E+02  0.39036971379E+01  0.12922031915E+03  0.13630963712E+03  0.00000000000E+00 0.  1.
         12    1    6    6    0    0  0.11588936313E+03  0.16174734832E+02  0.94176796769E+02  0.15020397991E+03  0.00000000000E+00 0. -1.
         -5    1    3    3    0  503 -0.18174002406E+03 -0.10227266563E+03 -0.26148042652E+02  0.21022593706E+03  0.47000000000E+01 0.  1.
         11    1    4    4    0    0  0.13462209328E+01  0.13121246025E+02  0.39138072600E+01  0.13758535362E+02  0.00000000000E+00 0. -1.
        -12    1    4    4    0    0 -0.10594680477E+03 -0.37352992568E+02 -0.10839664518E+03  0.15610830914E+03  0.00000000000E+00 0.  1.
<mgrwt>
<rscale>  2 0.35741796E+03</rscale>
<asrwt>0</asrwt>
<pdfrwt beam="1">  1       21 0.79745506E-01 0.35757746E+03</pdfrwt>
<pdfrwt beam="2">  1       21 0.51780261E-01 0.35757746E+03</pdfrwt>
<totfact> 0.44564623E+03</totfact>
</mgrwt>
</event>
<event>
12    1  0.1013215E-001  0.2237187E+03  0.7546771E-02  0.1131170E+00
         21   -1    0    0  501  502  0.00000000000E+00  0.00000000000E+00  0.11393650652E+04  0.11393650652E+04  0.00000000000E+00 0.  1.
         21   -1    0    0  502  503 -0.00000000000E+00 -0.00000000000E+00 -0.44891282104E+02  0.44891282104E+02  0.00000000000E+00 0.  1.
         -6    2    1    2    0  503  0.27974359303E+02 -0.13802699526E+03  0.45892027194E+03  0.51047720533E+03  0.17362357261E+03 0.  0.
        -24    2    3    3    0    0 -0.28592159258E+02 -0.16604315862E+02  0.21703486153E+03  0.23393809442E+03  0.80806472664E+02 0.  0.
          6    2    1    2  501    0 -0.27974359303E+02  0.13802699526E+03  0.63555351119E+03  0.67377914201E+03  0.17382764574E+03 0.  0.
         24    2    5    5    0    0 -0.61146089600E+02  0.11422874841E+03  0.30783904707E+03  0.34349807952E+03  0.80243382887E+02 0.  0.
          5    1    5    5  501    0  0.33171730297E+02  0.23798246846E+02  0.32771446412E+03  0.33028106249E+03  0.47000000000E+01 0. -1.
        -13    1    6    6    0    0 -0.31590503467E+02  0.87715805816E+02  0.27971133871E+03  0.29483971154E+03  0.00000000000E+00 0.  1.
         14    1    6    6    0    0 -0.29555586133E+02  0.26512942596E+02  0.28127708356E+02  0.48658367977E+02  0.00000000000E+00 0. -1.
         -5    1    3    3    0  503  0.56566518561E+02 -0.12142267940E+03  0.24188541041E+03  0.27653911091E+03  0.47000000000E+01 0.  1.
         13    1    4    4    0    0  0.13752805127E+02 -0.20946824661E+02  0.19179932491E+02  0.31555964929E+02  0.00000000000E+00 0. -1.
        -14    1    4    4    0    0 -0.42344964386E+02  0.43425087988E+01  0.19785492904E+03  0.20238212949E+03  0.00000000000E+00 0.  1.
<mgrwt>
<rscale>  2 0.22367908E+03</rscale>
<asrwt>0</asrwt>
<pdfrwt beam="1">  1       21 0.17528691E+00 0.22371872E+03</pdfrwt>
<pdfrwt beam="2">  1       21 0.69063520E-02 0.22371872E+03</pdfrwt>
<totfact> 0.29750002E+04</totfact>
</mgrwt>
</event>
<event>
12    1  0.1013215E-001  0.2591536E+03  0.7546771E-02  0.1107663E+00
         21   -1    0    0  503  502  0.00000000000E+00  0.00000000000E+00  0.31684476341E+03  0.31684476341E+03  0.00000000000E+00 0. -1.
         21   -1    0    0  501  503 -0.00000000000E+00 -0.00000000000E+00 -0.23470593492E+03  0.23470593492E+03  0.00000000000E+00 0. -1.
          6    2    1    2  501    0  0.18593245757E+03 -0.54164931192E+02 -0.44879190891E+02  0.26294338211E+03  0.17210567066E+03 0.  0.
         24    2    3    3    0    0  0.61564696822E+02 -0.67655349628E+02  0.19640112070E+02  0.12210957311E+03  0.78470093768E+02 0.  0.
         -6    2    1    2    0  502 -0.18593245757E+03  0.54164931192E+02  0.12701801938E+03  0.28860731622E+03  0.17220884757E+03 0.  0.
        -24    2    5    5    0    0 -0.16069108513E+03 -0.19246527549E+02  0.99187561682E+02  0.20600590260E+03  0.80051270138E+02 0.  0.
          5    1    3    3  501    0  0.12436776074E+03  0.13490418436E+02 -0.64519302961E+02  0.14083380900E+03  0.47000000000E+01 0. -1.
        -13    1    4    4    0    0  0.35192408300E+02 -0.34523237082E+02  0.49835903800E+02  0.70099763252E+02  0.00000000000E+00 0.  1.
         14    1    4    4    0    0  0.26372288522E+02 -0.33132112547E+02 -0.30195791730E+02  0.52009809862E+02  0.00000000000E+00 0. -1.
         -5    1    5    5    0  502 -0.25241372439E+02  0.73411458742E+02  0.27830457699E+02  0.82601413625E+02  0.47000000000E+01 0.  1.
         11    1    6    6    0    0 -0.47273680729E+02  0.20714020882E+02  0.60850821732E+02  0.79791566323E+02  0.00000000000E+00 0. -1.
        -12    1    6    6    0    0 -0.11341740440E+03 -0.39960548431E+02  0.38336739950E+02  0.12621433628E+03  0.00000000000E+00 0.  1.
<mgrwt>
<rscale>  2 0.25913649E+03</rscale>
<asrwt>0</asrwt>
<pdfrwt beam="1">  1       21 0.48745348E-01 0.25915363E+03</pdfrwt>
<pdfrwt beam="2">  1       21 0.36108606E-01 0.25915363E+03</pdfrwt>
<totfact> 0.28750833E+04</totfact>
</mgrwt>
</event>
<event>
12    1  0.1013215E-001  0.2571340E+03  0.7546771E-02  0.1108940E+00
         21   -1    0    0  501  502  0.00000000000E+00  0.00000000000E+00  0.17288054959E+03  0.17288054959E+03  0.00000000000E+00 0.  1.
         21   -1    0    0  502  503 -0.00000000000E+00 -0.00000000000E+00 -0.38784735716E+03  0.38784735716E+03  0.00000000000E+00 0.  1.
         -6    2    1    2    0  503 -0.17528066310E+03  0.74051878158E+02 -0.72491650749E+02  0.26676007151E+03  0.17233370188E+03 0.  0.
        -24    2    3    3    0    0 -0.80749676039E+02  0.14077677969E+02  0.27195370237E+02  0.11678472568E+03  0.78615474250E+02 0.  0.
          6    2    1    2  501    0  0.17528066310E+03 -0.74051878158E+02 -0.14247515682E+03  0.29396783524E+03  0.17294775607E+03 0.  0.
         24    2    5    5    0    0  0.49506782720E+02 -0.89026931350E+02 -0.69860365718E+02  0.14789141999E+03  0.81330716021E+02 0.  0.
          5    1    5    5  501    0  0.12577388038E+03  0.14975053192E+02 -0.72614791104E+02  0.14607641525E+03  0.47000000000E+01 0. -1.
        -13    1    6    6    0    0  0.46436779786E+02 -0.25017095131E+02  0.46330799384E+00  0.52748878851E+02  0.00000000000E+00 0.  1.
         14    1    6    6    0    0  0.30700029338E+01 -0.64009836219E+02 -0.70323673712E+02  0.95142541143E+02  0.00000000000E+00 0. -1.
         -5    1    3    3    0  503 -0.94530987064E+02  0.59974200189E+02 -0.99687020986E+02  0.14997534583E+03  0.47000000000E+01 0.  1.
         11    1    4    4    0    0 -0.96649298298E+02  0.11942381215E+02  0.21247908003E+02  0.99675377727E+02  0.00000000000E+00 0. -1.
        -12    1    4    4    0    0  0.15899622259E+02  0.21352967540E+01  0.59474622343E+01  0.17109347949E+02  0.00000000000E+00 0.  1.
<mgrwt>
<rscale>  2 0.25703083E+03</rscale>
<asrwt>0</asrwt>
<pdfrwt beam="1">  1       21 0.26597008E-01 0.25713405E+03</pdfrwt>
<pdfrwt beam="2">  1       21 0.59668824E-01 0.25713405E+03</pdfrwt>
<totfact> 0.34198804E+04</totfact>
</mgrwt>
</event>
<event>
12    1  0.1013215E-001  0.1800291E+03  0.7546771E-02  0.1167783E+00
         21   -1    0    0  503  502  0.00000000000E+00  0.00000000000E+00  0.47901967134E+02  0.47901967134E+02  0.00000000000E+00 0.  1.
         21   -1    0    0  501  503 -0.00000000000E+00 -0.00000000000E+00 -0.73003984402E+03  0.73003984402E+03  0.00000000000E+00 0.  1.
          6    2    1    2  501    0  0.26679182676E+01 -0.50955952594E+02 -0.44640165130E+03  0.48132413029E+03  0.17261186871E+03 0.  0.
         24    2    3    3    0    0 -0.60980789997E+02 -0.37813096653E+01 -0.25781312909E+03  0.27671639410E+03  0.79821038451E+02 0.  0.
         -6    2    1    2    0  502 -0.26679182676E+01  0.50955952594E+02 -0.23573622558E+03  0.29661768087E+03  0.17264661496E+03 0.  0.
        -24    2    5    5    0    0  0.27317256340E+02 -0.20790383263E+02 -0.18430438344E+03  0.20326902371E+03  0.78560280790E+02 0.  0.
          5    1    3    3  501    0  0.63648708265E+02 -0.47174642929E+02 -0.18858852221E+03  0.20460773619E+03  0.47000000000E+01 0. -1.
        -13    1    4    4    0    0 -0.25864774450E+02 -0.39958449597E+02 -0.15605931455E+03  0.16315689966E+03  0.00000000000E+00 0.  1.
         14    1    4    4    0    0 -0.35116015547E+02  0.36177139932E+02 -0.10175381454E+03  0.11355949443E+03  0.00000000000E+00 0. -1.
         -5    1    5    5    0  502 -0.29985174608E+02  0.71746335857E+02 -0.51431842146E+02  0.93348657150E+02  0.47000000000E+01 0.  1.
         13    1    6    6    0    0 -0.14756426630E+02 -0.15448617124E+02 -0.94780405866E+01  0.23371888055E+02  0.00000000000E+00 0. -1.
        -14    1    6    6    0    0  0.42073682970E+02 -0.53417661394E+01 -0.17482634285E+03  0.17989713566E+03  0.00000000000E+00 0.  1.
<mgrwt>
<rscale>  2 0.18002078E+03</rscale>
<asrwt>0</asrwt>
<pdfrwt beam="1">  1       21 0.73695336E-02 0.18002911E+03</pdfrwt>
<pdfrwt beam="2">  1       21 0.11231382E+00 0.18002911E+03</pdfrwt>
<totfact> 0.86414826E+04</totfact>
</mgrwt>
</event>
<event>
12    1  0.1013215E-001  0.3031980E+03  0.7546771E-02  0.1083681E+00
         21   -1    0    0  503  502  0.00000000000E+00  0.00000000000E+00  0.87229830160E+03  0.87229830160E+03  0.00000000000E+00 0.  1.
         21   -1    0    0  501  503 -0.00000000000E+00 -0.00000000000E+00 -0.17693301478E+03  0.17693301478E+03  0.00000000000E+00 0.  1.
          6    2    1    2  501    0  0.10263425567E+03 -0.22692627885E+03  0.13974424066E+02  0.30351990152E+03  0.17291535393E+03 0.  0.
         24    2    3    3    0    0  0.62373096814E+02 -0.64996131472E+02 -0.41156648136E+02  0.12772496797E+03  0.80652944426E+02 0.  0.
         -6    2    1    2    0  502 -0.10263425567E+03  0.22692627885E+03  0.68139086276E+03  0.74571141485E+03  0.17251863646E+03 0.  0.
        -24    2    5    5    0    0 -0.17158083501E+01  0.14067259717E+03  0.45846898903E+03  0.48621096707E+03  0.80097234709E+02 0.  0.
          5    1    3    3  501    0  0.40261158856E+02 -0.16193014737E+03  0.55131072202E+02  0.17579493355E+03  0.47000000000E+01 0. -1.
        -13    1    4    4    0    0 -0.67401217956E+01 -0.49498256671E+02 -0.19920654520E+02  0.53780471658E+02  0.00000000000E+00 0.  1.
         14    1    4    4    0    0  0.69113218609E+02 -0.15497874801E+02 -0.21235993616E+02  0.73944496311E+02  0.00000000000E+00 0. -1.
         -5    1    5    5    0  502 -0.10091844732E+03  0.86253681672E+02  0.22292187373E+03  0.25950044778E+03  0.47000000000E+01 0.  1.
         13    1    6    6    0    0 -0.31440703366E+01  0.65071002480E+02  0.96523237526E+02  0.11645108812E+03  0.00000000000E+00 0. -1.
        -14    1    6    6    0    0  0.14282619865E+01  0.75601594694E+02  0.36194575150E+03  0.36975987895E+03  0.00000000000E+00 0.  1.
<mgrwt>
<rscale>  2 0.30314150E+03</rscale>
<asrwt>0</asrwt>
<pdfrwt beam="1">  1       21 0.13419974E+00 0.30319803E+03</pdfrwt>
<pdfrwt beam="2">  1       21 0.27220464E-01 0.30319803E+03</pdfrwt>
<totfact> 0.47662566E+03</totfact>
</mgrwt>
</event>
<event>
12    1  0.1013215E-001  0.2289752E+03  0.7546771E-02  0.1127425E+00
         21   -1    0    0  503  502  0.00000000000E+00  0.00000000000E+00  0.15281847847E+03  0.15281847847E+03  0.00000000000E+00 0.  1.
         21   -1    0    0  501  503 -0.00000000000E+00 -0.00000000000E+00 -0.66013231891E+03  0.66013231891E+03  0.00000000000E+00 0. -1.
          6    2    1    2  501    0 -0.20477430771E+02 -0.14836754238E+03 -0.53548531116E+03  0.58224912564E+03  0.17273468972E+03 0.  0.
         24    2    3    3    0    0  0.39451446191E+02 -0.30689026868E+02 -0.17682046530E+03  0.20001586575E+03  0.79010357716E+02 0.  0.
         -6    2    1    2    0  502  0.20477430771E+02  0.14836754238E+03  0.28171470719E+02  0.23070167174E+03  0.17319750800E+03 0.  0.
        -24    2    5    5    0    0 -0.41381496557E+02  0.13671975707E+03  0.82875602407E+01  0.16452268951E+03  0.81205366069E+02 0.  0.
          5    1    3    3  501    0 -0.59928876962E+02 -0.11767851551E+03 -0.35866484587E+03  0.38223325989E+03  0.47000000000E+01 0. -1.
        -11    1    4    4    0    0  0.14208218073E+01 -0.47773252580E+02 -0.65032748798E+02  0.80706634255E+02  0.00000000000E+00 0.  1.
         12    1    4    4    0    0  0.38030624384E+02  0.17084225712E+02 -0.11178771650E+03  0.11930923149E+03  0.00000000000E+00 0. -1.
         -5    1    5    5    0  502  0.61858927328E+02  0.11647785309E+02  0.19883910478E+02  0.66178982227E+02  0.47000000000E+01 0.  1.
         13    1    6    6    0    0 -0.34279522332E+01  0.88000421647E+02 -0.28590636335E+02  0.92591843877E+02  0.00000000000E+00 0. -1.
        -14    1    6    6    0    0 -0.37953544324E+02  0.48719335423E+02  0.36878196575E+02  0.71930845633E+02  0.00000000000E+00 0.  1.
<mgrwt>
<rscale>  2 0.22888765E+03</rscale>
<asrwt>0</asrwt>
<pdfrwt beam="1">  1       21 0.23510535E-01 0.22897517E+03</pdfrwt>
<pdfrwt beam="2">  1       21 0.10155882E+00 0.22897517E+03</pdfrwt>
<totfact> 0.13162148E+04</totfact>
</mgrwt>
</event>
<event>
12    1  0.1013215E-001  0.1884412E+03  0.7546771E-02  0.1162321E+00
         21   -1    0    0  503  502  0.00000000000E+00  0.00000000000E+00  0.69867787818E+02  0.69867787818E+02  0.00000000000E+00 0. -1.
         21   -1    0    0  501  503 -0.00000000000E+00 -0.00000000000E+00 -0.49644187019E+03  0.49644187019E+03  0.00000000000E+00 0. -1.
          6    2    1    2  501    0 -0.38145732188E+02 -0.32148136820E+01 -0.15678728238E+03  0.23722761833E+03  0.17386563511E+03 0.  0.
         24    2    3    3    0    0 -0.64939116088E+02 -0.47311535370E+02 -0.14159979771E+03  0.18323543394E+03  0.84078840159E+02 0.  0.
         -6    2    1    2    0  502  0.38145732188E+02  0.32148136820E+01 -0.26978679999E+03  0.32908203967E+03  0.18451189522E+03 0.  0.
        -24    2    5    5    0    0  0.60394697586E+02 -0.64852394305E+02 -0.18528691496E+03  0.21821959412E+03  0.73723794392E+02 0.  0.
          5    1    3    3  501    0  0.26793383900E+02  0.44096721688E+02 -0.15187484669E+02  0.53992184388E+02  0.47000000000E+01 0. -1.
        -13    1    4    4    0    0  0.75553481936E+01 -0.37446233326E+02 -0.75595887941E+02  0.84699716352E+02  0.00000000000E+00 0.  1.
         14    1    4    4    0    0 -0.72494464281E+02 -0.98653020444E+01 -0.66003909773E+02  0.98535717591E+02  0.00000000000E+00 0. -1.
         -5    1    5    5    0  502 -0.22248965397E+02  0.68067207987E+02 -0.84499885022E+02  0.11086244555E+03  0.47000000000E+01 0.  1.
         13    1    6    6    0    0  0.17311293633E+02 -0.48694833668E+02 -0.38654541233E+02  0.64537130949E+02  0.00000000000E+00 0. -1.
        -14    1    6    6    0    0  0.43083403953E+02 -0.16157560637E+02 -0.14663237373E+03  0.15368246318E+03  0.00000000000E+00 0.  1.
<mgrwt>
<rscale>  2 0.18578265E+03</rscale>
<asrwt>0</asrwt>
<pdfrwt beam="1">  1       21 0.10748890E-01 0.18844116E+03</pdfrwt>
<pdfrwt beam="2">  1       21 0.76375673E-01 0.18844116E+03</pdfrwt>
<totfact> 0.10917917E+05</totfact>
</mgrwt>
</event>
<event>
12    1  0.1013215E-001  0.1929645E+03  0.7546771E-02  0.1156241E+00
         21   -1    0    0  503  502  0.00000000000E+00  0.00000000000E+00  0.23962339022E+03  0.23962339022E+03  0.00000000000E+00 0.  1.
         21   -1    0    0  501  503 -0.00000000000E+00 -0.00000000000E+00 -0.15447598638E+03  0.15447598638E+03  0.00000000000E+00 0. -1.
          6    2    1    2  501    0 -0.10375830168E+02  0.83066795298E+02  0.55337927217E+02  0.20074257404E+03  0.17386070433E+03 0.  0.
         24    2    3    3    0    0 -0.94867861038E+01  0.11566103816E+03  0.77747407921E+02  0.16089975923E+03  0.79853604939E+02 0.  0.
         -6    2    1    2    0  502  0.10375830168E+02 -0.83066795298E+02  0.29809476621E+02  0.19335680256E+03  0.17172797636E+03 0.  0.
        -24    2    5    5    0    0 -0.42820712351E+02 -0.70292259671E+02  0.60153090884E+02  0.13062016396E+03  0.81661604890E+02 0.  0.
          5    1    3    3  501    0 -0.88904406449E+00 -0.32594242861E+02 -0.22409480704E+02  0.39842814815E+02  0.47000000000E+01 0. -1.
        -13    1    4    4    0    0  0.12510447241E+02  0.32856285383E+02  0.65517564938E+02  0.74354543201E+02  0.00000000000E+00 0.  1.
         14    1    4    4    0    0 -0.21997233345E+02  0.82804752776E+02  0.12229842983E+02  0.86545216024E+02  0.00000000000E+00 0. -1.
         -5    1    5    5    0  502  0.53196542519E+02 -0.12774535628E+02 -0.30343614263E+02  0.62736638602E+02  0.47000000000E+01 0.  1.
         13    1    6    6    0    0 -0.16674295436E+02 -0.25093092556E+02 -0.19128682257E+02  0.35687559559E+02  0.00000000000E+00 0. -1.
        -14    1    6    6    0    0 -0.26146416915E+02 -0.45199167114E+02  0.79281773141E+02  0.94932604398E+02  0.00000000000E+00 0.  1.
<mgrwt>
<rscale>  2 0.19248285E+03</rscale>
<asrwt>0</asrwt>
<pdfrwt beam="1">  1       21 0.36865137E-01 0.19296449E+03</pdfrwt>
<pdfrwt beam="2">  1       21 0.23765536E-01 0.19296449E+03</pdfrwt>
<totfact> 0.11836460E+05</totfact>
</mgrwt>
</event>
<event>
12    1  0.1013215E-001  0.2165171E+03  0.7546771E-02  0.1136514E+00
         21   -1    0    0  503  502  0.00000000000E+00  0.00000000000E+00  0.31330684292E+03  0.31330684292E+03  0.00000000000E+00 0. -1.
         21   -1    0    0  501  503 -0.00000000000E+00 -0.00000000000E+00 -0.30933478352E+03  0.30933478352E+03  0.00000000000E+00 0. -1.
          6    2    1    2  501    0  0.58576781943E+02 -0.11613707142E+03 -0.22172816897E+03  0.30987931478E+03  0.17303973553E+03 0.  0.
         24    2    3    3    0    0  0.43772387126E+02 -0.14537250137E+03 -0.14108086919E+03  0.22270158005E+03  0.81504577023E+02 0.  0.
         -6    2    1    2    0  502 -0.58576781943E+02  0.11613707142E+03  0.22570022837E+03  0.31276231165E+03  0.17309133936E+03 0.  0.
        -24    2    5    5    0    0  0.36192727342E+02  0.57903505257E+02  0.10163716667E+03  0.14607055601E+03  0.79647751081E+02 0.  0.
          5    1    3    3  501    0  0.14804394817E+02  0.29235429954E+02 -0.80647299782E+02  0.87177734730E+02  0.47000000000E+01 0. -1.
        -11    1    4    4    0    0  0.59076585081E+02 -0.74352714865E+02 -0.53817049437E+02  0.10915422082E+03  0.00000000000E+00 0.  1.
         12    1    4    4    0    0 -0.15304197954E+02 -0.71019786509E+02 -0.87263819753E+02  0.11354735923E+03  0.00000000000E+00 0. -1.
         -5    1    5    5    0  502 -0.94769509285E+02  0.58233566163E+02  0.12406306170E+03  0.16669175564E+03  0.47000000000E+01 0.  1.
         13    1    6    6    0    0 -0.12199375508E+01  0.62925287476E+02  0.82449602059E+02  0.10372568116E+03  0.00000000000E+00 0. -1.
        -14    1    6    6    0    0  0.37412664893E+02 -0.50217822195E+01  0.19187564611E+02  0.42344874858E+02  0.00000000000E+00 0.  1.
<mgrwt>
<rscale>  2 0.21650682E+03</rscale>
<asrwt>0</asrwt>
<pdfrwt beam="1">  1       21 0.48201053E-01 0.21651714E+03</pdfrwt>
<pdfrwt beam="2">  1       21 0.47589967E-01 0.21651714E+03</pdfrwt>
<totfact> 0.17113443E+04</totfact>
</mgrwt>
</event>
<event>
12    1  0.1013215E-001  0.2350473E+03  0.7546771E-02  0.1123543E+00
         21   -1    0    0  501  502  0.00000000000E+00  0.00000000000E+00  0.29191250711E+04  0.29191250711E+04  0.00000000000E+00 0. -1.
         21   -1    0    0  502  503 -0.00000000000E+00 -0.00000000000E+00 -0.21341058684E+02  0.21341058684E+02  0.00000000000E+00 0. -1.
         -6    2    1    2    0  503  0.14277955866E+03  0.65831477674E+02  0.94168562887E+03  0.97057666883E+03  0.17472109384E+03 0.  0.
        -24    2    3    3    0    0  0.10909202694E+03 -0.11264283711E+02  0.39749767272E+03  0.41990323762E+03  0.79286661681E+02 0.  0.
          6    2    1    2  501    0 -0.14277955866E+03 -0.65831477674E+02  0.19560983836E+04  0.19698894610E+04  0.17153371811E+03 0.  0.
         24    2    5    5    0    0 -0.36248256259E+02 -0.15044031038E+02  0.44159049966E+03  0.45078297902E+03  0.81626379473E+02 0.  0.
          5    1    5    5  501    0 -0.10653130240E+03 -0.50787446636E+02  0.15145078839E+04  0.15191064820E+04  0.47000000000E+01 0. -1.
        -13    1    6    6    0    0 -0.18419022299E+02 -0.48394142786E+02  0.28703395134E+03  0.29166717790E+03  0.00000000000E+00 0.  1.
         14    1    6    6    0    0 -0.17829233960E+02  0.33350111748E+02  0.15455654832E+03  0.15911580112E+03  0.00000000000E+00 0. -1.
         -5    1    3    3    0  503  0.33687531716E+02  0.77095761386E+02  0.54418795615E+03  0.55067343121E+03  0.47000000000E+01 0.  1.
         13    1    4    4    0    0  0.79462538177E+02  0.55866129310E+01  0.36211365381E+03  0.37077190225E+03  0.00000000000E+00 0. -1.
        -14    1    4    4    0    0  0.29629488763E+02 -0.16850896643E+02  0.35384018905E+02  0.49131335376E+02  0.00000000000E+00 0.  1.
<mgrwt>
<rscale>  2 0.23445521E+03</rscale>
<asrwt>0</asrwt>
<pdfrwt beam="1">  1       21 0.44909585E+00 0.23504733E+03</pdfrwt>
<pdfrwt beam="2">  1       21 0.32832421E-02 0.23504733E+03</pdfrwt>
<totfact> 0.21684125E+03</totfact>
</mgrwt>
</event>
<event>
12    1  0.1013215E-001  0.1893882E+03  0.7546771E-02  0.1159113E+00
         21   -1    0    0  501  502  0.00000000000E+00  0.00000000000E+00  0.53844059709E+02  0.53844059709E+02  0.00000000000E+00 0.  1.
         21   -1    0    0  502  503 -0.00000000000E+00 -0.00000000000E+00 -0.66507239110E+03  0.66507239110E+03  0.00000000000E+00 0.  1.
         -6    2    1    2    0  503  0.15963281766E+02 -0.72181137456E+02 -0.29654852003E+03  0.35186489296E+03  0.17436437480E+03 0.  0.
        -24    2    3    3    0    0 -0.10653101679E+02 -0.86718618843E+02 -0.11631575059E+03  0.16903789438E+03  0.86086285031E+02 0.  0.
          6    2    1    2  501    0 -0.15963281766E+02  0.72181137456E+02 -0.31467981137E+03  0.36705155785E+03  0.17389226397E+03 0.  0.
         24    2    5    5    0    0 -0.54703704504E+02  0.97957772945E+02 -0.25790808416E+03  0.29349631126E+03  0.83876601511E+02 0.  0.
          5    1    5    5  501    0  0.38740422738E+02 -0.25776635489E+02 -0.56771727204E+02  0.73555246589E+02  0.47000000000E+01 0. -1.
        -11    1    6    6    0    0 -0.36822902935E+02  0.91467770992E+02 -0.25605540299E+03  0.27438412620E+03  0.00000000000E+00 0.  1.
         12    1    6    6    0    0 -0.17880801569E+02  0.64900019522E+01 -0.18526811673E+01  0.19112185055E+02  0.00000000000E+00 0. -1.
         -5    1    3    3    0  503  0.26616383445E+02  0.14537481387E+02 -0.18023276944E+03  0.18282699859E+03  0.47000000000E+01 0.  1.
         13    1    4    4    0    0 -0.37573033243E+02 -0.76908851603E+01 -0.27844787053E+02  0.47394247622E+02  0.00000000000E+00 0. -1.
        -14    1    4    4    0    0  0.26919931564E+02 -0.79027733683E+02 -0.88470963538E+02  0.12164364675E+03  0.00000000000E+00 0.  1.
<mgrwt>
<rscale>  2 0.18927943E+03</rscale>
<asrwt>0</asrwt>
<pdfrwt beam="1">  1       21 0.82837019E-02 0.18938817E+03</pdfrwt>
<pdfrwt beam="2">  1       21 0.10231882E+00 0.18938817E+03</pdfrwt>
<totfact> 0.87907149E+04</totfact>
</mgrwt>
</event>
<event>
12    1  0.1013215E-001  0.1799763E+03  0.7546771E-02  0.1169152E+00
         21   -1    0    0  501  502  0.00000000000E+00  0.00000000000E+00  0.22857564193E+03  0.22857564193E+03  0.00000000000E+00 0.  1.
         21   -1    0    0  502  503 -0.00000000000E+00 -0.00000000000E+00 -0.35841629894E+03  0.35841629894E+03  0.00000000000E+00 0.  1.
         -6    2    1    2    0  503  0.28525390117E+02 -0.89299264880E+01 -0.29571140293E+03  0.34617437842E+03  0.17747682944E+03 0.  0.
        -24    2    3    3    0    0 -0.46697619108E+02 -0.38639219655E+02 -0.16351952448E+03  0.19113268743E+03  0.78226673158E+02 0.  0.
          6    2    1    2  501    0 -0.28525390117E+02  0.89299264880E+01  0.16587074592E+03  0.24081756245E+03  0.17200742008E+03 0.  0.
         24    2    5    5    0    0 -0.55160760783E+02  0.86619697698E+01  0.22392562912E+02  0.94812104431E+02  0.73281437093E+02 0.  0.
          5    1    5    5  501    0  0.26635370666E+02  0.26795671811E+00  0.14347818301E+03  0.14600545802E+03  0.47000000000E+01 0. -1.
        -13    1    6    6    0    0  0.16800457214E+02  0.98701795184E+01  0.95657817033E+01  0.21706680675E+02  0.00000000000E+00 0.  1.
         14    1    6    6    0    0 -0.71961217997E+02 -0.12082097486E+01  0.12826781208E+02  0.73105423756E+02  0.00000000000E+00 0. -1.
         -5    1    3    3    0  503  0.75223009225E+02  0.29709293167E+02 -0.13219187845E+03  0.15504169099E+03  0.47000000000E+01 0.  1.
         11    1    4    4    0    0 -0.20978087840E+02  0.11961503523E+02 -0.77789520104E+01  0.25370648993E+02  0.00000000000E+00 0. -1.
        -12    1    4    4    0    0 -0.25719531268E+02 -0.50600723178E+02 -0.15574057247E+03  0.16576203844E+03  0.00000000000E+00 0.  1.
<mgrwt>
<rscale>  2 0.17861311E+03</rscale>
<asrwt>0</asrwt>
<pdfrwt beam="1">  1       21 0.35165484E-01 0.17997629E+03</pdfrwt>
<pdfrwt beam="2">  1       21 0.55140969E-01 0.17997629E+03</pdfrwt>
<totfact> 0.24361214E+04</totfact>
</mgrwt>
</event>
<event>
12    1  0.1013215E-001  0.2083672E+03  0.7546771E-02  0.1143467E+00
         21   -1    0    0  501  502  0.00000000000E+00  0.00000000000E+00  0.94041747981E+02  0.94041747981E+02  0.00000000000E+00 0.  1.
         21   -1    0    0  502  503 -0.00000000000E+00 -0.00000000000E+00 -0.83568586927E+03  0.83568586927E+03  0.00000000000E+00 0.  1.
         -6    2    1    2    0  503 -0.86617601835E+02 -0.69960522245E+02 -0.68307658129E+03  0.71328587835E+03  0.17258633991E+03 0.  0.
        -24    2    3    3    0    0 -0.87326190621E+02 -0.85650916753E+02 -0.34087917727E+03  0.37069597205E+03  0.79088223459E+02 0.  0.
          6    2    1    2  501    0  0.86617601835E+02  0.69960522245E+02 -0.58567539998E+02  0.21644173890E+03  0.17612434805E+03 0.  0.
         24    2    5    5    0    0  0.55441073703E+02  0.70442838460E+02  0.29070317822E+02  0.12330370876E+03  0.79516130897E+02 0.  0.
          5    1    5    5  501    0  0.31176528133E+02 -0.48231621446E+00 -0.87637857819E+02  0.93138030141E+02  0.47000000000E+01 0. -1.
        -13    1    6    6    0    0  0.39953873493E+02  0.29178520685E+02  0.53534274395E+02  0.72894558175E+02  0.00000000000E+00 0.  1.
         14    1    6    6    0    0  0.15487200209E+02  0.41264317775E+02 -0.24463956574E+02  0.50409150588E+02  0.00000000000E+00 0. -1.
         -5    1    3    3    0  503  0.70858878557E+00  0.15690394508E+02 -0.34219740402E+03  0.34258990629E+03  0.47000000000E+01 0.  1.
         11    1    4    4    0    0 -0.59370936316E+02 -0.54155272079E+01 -0.11884565732E+03  0.13296061928E+03  0.00000000000E+00 0. -1.
        -12    1    4    4    0    0 -0.27955254305E+02 -0.80235389545E+02 -0.22203351995E+03  0.23773535278E+03  0.00000000000E+00 0.  1.
<mgrwt>
<rscale>  2 0.20761766E+03</rscale>
<asrwt>0</asrwt>
<pdfrwt beam="1">  1       21 0.14467961E-01 0.20836715E+03</pdfrwt>
<pdfrwt beam="2">  1       21 0.12856706E+00 0.20836715E+03</pdfrwt>
<totfact> 0.18430705E+04</totfact>
</mgrwt>
</event>
<event>
12    1  0.1013215E-001  0.2141092E+03  0.7546771E-02  0.1138396E+00
         21   -1    0    0  503  502  0.00000000000E+00  0.00000000000E+00  0.53698766345E+03  0.53698766345E+03  0.00000000000E+00 0.  1.
         21   -1    0    0  501  503 -0.00000000000E+00 -0.00000000000E+00 -0.27778627225E+03  0.27778627225E+03  0.00000000000E+00 0.  1.
          6    2    1    2  501    0 -0.12196949824E+03  0.34407811936E+02 -0.20951426219E+03  0.29956467281E+03  0.17257552292E+03 0.  0.
         24    2    3    3    0    0 -0.43496371933E+02  0.80298728008E+02 -0.12964528220E+03  0.17846491354E+03  0.81865780864E+02 0.  0.
         -6    2    1    2    0  502  0.12196949824E+03 -0.34407811936E+02  0.46871565339E+03  0.51520926290E+03  0.17229557401E+03 0.  0.
        -24    2    5    5    0    0  0.11004262966E+03  0.13537960012E+02  0.43089486454E+03  0.45281095113E+03  0.84111333828E+02 0.  0.
          5    1    3    3  501    0 -0.78473126312E+02 -0.45890916072E+02 -0.79868979982E+02  0.12109975927E+03  0.47000000000E+01 0. -1.
        -11    1    4    4    0    0 -0.42610394055E+02  0.69768603929E+01 -0.22660637192E+02  0.48762964845E+02  0.00000000000E+00 0.  1.
         12    1    4    4    0    0 -0.88597787746E+00  0.73321867615E+02 -0.10698464501E+03  0.12970194870E+03  0.00000000000E+00 0. -1.
         -5    1    5    5    0  502  0.11926868580E+02 -0.47945771948E+02  0.37820788851E+02  0.62398311765E+02  0.47000000000E+01 0.  1.
         13    1    6    6    0    0  0.16949149877E+02  0.39066686472E+02  0.13763431369E+03  0.14407180147E+03  0.00000000000E+00 0. -1.
        -14    1    6    6    0    0  0.93093479787E+02 -0.25528726460E+02  0.29326055084E+03  0.30873914966E+03  0.00000000000E+00 0.  1.
<mgrwt>
<rscale>  2 0.21405282E+03</rscale>
<asrwt>0</asrwt>
<pdfrwt beam="1">  1       21 0.82613486E-01 0.21410924E+03</pdfrwt>
<pdfrwt beam="2">  1       21 0.42736350E-01 0.21410924E+03</pdfrwt>
<totfact> 0.66294552E+03</totfact>
</mgrwt>
</event>
<event>
12    1  0.1013215E-001  0.1837086E+03  0.7546771E-02  0.1164371E+00
         21   -1    0    0  503  502  0.00000000000E+00  0.00000000000E+00  0.76616923533E+03  0.76616923533E+03  0.00000000000E+00 0. -1.
         21   -1    0    0  501  503 -0.00000000000E+00 -0.00000000000E+00 -0.24164347379E+03  0.24164347379E+03  0.00000000000E+00 0. -1.
          6    2    1    2  501    0 -0.15918248909E+02  0.60018952968E+02 -0.19359567441E+03  0.26656560859E+03  0.17240148829E+03 0.  0.
         24    2    3    3    0    0 -0.33805240667E+02  0.10300393454E+03 -0.15935770319E+03  0.20858300957E+03  0.79745780389E+02 0.  0.
         -6    2    1    2    0  502  0.15918248909E+02 -0.60018952968E+02  0.71812143595E+03  0.74124710053E+03  0.17289650633E+03 0.  0.
        -24    2    5    5    0    0 -0.57388184666E+02 -0.47770365660E+02  0.44990170006E+03  0.46288083493E+03  0.79194166849E+02 0.  0.
          5    1    3    3  501    0  0.17886991758E+02 -0.42984981572E+02 -0.34237971227E+02  0.57982599016E+02  0.47000000000E+01 0. -1.
        -11    1    4    4    0    0 -0.21823930146E+02  0.11353367386E+03 -0.12260154438E+03  0.16851503705E+03  0.00000000000E+00 0.  1.
         12    1    4    4    0    0 -0.11981310520E+02 -0.10529739319E+02 -0.36756158806E+02  0.40067972523E+02  0.00000000000E+00 0. -1.
         -5    1    5    5    0  502  0.73306433575E+02 -0.12248587307E+02  0.26821973590E+03  0.27836626559E+03  0.47000000000E+01 0.  1.
         13    1    6    6    0    0 -0.31339721890E+02  0.11055879509E+02  0.69021778088E+02  0.76605590464E+02  0.00000000000E+00 0. -1.
        -14    1    6    6    0    0 -0.26048462776E+02 -0.58826245169E+02  0.38087992197E+03  0.38627524447E+03  0.00000000000E+00 0.  1.
<mgrwt>
<rscale>  2 0.18359209E+03</rscale>
<asrwt>0</asrwt>
<pdfrwt beam="1">  1       21 0.11787219E+00 0.18370865E+03</pdfrwt>
<pdfrwt beam="2">  1       21 0.37175919E-01 0.18370865E+03</pdfrwt>
<totfact> 0.38811770E+03</totfact>
</mgrwt>
</event>
<event>
12    1  0.1013215E-001  0.2019142E+03  0.7546771E-02  0.1148358E+00
         21   -1    0    0  503  502  0.00000000000E+00  0.00000000000E+00  0.55026186821E+03  0.55026186821E+03  0.00000000000E+00 0. -1.
         21   -1    0    0  501  503 -0.00000000000E+00 -0.00000000000E+00 -0.10600664572E+03  0.10600664572E+03  0.00000000000E+00 0. -1.
          6    2    1    2  501    0  0.61484133420E+02  0.83327625887E+02  0.40560826010E+02  0.20489450173E+03  0.17208365505E+03 0.  0.
         24    2    3    3    0    0  0.26470925491E+02 -0.18650252379E+02  0.40842971159E+02  0.96970537800E+02  0.81771603249E+02 0.  0.
         -6    2    1    2    0  502 -0.61484133420E+02 -0.83327625887E+02  0.40369439648E+03  0.45137401220E+03  0.17333649716E+03 0.  0.
        -24    2    5    5    0    0  0.21430693071E+01 -0.10643741298E+03  0.27806541918E+03  0.30859021368E+03  0.81080373709E+02 0.  0.
          5    1    3    3  501    0  0.35013207929E+02  0.10197787827E+03 -0.28214514920E+00  0.10792396393E+03  0.47000000000E+01 0. -1.
        -11    1    4    4    0    0 -0.85043464844E+01 -0.40112693122E+02  0.37888128619E+02  0.55828866627E+02  0.00000000000E+00 0.  1.
         12    1    4    4    0    0  0.34975271976E+02  0.21462440743E+02  0.29548425399E+01  0.41141671172E+02  0.00000000000E+00 0. -1.
         -5    1    5    5    0  502 -0.63627202727E+02  0.23109787097E+02  0.12562897729E+03  0.14278379853E+03  0.47000000000E+01 0.  1.
         11    1    6    6    0    0  0.22161883049E+02 -0.36052379225E+02  0.35532331742E+02  0.55258209409E+02  0.00000000000E+00 0. -1.
        -12    1    6    6    0    0 -0.20018813742E+02 -0.70385033760E+02  0.24253308744E+03  0.25333200427E+03  0.00000000000E+00 0.  1.
<mgrwt>
<rscale>  2 0.20164501E+03</rscale>
<asrwt>0</asrwt>
<pdfrwt beam="1">  1       21 0.84655670E-01 0.20191417E+03</pdfrwt>
<pdfrwt beam="2">  1       21 0.16308715E-01 0.20191417E+03</pdfrwt>
<totfact> 0.40521156E+04</totfact>
</mgrwt>
</event>
<event>
12    1  0.1013215E-001  0.1732347E+03  0.7546771E-02  0.1174882E+00
         21   -1    0    0  503  502  0.00000000000E+00  0.00000000000E+00  0.26987181064E+03  0.26987181064E+03  0.00000000000E+00 0.  1.
         21   -1    0    0  501  503 -0.00000000000E+00 -0.00000000000E+00 -0.57400284433E+03  0.57400284433E+03  0.00000000000E+00 0.  1.
          6    2    1    2  501    0  0.73648289797E+01 -0.14146373285E+02 -0.53118739145E+03  0.55827906840E+03  0.17105879923E+03 0.  0.
         24    2    3    3    0    0  0.71161944282E+01 -0.29889259230E+02 -0.53428950905E+03  0.54155742343E+03  0.82916556589E+02 0.  0.
         -6    2    1    2    0  502 -0.73648289797E+01  0.14146373285E+02  0.22705635777E+03  0.28559558657E+03  0.17249895328E+03 0.  0.
        -24    2    5    5    0    0 -0.23969593525E+02 -0.47219030934E+02  0.80407101591E+02  0.12569084812E+03  0.80800427098E+02 0.  0.
          5    1    3    3  501    0  0.24863455151E+00  0.15742885945E+02  0.31021175919E+01  0.16721644972E+02  0.47000000000E+01 0. -1.
        -13    1    4    4    0    0 -0.31894372890E+02 -0.36874025900E+02 -0.28647530129E+03  0.29059429289E+03  0.00000000000E+00 0.  1.
         14    1    4    4    0    0  0.39010567318E+02  0.69847666705E+01 -0.24781420775E+03  0.25096313054E+03  0.00000000000E+00 0. -1.
         -5    1    5    5    0  502  0.16604764545E+02  0.61365404219E+02  0.14664925618E+03  0.15990473845E+03  0.47000000000E+01 0.  1.
         11    1    6    6    0    0  0.27122754707E+02 -0.29835293642E+02  0.48204573189E+02  0.62844804447E+02  0.00000000000E+00 0. -1.
        -12    1    6    6    0    0 -0.51092348232E+02 -0.17383737292E+02  0.32202528401E+02  0.62846043674E+02  0.00000000000E+00 0.  1.
<mgrwt>
<rscale>  2 0.17287505E+03</rscale>
<asrwt>0</asrwt>
<pdfrwt beam="1">  1       21 0.41518740E-01 0.17323467E+03</pdfrwt>
<pdfrwt beam="2">  1       21 0.88308130E-01 0.17323467E+03</pdfrwt>
<totfact> 0.62247508E+03</totfact>
</mgrwt>
</event>
<event>
12    1  0.1013215E-001  0.1844351E+03  0.7546771E-02  0.1164032E+00
         21   -1    0    0  503  502  0.00000000000E+00  0.00000000000E+00  0.15204145507E+02  0.15204145507E+02  0.00000000000E+00 0.  1.
         21   -1    0    0  501  503 -0.00000000000E+00 -0.00000000000E+00 -0.24003493697E+04  0.24003493697E+04  0.00000000000E+00 0. -1.
          6    2    1    2  501    0  0.88553102710E+01 -0.63041657978E+02 -0.15233006127E+04  0.15341952190E+04  0.17104837335E+03 0.  0.
         24    2    3    3    0    0  0.34496231445E+02 -0.95274409415E+01 -0.43395678427E+03  0.44322624835E+03  0.82766264252E+02 0.  0.
         -6    2    1    2    0  502 -0.88553102710E+01  0.63041657978E+02 -0.86184461143E+03  0.88135829620E+03  0.17310010071E+03 0.  0.
        -24    2    5    5    0    0 -0.71498130876E+02  0.24819436275E+02 -0.47571431186E+03  0.48828863386E+03  0.79960592245E+02 0.  0.
          5    1    3    3  501    0 -0.25640921174E+02 -0.53514217036E+02 -0.10893438285E+04  0.10909689706E+04  0.47000000000E+01 0. -1.
        -11    1    4    4    0    0  0.36850533437E+02  0.31860672895E+02 -0.23625353288E+03  0.24122353967E+03  0.00000000000E+00 0.  1.
         12    1    4    4    0    0 -0.23543019915E+01 -0.41388113836E+02 -0.19770325139E+03  0.20200270868E+03  0.00000000000E+00 0. -1.
         -5    1    5    5    0  502  0.62642820605E+02  0.38222221702E+02 -0.38613029957E+03  0.39306966234E+03  0.47000000000E+01 0.  1.
         11    1    6    6    0    0  0.93055777329E+01  0.22307963888E+02 -0.58201156864E+02  0.63020740158E+02  0.00000000000E+00 0. -1.
        -12    1    6    6    0    0 -0.80803708609E+02  0.25114723875E+01 -0.41751315500E+03  0.42526789370E+03  0.00000000000E+00 0.  1.
<mgrwt>
<rscale>  2 0.18395216E+03</rscale>
<asrwt>0</asrwt>
<pdfrwt beam="1">  1       21 0.23391006E-02 0.18443512E+03</pdfrwt>
<pdfrwt beam="2">  1       21 0.36928431E+00 0.18443512E+03</pdfrwt>
<totfact> 0.12925515E+04</totfact>
</mgrwt>
</event>
<event>
12    1  0.1013215E-001  0.1860325E+03  0.7546771E-02  0.1162576E+00
         21   -1    0    0  503  502  0.00000000000E+00  0.00000000000E+00  0.10247446128E+03  0.10247446128E+03  0.00000000000E+00 0.  1.
         21   -1    0    0  501  503 -0.00000000000E+00 -0.00000000000E+00 -0.73239821667E+03  0.73239821667E+03  0.00000000000E+00 0.  1.
          6    2    1    2  501    0 -0.51604916954E+02 -0.38157649874E+02 -0.62366462979E+03  0.65081921206E+03  0.17461100377E+03 0.  0.
         24    2    3    3    0    0  0.27348477725E+02 -0.14490549555E+02 -0.45721266010E+03  0.46501792470E+03  0.78995813056E+02 0.  0.
         -6    2    1    2    0  502  0.51604916954E+02  0.38157649874E+02 -0.62591256054E+01  0.18405346589E+03  0.17238743561E+03 0.  0.
        -24    2    5    5    0    0  0.77356024054E+02  0.24226037923E+02  0.46832981646E+02  0.12324169745E+03  0.80151933536E+02 0.  0.
          5    1    3    3  501    0 -0.78953394679E+02 -0.23667100319E+02 -0.16645196969E+03  0.18580128736E+03  0.47000000000E+01 0. -1.
        -11    1    4    4    0    0 -0.49074003308E+01  0.87969896069E+01 -0.35777868409E+03  0.35792046099E+03  0.00000000000E+00 0.  1.
         12    1    4    4    0    0  0.32255878056E+02 -0.23287539162E+02 -0.99433976002E+02  0.10709746371E+03  0.00000000000E+00 0. -1.
         -5    1    5    5    0  502 -0.25751107100E+02  0.13931611951E+02 -0.53092107252E+02  0.60811768441E+02  0.47000000000E+01 0.  1.
         13    1    6    6    0    0  0.62515559842E+02  0.25661726617E+02 -0.64758602805E+01  0.67887084204E+02  0.00000000000E+00 0. -1.
        -14    1    6    6    0    0  0.14840464212E+02 -0.14356886934E+01  0.53308841927E+02  0.55354613246E+02  0.00000000000E+00 0.  1.
<mgrwt>
<rscale>  2 0.18550889E+03</rscale>
<asrwt>0</asrwt>
<pdfrwt beam="1">  1       21 0.15765302E-01 0.18603246E+03</pdfrwt>
<pdfrwt beam="2">  1       21 0.11267665E+00 0.18603246E+03</pdfrwt>
<totfact> 0.22161184E+04</totfact>
</mgrwt>
</event>
<event>
12    1  0.1013215E-001  0.1811926E+03  0.7546771E-02  0.1167960E+00
         21   -1    0    0  501  502  0.00000000000E+00  0.00000000000E+00  0.41072205255E+03  0.41072205255E+03  0.00000000000E+00 0. -1.
         21   -1    0    0  502  503 -0.00000000000E+00 -0.00000000000E+00 -0.13601848431E+03  0.13601848431E+03  0.00000000000E+00 0. -1.
         -6    2    1    2    0  503 -0.45290357438E+01  0.46586067115E+02 -0.40633061325E+02  0.18569272498E+03  0.17504276227E+03 0.  0.
        -24    2    3    3    0    0 -0.29485622476E+02  0.62745508069E+02  0.28956517102E+02  0.10987215931E+03  0.80168639707E+02 0.  0.
          6    2    1    2  501    0  0.45290357438E+01 -0.46586067115E+02  0.31533662957E+03  0.36104781189E+03  0.16949206089E+03 0.  0.
         24    2    5    5    0    0  0.47815793206E+02 -0.50426592901E+02  0.29415532919E+03  0.31247590132E+03  0.79275720537E+02 0.  0.
          5    1    5    5  501    0 -0.43286757462E+02  0.38405257856E+01  0.21181300382E+02  0.48571910563E+02  0.47000000000E+01 0. -1.
        -13    1    6    6    0    0  0.53546883250E+02 -0.40982953455E+02  0.11748597453E+03  0.13546152734E+03  0.00000000000E+00 0.  1.
         14    1    6    6    0    0 -0.57310900448E+01 -0.94436394457E+01  0.17666935466E+03  0.17701437398E+03  0.00000000000E+00 0. -1.
         -5    1    3    3    0  503  0.24956586732E+02 -0.16159440954E+02 -0.69589578427E+02  0.75820565672E+02  0.47000000000E+01 0.  1.
         11    1    4    4    0    0 -0.40995672571E+02  0.47896179560E+02 -0.12576536222E+02  0.64287311729E+02  0.00000000000E+00 0. -1.
        -12    1    4    4    0    0  0.11510050095E+02  0.14849328509E+02  0.41533053323E+02  0.45584847578E+02  0.00000000000E+00 0.  1.
<mgrwt>
<rscale>  2 0.17983833E+03</rscale>
<asrwt>0</asrwt>
<pdfrwt beam="1">  1       21 0.63188008E-01 0.18119256E+03</pdfrwt>
<pdfrwt beam="2">  1       21 0.20925921E-01 0.18119256E+03</pdfrwt>
<totfact> 0.49418227E+04</totfact>
</mgrwt>
</event>
<event>
12    1  0.1013215E-001  0.1783299E+03  0.7546771E-02  0.1170058E+00
         21   -1    0    0  501  502  0.00000000000E+00  0.00000000000E+00  0.25367420450E+03  0.25367420450E+03  0.00000000000E+00 0. -1.
         21   -1    0    0  502  503 -0.00000000000E+00 -0.00000000000E+00 -0.18014633181E+03  0.18014633181E+03  0.00000000000E+00 0. -1.
         -6    2    1    2    0  503  0.13785599969E+02  0.29684944894E+02 -0.84965104130E+02  0.19523811512E+03  0.17270672817E+03 0.  0.
        -24    2    3    3    0    0  0.15834793329E+02 -0.35556865329E+02 -0.64737694181E+00  0.88503574725E+02  0.79482276580E+02 0.  0.
          6    2    1    2  501    0 -0.13785599969E+02 -0.29684944894E+02  0.15849297682E+03  0.23858242119E+03  0.17530062545E+03 0.  0.
         24    2    5    5    0    0  0.26900085433E+01 -0.51727567133E+02  0.20339805392E+02  0.97636645641E+02  0.80226115082E+02 0.  0.
          5    1    5    5  501    0 -0.16475608513E+02  0.22042622238E+02  0.13815317142E+03  0.14094577555E+03  0.47000000000E+01 0. -1.
        -11    1    6    6    0    0  0.39727219162E+02 -0.34247706048E+02  0.12880247001E+01  0.52467288090E+02  0.00000000000E+00 0.  1.
         12    1    6    6    0    0 -0.37037210619E+02 -0.17479861085E+02  0.19051780692E+02  0.45169357550E+02  0.00000000000E+00 0. -1.
         -5    1    3    3    0  503 -0.20491933594E+01  0.65241810223E+02 -0.84317727188E+02  0.10673454039E+03  0.47000000000E+01 0.  1.
         11    1    4    4    0    0 -0.36464680956E+01 -0.20973360462E+02 -0.38214133718E+02  0.43743554890E+02  0.00000000000E+00 0. -1.
        -12    1    4    4    0    0  0.19481261424E+02 -0.14583504867E+02  0.37566756776E+02  0.44760019834E+02  0.00000000000E+00 0.  1.
<mgrwt>
<rscale>  2 0.17768914E+03</rscale>
<asrwt>0</asrwt>
<pdfrwt beam="1">  1       21 0.39026801E-01 0.17832989E+03</pdfrwt>
<pdfrwt beam="2">  1       21 0.27714820E-01 0.17832989E+03</pdfrwt>
<totfact> 0.79128024E+04</totfact>
</mgrwt>
</event>
<event>
12    1  0.1013215E-001  0.1781823E+03  0.7546771E-02  0.1169663E+00
         21   -1    0    0  501  502  0.00000000000E+00  0.00000000000E+00  0.41646784510E+03  0.41646784510E+03  0.00000000000E+00 0.  1.
         21   -1    0    0  502  503 -0.00000000000E+00 -0.00000000000E+00 -0.76833060088E+02  0.76833060088E+02  0.00000000000E+00 0.  1.
         -6    2    1    2    0  503 -0.31319203879E+02 -0.20226948220E+02  0.14555571796E+03  0.23007692858E+03  0.17423806722E+03 0.  0.
        -24    2    3    3    0    0 -0.84654505883E+02 -0.10634348424E+02  0.14110797105E+03  0.17550088197E+03  0.60080157681E+02 0.  0.
          6    2    1    2  501    0  0.31319203879E+02  0.20226948220E+02  0.19407906705E+03  0.26322397661E+03  0.17386821339E+03 0.  0.
         24    2    5    5    0    0  0.23441894103E+02 -0.15012689365E+02  0.21900696453E+02  0.87237143666E+02  0.79723117656E+02 0.  0.
          5    1    5    5  501    0  0.78773097756E+01  0.35239637585E+02  0.17217837060E+03  0.17598683294E+03  0.47000000000E+01 0. -1.
        -13    1    6    6    0    0 -0.19428404209E+02  0.16325385637E+01 -0.17862321309E+02  0.26442212366E+02  0.00000000000E+00 0.  1.
         14    1    6    6    0    0  0.42870298312E+02 -0.16645227928E+02  0.39763017762E+02  0.60794931300E+02  0.00000000000E+00 0. -1.
         -5    1    3    3    0  503  0.53335302004E+02 -0.95925997968E+01  0.44477469103E+01  0.54576046608E+02  0.47000000000E+01 0.  1.
         11    1    4    4    0    0 -0.49875685055E+02 -0.22808595388E+02  0.12250958998E+03  0.13422524211E+03  0.00000000000E+00 0. -1.
        -12    1    4    4    0    0 -0.34778820828E+02  0.12174246964E+02  0.18598381066E+02  0.41275639858E+02  0.00000000000E+00 0.  1.
<mgrwt>
<rscale>  2 0.17809180E+03</rscale>
<asrwt>0</asrwt>
<pdfrwt beam="1">  1       21 0.64071975E-01 0.17818228E+03</pdfrwt>
<pdfrwt beam="2">  1       21 0.11820471E-01 0.17818228E+03</pdfrwt>
<totfact> 0.13624303E+05</totfact>
</mgrwt>
</event>
<event>
12    1  0.1013215E-001  0.1894846E+03  0.7546771E-02  0.1159115E+00
         21   -1    0    0  503  502  0.00000000000E+00  0.00000000000E+00  0.63866315766E+02  0.63866315766E+02  0.00000000000E+00 0. -1.
         21   -1    0    0  501  503 -0.00000000000E+00 -0.00000000000E+00 -0.60686388592E+03  0.60686388592E+03  0.00000000000E+00 0. -1.
          6    2    1    2  501    0 -0.24329218660E+02  0.68223976643E+02 -0.36550914961E+03  0.41170541136E+03  0.17509421870E+03 0.  0.
         24    2    3    3    0    0 -0.66095401275E+01  0.64859855478E+02 -0.95736257161E+02  0.14128942104E+03  0.80912191228E+02 0.  0.
         -6    2    1    2    0  502  0.24329218660E+02 -0.68223976643E+02 -0.17748842054E+03  0.25902479033E+03  0.17419896873E+03 0.  0.
        -24    2    5    5    0    0  0.21581994569E+02 -0.10512973057E+03 -0.83375429681E+02  0.15778780617E+03  0.80171608206E+02 0.  0.
          5    1    3    3  501    0 -0.17719678532E+02  0.33641211649E+01 -0.26977289245E+03  0.27041599032E+03  0.47000000000E+01 0. -1.
        -13    1    4    4    0    0  0.10791705206E+02  0.42051872463E+01  0.11845739497E+02  0.16567016788E+02  0.00000000000E+00 0.  1.
         14    1    4    4    0    0 -0.17401245334E+02  0.60654668232E+02 -0.10758199666E+03  0.12472240425E+03  0.00000000000E+00 0. -1.
         -5    1    5    5    0  502  0.27472240906E+01  0.36905753923E+02 -0.94112990862E+02  0.10123698416E+03  0.47000000000E+01 0.  1.
         13    1    6    6    0    0  0.48430247320E+02 -0.50765754587E+02 -0.61593454818E+02  0.93361685775E+02  0.00000000000E+00 0. -1.
        -14    1    6    6    0    0 -0.26848252751E+02 -0.54363975979E+02 -0.21781974864E+02  0.64426120393E+02  0.00000000000E+00 0.  1.
<mgrwt>
<rscale>  2 0.18927751E+03</rscale>
<asrwt>0</asrwt>
<pdfrwt beam="1">  1       21 0.98255870E-02 0.18948458E+03</pdfrwt>
<pdfrwt beam="2">  1       21 0.93363675E-01 0.18948458E+03</pdfrwt>
<totfact> 0.80864664E+04</totfact>
</mgrwt>
</event>
<event>
12    1  0.1013215E-001  0.1818301E+03  0.7546771E-02  0.1167038E+00
         21   -1    0    0  501  502  0.00000000000E+00  0.00000000000E+00  0.26782047172E+03  0.26782047172E+03  0.00000000000E+00 0.  1.
         21   -1    0    0  502  503 -0.00000000000E+00 -0.00000000000E+00 -0.28064752088E+03  0.28064752088E+03  0.00000000000E+00 0.  1.
         -6    2    1    2    0  503  0.73094378740E+01  0.40809894200E+02 -0.21348630273E+03  0.28042574050E+03  0.17704044492E+03 0.  0.
        -24    2    3    3    0    0 -0.21997894275E+02  0.91744151869E+02 -0.15872317503E+03  0.19996265284E+03  0.76753628468E+02 0.  0.
          6    2    1    2  501    0 -0.73094378740E+01 -0.40809894200E+02  0.20065925356E+03  0.26804225210E+03  0.17281098786E+03 0.  0.
         24    2    5    5    0    0 -0.30694531171E+02  0.33363984305E+02  0.14666744366E+03  0.17324862163E+03  0.80302155480E+02 0.  0.
          5    1    5    5  501    0  0.23385093297E+02 -0.74173878506E+02  0.53991809908E+02  0.94793630473E+02  0.47000000000E+01 0. -1.
        -11    1    6    6    0    0  0.22654420137E+02  0.11261153740E+02  0.14845211448E+02  0.29332859361E+02  0.00000000000E+00 0.  1.
         12    1    6    6    0    0 -0.53348951308E+02  0.22102830565E+02  0.13182223221E+03  0.14391576227E+03  0.00000000000E+00 0. -1.
         -5    1    3    3    0  503  0.29307332149E+02 -0.50934257669E+02 -0.54763127695E+02  0.80463087667E+02  0.47000000000E+01 0.  1.
         11    1    4    4    0    0  0.20414777570E+02  0.17955396520E+02 -0.10702882982E+02  0.29218335194E+02  0.00000000000E+00 0. -1.
        -12    1    4    4    0    0 -0.42412671845E+02  0.73788755348E+02 -0.14802029205E+03  0.17074431764E+03  0.00000000000E+00 0.  1.
<mgrwt>
<rscale>  2 0.18079242E+03</rscale>
<asrwt>0</asrwt>
<pdfrwt beam="1">  1       21 0.41203150E-01 0.18183013E+03</pdfrwt>
<pdfrwt beam="2">  1       21 0.43176541E-01 0.18183013E+03</pdfrwt>
<totfact> 0.29428880E+04</totfact>
</mgrwt>
</event>
<event>
12    1  0.1013215E-001  0.1751461E+03  0.7546771E-02  0.1172690E+00
         21   -1    0    0  503  502  0.00000000000E+00  0.00000000000E+00  0.22215486723E+03  0.22215486723E+03  0.00000000000E+00 0.  1.
         21   -1    0    0  501  503 -0.00000000000E+00 -0.00000000000E+00 -0.26055123452E+03  0.26055123452E+03  0.00000000000E+00 0. -1.
          6    2    1    2  501    0  0.91046018474E+01  0.20779978058E+02 -0.18487674377E+03  0.25438033895E+03  0.17324908425E+03 0.  0.
         24    2    3    3    0    0 -0.61678553081E+02  0.22647836506E+02 -0.10848887250E+03  0.15011653509E+03  0.80299254313E+02 0.  0.
         -6    2    1    2    0  502 -0.91046018474E+01 -0.20779978058E+02  0.14648037649E+03  0.22832576279E+03  0.17367052714E+03 0.  0.
        -24    2    5    5    0    0 -0.17274014434E+02 -0.88870156297E+01  0.95259879401E+00  0.82008962877E+02  0.79669265882E+02 0.  0.
          5    1    3    3  501    0  0.70783154929E+02 -0.18678584472E+01 -0.76387871277E+02  0.10426380386E+03  0.47000000000E+01 0. -1.
        -13    1    4    4    0    0  0.94926337342E+01  0.30227181975E+02 -0.26702752632E+02  0.41434642795E+02  0.00000000000E+00 0.  1.
         14    1    4    4    0    0 -0.71171186816E+02 -0.75793454695E+01 -0.81786119865E+02  0.10868189230E+03  0.00000000000E+00 0. -1.
         -5    1    5    5    0  502  0.81694125868E+01 -0.11892962429E+02  0.14552777769E+03  0.14631679992E+03  0.47000000000E+01 0.  1.
         13    1    6    6    0    0 -0.12862046455E+02  0.32382275912E+02 -0.14474632840E+02  0.37730081210E+02  0.00000000000E+00 0. -1.
        -14    1    6    6    0    0 -0.44119679792E+01 -0.41269291542E+02  0.15427231634E+02  0.44278881667E+02  0.00000000000E+00 0.  1.
<mgrwt>
<rscale>  2 0.17504153E+03</rscale>
<asrwt>0</asrwt>
<pdfrwt beam="1">  1       21 0.34177672E-01 0.17514609E+03</pdfrwt>
<pdfrwt beam="2">  1       21 0.40084805E-01 0.17514609E+03</pdfrwt>
<totfact> 0.49889433E+04</totfact>
</mgrwt>
</event>
<event>
12    1  0.1013215E-001  0.2453010E+03  0.7546771E-02  0.1116315E+00
         21   -1    0    0  503  502  0.00000000000E+00  0.00000000000E+00  0.57842608958E+02  0.57842608958E+02  0.00000000000E+00 0.  1.
         21   -1    0    0  501  503 -0.00000000000E+00 -0.00000000000E+00 -0.20532912390E+04  0.20532912390E+04  0.00000000000E+00 0.  1.
          6    2    1    2  501    0  0.14450052861E+03  0.95549733114E+02 -0.17391622740E+04  0.17563729525E+04  0.17363864319E+03 0.  0.
         24    2    3    3    0    0  0.13998593619E+03  0.66547035470E+02 -0.16884262432E+04  0.16975701222E+04  0.83286079032E+02 0.  0.
         -6    2    1    2    0  502 -0.14450052861E+03 -0.95549733114E+02 -0.25628635604E+03  0.35476089554E+03  0.17367337863E+03 0.  0.
        -24    2    5    5    0    0 -0.58098833133E+02 -0.10176150014E+03 -0.91481982665E+02  0.16851801510E+03  0.79363032562E+02 0.  0.
          5    1    3    3  501    0  0.45145924199E+01  0.29002697644E+02 -0.50736030852E+02  0.58802830221E+02  0.47000000000E+01 0. -1.
        -11    1    4    4    0    0  0.31613498412E+02  0.43895817019E+02 -0.87128424062E+03  0.87296190294E+03  0.00000000000E+00 0.  1.
         12    1    4    4    0    0  0.10837243778E+03  0.22651218451E+02 -0.81714200257E+03  0.82460821930E+03  0.00000000000E+00 0. -1.
         -5    1    5    5    0  502 -0.86401695481E+02  0.62117670289E+01 -0.16480437337E+03  0.18624288044E+03  0.47000000000E+01 0.  1.
         11    1    6    6    0    0  0.14287266004E+02 -0.51923254639E+01  0.26894636005E+01  0.15437597872E+02  0.00000000000E+00 0. -1.
        -12    1    6    6    0    0 -0.72386099136E+02 -0.96569174679E+02 -0.94171446266E+02  0.15308041723E+03  0.00000000000E+00 0.  1.
<mgrwt>
<rscale>  2 0.24529488E+03</rscale>
<asrwt>0</asrwt>
<pdfrwt beam="1">  1       21 0.88988640E-02 0.24530103E+03</pdfrwt>
<pdfrwt beam="2">  1       21 0.31589092E+00 0.24530103E+03</pdfrwt>
<totfact> 0.25949296E+03</totfact>
</mgrwt>
</event>
<event>
12    1  0.1013215E-001  0.1796707E+03  0.7546771E-02  0.1168220E+00
         21   -1    0    0  501  502  0.00000000000E+00  0.00000000000E+00  0.23213370628E+03  0.23213370628E+03  0.00000000000E+00 0. -1.
         21   -1    0    0  502  503 -0.00000000000E+00 -0.00000000000E+00 -0.13972599898E+03  0.13972599898E+03  0.00000000000E+00 0.  1.
         -6    2    1    2    0  503  0.43279950197E+02 -0.19686321677E+02  0.61677408712E+02  0.18957997536E+03  0.17284605567E+03 0.  0.
        -24    2    3    3    0    0  0.93210121381E+02 -0.32986995629E+02  0.38757485128E+02  0.13285834968E+03  0.79830632080E+02 0.  0.
          6    2    1    2  501    0 -0.43279950197E+02  0.19686321677E+02  0.30730298586E+02  0.18227972991E+03  0.17326523983E+03 0.  0.
         24    2    5    5    0    0 -0.51464422493E+02  0.33092308078E+02 -0.39971863735E+02  0.10970155265E+03  0.81810715228E+02 0.  0.
          5    1    5    5  501    0  0.81844722958E+01 -0.13405986401E+02  0.70702162321E+02  0.72578177264E+02  0.47000000000E+01 0. -1.
        -13    1    6    6    0    0 -0.12933595517E+02  0.24037500060E+02 -0.59576469774E+02  0.65531939182E+02  0.00000000000E+00 0.  1.
         14    1    6    6    0    0 -0.38530826975E+02  0.90548080183E+01  0.19604606039E+02  0.44169613465E+02  0.00000000000E+00 0. -1.
         -5    1    3    3    0  503 -0.49930171184E+02  0.13300673953E+02  0.22919923584E+02  0.56721625675E+02  0.47000000000E+01 0.  1.
         13    1    4    4    0    0  0.63546787435E+02 -0.66115568943E+01 -0.15392847263E+02  0.65717932292E+02  0.00000000000E+00 0. -1.
        -14    1    4    4    0    0  0.29663333946E+02 -0.26375438735E+02  0.54150332391E+02  0.67140417390E+02  0.00000000000E+00 0.  1.
<mgrwt>
<rscale>  2 0.17956953E+03</rscale>
<asrwt>0</asrwt>
<pdfrwt beam="1">  1       21 0.35712878E-01 0.17967067E+03</pdfrwt>
<pdfrwt beam="2">  1       21 0.21496308E-01 0.17967067E+03</pdfrwt>
<totfact> 0.15307402E+05</totfact>
</mgrwt>
</event>
<event>
12    1  0.1013215E-001  0.2455130E+03  0.7546771E-02  0.1116343E+00
         21   -1    0    0  503  502  0.00000000000E+00  0.00000000000E+00  0.11388782734E+04  0.11388782734E+04  0.00000000000E+00 0. -1.
         21   -1    0    0  501  503 -0.00000000000E+00 -0.00000000000E+00 -0.77005593683E+02  0.77005593683E+02  0.00000000000E+00 0.  1.
          6    2    1    2  501    0  0.63734851729E+02  0.16289224056E+03  0.18862527372E+03  0.30877985724E+03  0.17079078721E+03 0.  0.
         24    2    3    3    0    0  0.30256736555E+02  0.11032104491E+03  0.36231122382E+02  0.14406622038E+03  0.79725645617E+02 0.  0.
         -6    2    1    2    0  502 -0.63734851729E+02 -0.16289224056E+03  0.87324740596E+03  0.90710400980E+03  0.17228069890E+03 0.  0.
        -24    2    5    5    0    0 -0.83403690449E+02 -0.15263920540E+03  0.85939851604E+03  0.88053580138E+03  0.80762525573E+02 0.  0.
          5    1    3    3  501    0  0.33478115174E+02  0.52571195645E+02  0.15239415133E+03  0.16471363686E+03  0.47000000000E+01 0. -1.
        -13    1    4    4    0    0  0.39700909675E+02  0.86692064164E+02  0.57114669166E+02  0.11114747704E+03  0.00000000000E+00 0.  1.
         14    1    4    4    0    0 -0.94441731203E+01  0.23628980749E+02 -0.20883546784E+02  0.32918743345E+02  0.00000000000E+00 0. -1.
         -5    1    5    5    0  502  0.19668838720E+02 -0.10253035160E+02  0.13848889927E+02  0.26568208422E+02  0.47000000000E+01 0.  1.
         13    1    6    6    0    0 -0.54526898199E+02 -0.40149394337E+02  0.44687115591E+03  0.45197232933E+03  0.00000000000E+00 0. -1.
        -14    1    6    6    0    0 -0.28876792250E+02 -0.11248981106E+03  0.41252736013E+03  0.42856347205E+03  0.00000000000E+00 0.  1.
<mgrwt>
<rscale>  2 0.24525182E+03</rscale>
<asrwt>0</asrwt>
<pdfrwt beam="1">  1       21 0.17521203E+00 0.24551304E+03</pdfrwt>
<pdfrwt beam="2">  1       21 0.11847015E-01 0.24551304E+03</pdfrwt>
<totfact> 0.11349275E+04</totfact>
</mgrwt>
</event>
<event>
12    1  0.1013215E-001  0.1961464E+03  0.7546771E-02  0.1153125E+00
         21   -1    0    0  503  502  0.00000000000E+00  0.00000000000E+00  0.18322629309E+04  0.18322629309E+04  0.00000000000E+00 0. -1.
         21   -1    0    0  501  503 -0.00000000000E+00 -0.00000000000E+00 -0.57688709819E+02  0.57688709819E+02  0.00000000000E+00 0. -1.
          6    2    1    2  501    0  0.85067080450E+02 -0.35725855405E+02  0.13283657272E+03  0.23653822275E+03  0.17260368145E+03 0.  0.
         24    2    3    3    0    0  0.91137668266E+02 -0.73885613788E+02  0.13670659638E+03  0.19742190545E+03  0.80756156135E+02 0.  0.
         -6    2    1    2    0  502 -0.85067080450E+02  0.35725855405E+02  0.16417376483E+04  0.16534134179E+04  0.17309153577E+03 0.  0.
        -24    2    5    5    0    0 -0.34455649682E+02 -0.45260675983E+02  0.97443135835E+03  0.97929168573E+03  0.79120244032E+02 0.  0.
          5    1    3    3  501    0 -0.60705878167E+01  0.38159758383E+02 -0.38700236607E+01  0.39116317304E+02  0.47000000000E+01 0. -1.
        -11    1    4    4    0    0  0.68030787890E+01  0.14653159301E+02  0.33621610892E+01  0.16501547979E+02  0.00000000000E+00 0.  1.
         12    1    4    4    0    0  0.84334589477E+02 -0.88538773089E+02  0.13334443529E+03  0.18092035747E+03  0.00000000000E+00 0. -1.
         -5    1    5    5    0  502 -0.50611430768E+02  0.80986531388E+02  0.66730628996E+03  0.67412173219E+03  0.47000000000E+01 0.  1.
         13    1    6    6    0    0 -0.14768724488E+02 -0.15728805994E+02  0.83929186777E+03  0.83956914537E+03  0.00000000000E+00 0. -1.
        -14    1    6    6    0    0 -0.19686925194E+02 -0.29531869989E+02  0.13513949058E+03  0.13972254036E+03  0.00000000000E+00 0.  1.
<mgrwt>
<rscale>  2 0.19603875E+03</rscale>
<asrwt>0</asrwt>
<pdfrwt beam="1">  1       21 0.28188656E+00 0.19614644E+03</pdfrwt>
<pdfrwt beam="2">  1       21 0.88751875E-02 0.19614644E+03</pdfrwt>
<totfact> 0.43275322E+03</totfact>
</mgrwt>
</event>
<event>
12    1  0.1013215E-001  0.2307214E+03  0.7546771E-02  0.1126267E+00
         21   -1    0    0  503  502  0.00000000000E+00  0.00000000000E+00  0.19250036134E+03  0.19250036134E+03  0.00000000000E+00 0.  1.
         21   -1    0    0  501  503 -0.00000000000E+00 -0.00000000000E+00 -0.28024306257E+04  0.28024306257E+04  0.00000000000E+00 0.  1.
          6    2    1    2  501    0 -0.14224124544E+03  0.55167055888E+02 -0.27270984877E+04  0.27368409754E+04  0.17307913494E+03 0.  0.
         24    2    3    3    0    0 -0.62561701827E+02 -0.33361479989E+02 -0.15752577656E+04  0.15788490624E+04  0.79374926909E+02 0.  0.
         -6    2    1    2    0  502  0.14224124544E+03 -0.55167055888E+02  0.11716822335E+03  0.25809001164E+03  0.17206419031E+03 0.  0.
        -24    2    5    5    0    0  0.13910691734E+03  0.65473216806E+01  0.54561777886E+02  0.16999832404E+03  0.80801241916E+02 0.  0.
          5    1    3    3  501    0 -0.79679543616E+02  0.88528535876E+02 -0.11518407221E+04  0.11579919130E+04  0.47000000000E+01 0. -1.
        -13    1    4    4    0    0  0.21920788624E+01 -0.20213289779E+02 -0.92895246349E+03  0.92917493601E+03  0.00000000000E+00 0.  1.
         14    1    4    4    0    0 -0.64753780689E+02 -0.13148190210E+02 -0.64630530210E+03  0.64967412642E+03  0.00000000000E+00 0. -1.
         -5    1    5    5    0  502  0.31343281000E+01 -0.61714377568E+02  0.62606445466E+02  0.88091687605E+02  0.47000000000E+01 0.  1.
         13    1    6    6    0    0  0.64263891097E+02  0.18873979374E+02  0.65118720302E+02  0.93415858022E+02  0.00000000000E+00 0. -1.
        -14    1    6    6    0    0  0.74843026246E+02 -0.12326657693E+02 -0.10556942416E+02  0.76582466014E+02  0.00000000000E+00 0.  1.
<mgrwt>
<rscale>  2 0.23053106E+03</rscale>
<asrwt>0</asrwt>
<pdfrwt beam="1">  1       21 0.29615440E-01 0.23072140E+03</pdfrwt>
<pdfrwt beam="2">  1       21 0.43114318E+00 0.23072140E+03</pdfrwt>
<totfact> 0.56475805E+01</totfact>
</mgrwt>
</event>
<event>
12    1  0.1013215E-001  0.1847829E+03  0.7546771E-02  0.1163479E+00
         21   -1    0    0  503  502  0.00000000000E+00  0.00000000000E+00  0.46015575793E+02  0.46015575793E+02  0.00000000000E+00 0.  1.
         21   -1    0    0  501  503 -0.00000000000E+00 -0.00000000000E+00 -0.74274345647E+03  0.74274345647E+03  0.00000000000E+00 0.  1.
          6    2    1    2  501    0  0.61244929573E+02 -0.18757848868E+02 -0.37846698827E+03  0.42074449368E+03  0.17229587766E+03 0.  0.
         24    2    3    3    0    0  0.34813054564E+02  0.25944933751E+02 -0.34915890978E+03  0.36092780491E+03  0.80447795026E+02 0.  0.
         -6    2    1    2    0  502 -0.61244929573E+02  0.18757848868E+02 -0.31826089241E+03  0.36801453858E+03  0.17332601271E+03 0.  0.
        -24    2    5    5    0    0 -0.22651462804E+02  0.41143767919E+02 -0.31490532934E+03  0.32302637511E+03  0.54541490306E+02 0.  0.
          5    1    3    3  501    0  0.26431875009E+02 -0.44702782619E+02 -0.29308078492E+02  0.59816688769E+02  0.47000000000E+01 0. -1.
        -11    1    4    4    0    0  0.49746931297E+02 -0.11305440390E+02 -0.18157970393E+03  0.18861007140E+03  0.00000000000E+00 0.  1.
         12    1    4    4    0    0 -0.14933876733E+02  0.37250374141E+02 -0.16757920585E+03  0.17231773351E+03  0.00000000000E+00 0. -1.
         -5    1    5    5    0  502 -0.38593466769E+02 -0.22385919051E+02 -0.33555630635E+01  0.44988163471E+02  0.47000000000E+01 0.  1.
         13    1    6    6    0    0 -0.29082926472E+02  0.27961789098E+02 -0.29768430764E+03  0.30040576772E+03  0.00000000000E+00 0. -1.
        -14    1    6    6    0    0  0.64314636676E+01  0.13181978820E+02 -0.17221021700E+02  0.22620607395E+02  0.00000000000E+00 0.  1.
<mgrwt>
<rscale>  2 0.18454090E+03</rscale>
<asrwt>0</asrwt>
<pdfrwt beam="1">  1       21 0.70793202E-02 0.18478286E+03</pdfrwt>
<pdfrwt beam="2">  1       21 0.11426821E+00 0.18478286E+03</pdfrwt>
<totfact> 0.88640721E+04</totfact>
</mgrwt>
</event>
<event>
12    1  0.1013215E-001  0.1796869E+03  0.7546771E-02  0.1168528E+00
         21   -1    0    0  501  502  0.00000000000E+00  0.00000000000E+00  0.10200688918E+03  0.10200688918E+03  0.00000000000E+00 0. -1.
         21   -1    0    0  502  503 -0.00000000000E+00 -0.00000000000E+00 -0.44816721197E+03  0.44816721197E+03  0.00000000000E+00 0. -1.
         -6    2    1    2    0  503  0.15166330679E+02 -0.40941985416E+02 -0.32446630123E+03  0.37089858139E+03  0.17430178796E+03 0.  0.
        -24    2    3    3    0    0 -0.20366563328E+02 -0.72494718472E+02 -0.12418231622E+03  0.16500072766E+03  0.78318014261E+02 0.  0.
          6    2    1    2  501    0 -0.15166330679E+02  0.40941985416E+02 -0.21694021553E+02  0.17927551976E+03  0.17251903564E+03 0.  0.
         24    2    5    5    0    0  0.41594436424E+02  0.11998988676E+02 -0.56132013579E+02  0.10669765097E+03  0.79746554182E+02 0.  0.
          5    1    5    5  501    0 -0.56760767103E+02  0.28942996740E+02  0.34437992026E+02  0.72577868784E+02  0.47000000000E+01 0. -1.
        -11    1    6    6    0    0 -0.13195147456E+01  0.14879471968E+02 -0.61559566164E+02  0.63346033747E+02  0.00000000000E+00 0.  1.
         12    1    6    6    0    0  0.42913951170E+02 -0.28804832920E+01  0.54275525848E+01  0.43351617225E+02  0.00000000000E+00 0. -1.
         -5    1    3    3    0  503  0.35532894007E+02  0.31552733056E+02 -0.20028398501E+03  0.20589785373E+03  0.47000000000E+01 0.  1.
         11    1    4    4    0    0  0.15527829705E+02 -0.45116660602E+02 -0.10616491117E+03  0.11639422204E+03  0.00000000000E+00 0. -1.
        -12    1    4    4    0    0 -0.35894393033E+02 -0.27378057870E+02 -0.18017405044E+02  0.48606505619E+02  0.00000000000E+00 0.  1.
<mgrwt>
<rscale>  2 0.17925312E+03</rscale>
<asrwt>0</asrwt>
<pdfrwt beam="1">  1       21 0.15693368E-01 0.17968689E+03</pdfrwt>
<pdfrwt beam="2">  1       21 0.68948801E-01 0.17968689E+03</pdfrwt>
<totfact> 0.69594021E+04</totfact>
</mgrwt>
</event>
<event>
12    1  0.1013215E-001  0.1844547E+03  0.7546771E-02  0.1164238E+00
         21   -1    0    0  503  502  0.00000000000E+00  0.00000000000E+00  0.69506390592E+03  0.69506390592E+03  0.00000000000E+00 0.  1.
         21   -1    0    0  501  503 -0.00000000000E+00 -0.00000000000E+00 -0.85861684981E+02  0.85861684981E+02  0.00000000000E+00 0.  1.
          6    2    1    2  501    0  0.55683984445E+02  0.12796255606E+02  0.44639443918E+02  0.18699405627E+03  0.17236486546E+03 0.  0.
         24    2    3    3    0    0  0.18992566711E+02  0.27270969262E+02  0.91294162120E+02  0.12571983492E+03  0.79789908517E+02 0.  0.
         -6    2    1    2    0  502 -0.55683984445E+02 -0.12796255606E+02  0.56456277703E+03  0.59393153464E+03  0.17538269115E+03 0.  0.
        -24    2    5    5    0    0 -0.32063624650E+02 -0.71592187885E+02  0.26522444734E+03  0.28792433102E+03  0.80018095033E+02 0.  0.
          5    1    3    3  501    0  0.36691417733E+02 -0.14474713656E+02 -0.46654718202E+02  0.61274221343E+02  0.47000000000E+01 0. -1.
        -11    1    4    4    0    0 -0.96942794494E+01 -0.18506178414E+02  0.15229943454E+01  0.20947009460E+02  0.00000000000E+00 0.  1.
         12    1    4    4    0    0  0.28686846161E+02  0.45777147676E+02  0.89771167775E+02  0.10477282546E+03  0.00000000000E+00 0. -1.
         -5    1    5    5    0  502 -0.23620359795E+02  0.58795932280E+02  0.29933832968E+03  0.30600720362E+03  0.47000000000E+01 0.  1.
         13    1    6    6    0    0  0.80472809844E+01 -0.29564670928E+01  0.13555590386E+03  0.13582673706E+03  0.00000000000E+00 0. -1.
        -14    1    6    6    0    0 -0.40110905634E+02 -0.68635720792E+02  0.12966854348E+03  0.15209759396E+03  0.00000000000E+00 0.  1.
<mgrwt>
<rscale>  2 0.18373374E+03</rscale>
<asrwt>0</asrwt>
<pdfrwt beam="1">  1       21 0.10693290E+00 0.18445471E+03</pdfrwt>
<pdfrwt beam="2">  1       21 0.13209490E-01 0.18445471E+03</pdfrwt>
<totfact> 0.34690558E+04</totfact>
</mgrwt>
</event>
<event>
12    1  0.1013215E-001  0.1809245E+03  0.7546771E-02  0.1168048E+00
         21   -1    0    0  503  502  0.00000000000E+00  0.00000000000E+00  0.13299035051E+03  0.13299035051E+03  0.00000000000E+00 0. -1.
         21   -1    0    0  501  503 -0.00000000000E+00 -0.00000000000E+00 -0.31909609718E+03  0.31909609718E+03  0.00000000000E+00 0.  1.
          6    2    1    2  501    0 -0.41505676715E+02  0.12598769825E+02 -0.20479353789E+03  0.27019939257E+03  0.17083872039E+03 0.  0.
         24    2    3    3    0    0 -0.48732429571E+02  0.64608362459E+02 -0.17628225598E+03  0.21026437043E+03  0.81157756916E+02 0.  0.
         -6    2    1    2    0  502  0.41505676715E+02 -0.12598769825E+02  0.18687791226E+02  0.18188705512E+03  0.17564799196E+03 0.  0.
        -24    2    5    5    0    0  0.31147574266E+02  0.52156901640E+02 -0.23494781790E+02  0.10377145655E+03  0.80783640996E+02 0.  0.
          5    1    3    3  501    0  0.72267528557E+01 -0.52009592635E+02 -0.28511281910E+02  0.59935022141E+02  0.47000000000E+01 0. -1.
        -11    1    4    4    0    0  0.17837862574E+02  0.29103334380E+02 -0.86495626059E+02  0.92987562290E+02  0.00000000000E+00 0.  1.
         12    1    4    4    0    0 -0.66570292145E+02  0.35505028079E+02 -0.89786629924E+02  0.11727680814E+03  0.00000000000E+00 0. -1.
         -5    1    5    5    0  502  0.10358102449E+02 -0.64755671464E+02  0.42182573016E+02  0.78115598566E+02  0.47000000000E+01 0.  1.
         11    1    6    6    0    0 -0.38649369022E+01  0.58087736370E+02  0.47324003166E+01  0.58408205473E+02  0.00000000000E+00 0. -1.
        -12    1    6    6    0    0  0.35012511169E+02 -0.59308347302E+01 -0.28227182106E+02  0.45363251081E+02  0.00000000000E+00 0.  1.
<mgrwt>
<rscale>  2 0.17974672E+03</rscale>
<asrwt>0</asrwt>
<pdfrwt beam="1">  1       21 0.20460054E-01 0.18092448E+03</pdfrwt>
<pdfrwt beam="2">  1       21 0.49091707E-01 0.18092448E+03</pdfrwt>
<totfact> 0.87981100E+04</totfact>
</mgrwt>
</event>
<event>
12    1  0.1013215E-001  0.2031378E+03  0.7546771E-02  0.1147592E+00
         21   -1    0    0  501  502  0.00000000000E+00  0.00000000000E+00  0.17658558733E+04  0.17658558733E+04  0.00000000000E+00 0. -1.
         21   -1    0    0  502  503 -0.00000000000E+00 -0.00000000000E+00 -0.25533551679E+02  0.25533551679E+02  0.00000000000E+00 0. -1.
         -6    2    1    2    0  503  0.57526317206E+02 -0.88280893172E+02  0.59847278914E+03  0.63200841709E+03  0.17367258466E+03 0.  0.
        -24    2    3    3    0    0  0.53150110752E+02 -0.93496206006E+02  0.60568760534E+03  0.62103143009E+03  0.85182668937E+02 0.  0.
          6    2    1    2  501    0 -0.57526317206E+02  0.88280893172E+02  0.11418495324E+04  0.11593810079E+04  0.17100050688E+03 0.  0.
         24    2    5    5    0    0 -0.48462008439E+02  0.39028448231E+02  0.10470184828E+04  0.10520358496E+04  0.81608452138E+02 0.  0.
          5    1    5    5  501    0 -0.90643087668E+01  0.49252444940E+02  0.94831049643E+02  0.10734515826E+03  0.47000000000E+01 0. -1.
        -13    1    6    6    0    0 -0.12125940150E+02  0.56214931559E+02  0.76621175377E+03  0.76836684504E+03  0.00000000000E+00 0.  1.
         14    1    6    6    0    0 -0.36336068289E+02 -0.17186483328E+02  0.28080672904E+03  0.28366900455E+03  0.00000000000E+00 0. -1.
         -5    1    3    3    0  503  0.43762064534E+01  0.52153128344E+01 -0.72148161976E+01  0.10976987002E+02  0.47000000000E+01 0.  1.
         13    1    4    4    0    0  0.41899386251E+02 -0.16221146873E+02  0.37059665001E+03  0.37331027467E+03  0.00000000000E+00 0. -1.
        -14    1    4    4    0    0  0.11250724502E+02 -0.77275059133E+02  0.23509095533E+03  0.24772115542E+03  0.00000000000E+00 0.  1.
<mgrwt>
<rscale>  2 0.20256544E+03</rscale>
<asrwt>0</asrwt>
<pdfrwt beam="1">  1       21 0.27167004E+00 0.20313779E+03</pdfrwt>
<pdfrwt beam="2">  1       21 0.39282401E-02 0.20313779E+03</pdfrwt>
<totfact> 0.19889463E+04</totfact>
</mgrwt>
</event>
<event>
12    1  0.1013215E-001  0.1952637E+03  0.7546771E-02  0.1156936E+00
         21   -1    0    0  503  502  0.00000000000E+00  0.00000000000E+00  0.75572627575E+03  0.75572627575E+03  0.00000000000E+00 0. -1.
         21   -1    0    0  501  503 -0.00000000000E+00 -0.00000000000E+00 -0.65975591786E+02  0.65975591786E+02  0.00000000000E+00 0. -1.
          6    2    1    2  501    0 -0.87710471502E+01  0.50406800657E+02  0.13328552080E+03  0.23641688464E+03  0.18844133429E+03 0.  0.
         24    2    3    3    0    0 -0.66176579168E+02  0.67553641156E+02  0.51063827186E+02  0.13457432897E+03  0.80993218893E+02 0.  0.
         -6    2    1    2    0  502  0.87710471502E+01 -0.50406800657E+02  0.55646516316E+03  0.58528498289E+03  0.17403234345E+03 0.  0.
        -24    2    5    5    0    0  0.13790641311E+02  0.41381307659E+02  0.29566336742E+03  0.30871687226E+03  0.77373677536E+02 0.  0.
          5    1    3    3  501    0  0.57405532017E+02 -0.17146840499E+02  0.82221693617E+02  0.10184255568E+03  0.47000000000E+01 0. -1.
        -13    1    4    4    0    0 -0.37789646844E+02 -0.10685238900E+02  0.27927500604E+02  0.48188972067E+02  0.00000000000E+00 0.  1.
         14    1    4    4    0    0 -0.28386932324E+02  0.78238880056E+02  0.23136326582E+02  0.86385356901E+02  0.00000000000E+00 0. -1.
         -5    1    5    5    0  502 -0.50195941608E+01 -0.91788108316E+02  0.26080179574E+03  0.27656811063E+03  0.47000000000E+01 0.  1.
         13    1    6    6    0    0 -0.22118076655E+02 -0.27123004993E+01  0.32021989203E+02  0.39012481098E+02  0.00000000000E+00 0. -1.
        -14    1    6    6    0    0  0.35908717966E+02  0.44093608158E+02  0.26364137822E+03  0.26970439117E+03  0.00000000000E+00 0.  1.
<mgrwt>
<rscale>  2 0.19170080E+03</rscale>
<asrwt>0</asrwt>
<pdfrwt beam="1">  1       21 0.11626557E+00 0.19526370E+03</pdfrwt>
<pdfrwt beam="2">  1       21 0.10150092E-01 0.19526370E+03</pdfrwt>
<totfact> 0.45052310E+04</totfact>
</mgrwt>
</event>
<event>
12    1  0.1013215E-001  0.2357690E+03  0.7546771E-02  0.1124126E+00
         21   -1    0    0  501  502  0.00000000000E+00  0.00000000000E+00  0.23702750057E+03  0.23702750057E+03  0.00000000000E+00 0.  1.
         21   -1    0    0  502  503 -0.00000000000E+00 -0.00000000000E+00 -0.94179214406E+03  0.94179214406E+03  0.00000000000E+00 0. -1.
         -6    2    1    2    0  503  0.14673809745E+03  0.17649522160E+02 -0.86460979730E+03  0.89397322650E+03  0.17261069854E+03 0.  0.
        -24    2    3    3    0    0  0.11765741958E+03 -0.49330912896E+02 -0.64914423372E+03  0.66642199361E+03  0.80331998871E+02 0.  0.
          6    2    1    2  501    0 -0.14673809745E+03 -0.17649522160E+02  0.15984515381E+03  0.28484641813E+03  0.18369385904E+03 0.  0.
         24    2    5    5    0    0 -0.13379102280E+03 -0.33059484306E+02  0.19172151455E+03  0.24685581338E+03  0.72025593877E+02 0.  0.
          5    1    5    5  501    0 -0.12947074650E+02  0.15409962146E+02 -0.31876360741E+02  0.37990604752E+02  0.47000000000E+01 0. -1.
        -13    1    6    6    0    0 -0.93090611603E+01  0.91602703989E+00  0.66139422405E+02  0.66797611643E+02  0.00000000000E+00 0.  1.
         14    1    6    6    0    0 -0.12448196164E+03 -0.33975511346E+02  0.12558209214E+03  0.18005820173E+03  0.00000000000E+00 0. -1.
         -5    1    3    3    0  503  0.29080677868E+02  0.66980435056E+02 -0.21546556357E+03  0.22755123289E+03  0.47000000000E+01 0.  1.
         13    1    4    4    0    0  0.79286534314E+02 -0.42232930560E+02 -0.58093392241E+03  0.58783858086E+03  0.00000000000E+00 0. -1.
        -14    1    4    4    0    0  0.38370885265E+02 -0.70979823364E+01 -0.68210311315E+02  0.78583412747E+02  0.00000000000E+00 0.  1.
<mgrwt>
<rscale>  2 0.23360718E+03</rscale>
<asrwt>0</asrwt>
<pdfrwt beam="1">  1       21 0.36465770E-01 0.23576897E+03</pdfrwt>
<pdfrwt beam="2">  1       21 0.14489110E+00 0.23576897E+03</pdfrwt>
<totfact> 0.22868387E+03</totfact>
</mgrwt>
</event>
<event>
12    1  0.1013215E-001  0.2117927E+03  0.7546771E-02  0.1140346E+00
         21   -1    0    0  501  502  0.00000000000E+00  0.00000000000E+00  0.12322025110E+03  0.12322025110E+03  0.00000000000E+00 0. -1.
         21   -1    0    0  502  503 -0.00000000000E+00 -0.00000000000E+00 -0.51187193833E+03  0.51187193833E+03  0.00000000000E+00 0.  1.
         -6    2    1    2    0  503  0.24729281471E+02 -0.11933753285E+03 -0.36626653071E+03  0.42309254890E+03  0.17321417178E+03 0.  0.
        -24    2    3    3    0    0  0.66016748566E+02 -0.74407871387E+02 -0.32508269826E+03  0.34932583911E+03  0.80343255753E+02 0.  0.
          6    2    1    2  501    0 -0.24729281471E+02  0.11933753285E+03 -0.22385156515E+02  0.21199964053E+03  0.17201676733E+03 0.  0.
         24    2    5    5    0    0  0.17994983904E+02  0.61426852397E+02 -0.71075082042E+02  0.12498350059E+03  0.80449552463E+02 0.  0.
          5    1    5    5  501    0 -0.42724265374E+02  0.57910680449E+02  0.48689925526E+02  0.87016139937E+02  0.47000000000E+01 0. -1.
        -13    1    6    6    0    0  0.23863549082E+02  0.71899228044E+02 -0.79884653891E+02  0.11009325999E+03  0.00000000000E+00 0.  1.
         14    1    6    6    0    0 -0.58685651781E+01 -0.10472375647E+02  0.88095718495E+01  0.14890240600E+02  0.00000000000E+00 0. -1.
         -5    1    3    3    0  503 -0.41287467095E+02 -0.44929661459E+02 -0.41183832457E+02  0.73766709794E+02  0.47000000000E+01 0.  1.
         13    1    4    4    0    0  0.20452577650E+02  0.12291826127E+02 -0.29524237588E+02  0.37961526935E+02  0.00000000000E+00 0. -1.
        -14    1    4    4    0    0  0.45564170916E+02 -0.86699697514E+02 -0.29555846067E+03  0.31136431217E+03  0.00000000000E+00 0.  1.
<mgrwt>
<rscale>  2 0.21154770E+03</rscale>
<asrwt>0</asrwt>
<pdfrwt beam="1">  1       21 0.18956962E-01 0.21179267E+03</pdfrwt>
<pdfrwt beam="2">  1       21 0.78749529E-01 0.21179267E+03</pdfrwt>
<totfact> 0.35981502E+04</totfact>
</mgrwt>
</event>
<event>
12    1  0.1013215E-001  0.1799386E+03  0.7546771E-02  0.1168151E+00
         21   -1    0    0  503  502  0.00000000000E+00  0.00000000000E+00  0.10093605774E+03  0.10093605774E+03  0.00000000000E+00 0.  1.
         21   -1    0    0  501  503 -0.00000000000E+00 -0.00000000000E+00 -0.55420212781E+03  0.55420212781E+03  0.00000000000E+00 0.  1.
          6    2    1    2  501    0  0.46476381901E+02 -0.11106054008E+02 -0.43975139585E+03  0.47469274679E+03  0.17224550848E+03 0.  0.
         24    2    3    3    0    0 -0.21395927771E+02  0.63133546017E+01 -0.36003630886E+03  0.36845400004E+03  0.75063721448E+02 0.  0.
         -6    2    1    2    0  502 -0.46476381901E+02  0.11106054008E+02 -0.13514674215E+02  0.18044543876E+03  0.17347769725E+03 0.  0.
        -24    2    5    5    0    0 -0.45446836996E+02  0.46048951586E+02 -0.58295069667E+02  0.12344158038E+03  0.87484785445E+02 0.  0.
          5    1    3    3  501    0  0.67872309672E+02 -0.17419408610E+02 -0.79715086990E+02  0.10623874675E+03  0.47000000000E+01 0. -1.
        -13    1    4    4    0    0  0.51636377306E+01 -0.31590767787E+02 -0.15078500350E+03  0.15414524658E+03  0.00000000000E+00 0.  1.
         14    1    4    4    0    0 -0.26559565502E+02  0.37904122388E+02 -0.20925130536E+03  0.21430875346E+03  0.00000000000E+00 0. -1.
         -5    1    5    5    0  502 -0.10295449049E+01 -0.34942897578E+02  0.44780395452E+02  0.57003858384E+02  0.47000000000E+01 0.  1.
         13    1    6    6    0    0 -0.58904703907E+01 -0.25115306217E+02 -0.54201320942E+01  0.26360084971E+02  0.00000000000E+00 0. -1.
        -14    1    6    6    0    0 -0.39556366605E+02  0.71164257803E+02 -0.52874937573E+02  0.97081495410E+02  0.00000000000E+00 0.  1.
<mgrwt>
<rscale>  2 0.17964098E+03</rscale>
<asrwt>0</asrwt>
<pdfrwt beam="1">  1       21 0.15528625E-01 0.17993863E+03</pdfrwt>
<pdfrwt beam="2">  1       21 0.85261864E-01 0.17993863E+03</pdfrwt>
<totfact> 0.44100857E+04</totfact>
</mgrwt>
</event>
<event>
12    1  0.1013215E-001  0.2401165E+03  0.7546771E-02  0.1119799E+00
         21   -1    0    0  501  502  0.00000000000E+00  0.00000000000E+00  0.88751741818E+02  0.88751741818E+02  0.00000000000E+00 0.  1.
         21   -1    0    0  502  503 -0.00000000000E+00 -0.00000000000E+00 -0.12534835935E+04  0.12534835935E+04  0.00000000000E+00 0. -1.
         -6    2    1    2    0  503  0.60517006126E+02 -0.15510583717E+03 -0.10483795122E+04  0.10754136435E+04  0.17232171767E+03 0.  0.
        -24    2    3    3    0    0  0.33628528827E+02 -0.10928604102E+03 -0.97345102923E+03  0.98344184629E+03  0.80477587035E+02 0.  0.
          6    2    1    2  501    0 -0.60517006126E+02  0.15510583717E+03 -0.11635233954E+03  0.26682169183E+03  0.17301970859E+03 0.  0.
         24    2    5    5    0    0 -0.95312920554E+02  0.11455526945E+03 -0.40402133498E+02  0.17383982262E+03  0.79877962878E+02 0.  0.
          5    1    5    5  501    0  0.34795914428E+02  0.40550567713E+02 -0.75950206046E+02  0.92981869207E+02  0.47000000000E+01 0. -1.
        -11    1    6    6    0    0 -0.49518295757E+02  0.91388096229E+02  0.67308306796E+01  0.10415925225E+03  0.00000000000E+00 0.  1.
         12    1    6    6    0    0 -0.45794624797E+02  0.23167173225E+02 -0.47132964177E+02  0.69680570374E+02  0.00000000000E+00 0. -1.
         -5    1    3    3    0  503  0.26888477299E+02 -0.45819796148E+02 -0.74928482949E+02  0.91971797240E+02  0.47000000000E+01 0.  1.
         11    1    4    4    0    0  0.92616302615E+01 -0.62584566029E+02 -0.79135376878E+03  0.79387870174E+03  0.00000000000E+00 0. -1.
        -12    1    4    4    0    0  0.24366898566E+02 -0.46701474991E+02 -0.18209726044E+03  0.18956314455E+03  0.00000000000E+00 0.  1.
<mgrwt>
<rscale>  2 0.23999082E+03</rscale>
<asrwt>0</asrwt>
<pdfrwt beam="1">  1       21 0.13654115E-01 0.24011653E+03</pdfrwt>
<pdfrwt beam="2">  1       21 0.19284362E+00 0.24011653E+03</pdfrwt>
<totfact> 0.66902322E+03</totfact>
</mgrwt>
</event>
<event>
12    1  0.1013215E-001  0.2162835E+03  0.7546771E-02  0.1136879E+00
         21   -1    0    0  501  502  0.00000000000E+00  0.00000000000E+00  0.22098864237E+03  0.22098864237E+03  0.00000000000E+00 0.  1.
         21   -1    0    0  502  503 -0.00000000000E+00 -0.00000000000E+00 -0.21662261777E+03  0.21662261777E+03  0.00000000000E+00 0.  1.
         -6    2    1    2    0  503  0.16285708971E+02  0.12931254062E+03 -0.34046137980E+02  0.21894678352E+03  0.17260242473E+03 0.  0.
        -24    2    3    3    0    0  0.74871031977E+02  0.68039886621E+02 -0.67330545532E+01  0.12975781152E+03  0.80973193258E+02 0.  0.
          6    2    1    2  501    0 -0.16285708971E+02 -0.12931254062E+03  0.38412162587E+02  0.21866447662E+03  0.17132338318E+03 0.  0.
         24    2    5    5    0    0 -0.43427901609E+02 -0.15242453216E+03  0.37098141013E+02  0.18268282259E+03  0.82930820345E+02 0.  0.
          5    1    5    5  501    0  0.27142192638E+02  0.23111991537E+02  0.13140215733E+01  0.35981654030E+02  0.47000000000E+01 0. -1.
        -11    1    6    6    0    0  0.16026091988E+02 -0.17896851244E+02 -0.12986805411E+02  0.27309156407E+02  0.00000000000E+00 0.  1.
         12    1    6    6    0    0 -0.59453993597E+02 -0.13452768091E+03  0.50084946424E+02  0.15537366619E+03  0.00000000000E+00 0. -1.
         -5    1    3    3    0  503 -0.58585323006E+02  0.61272653998E+02 -0.27313083427E+02  0.89188971997E+02  0.47000000000E+01 0.  1.
         13    1    4    4    0    0  0.21980268651E+02  0.26974054805E+02  0.36202838822E+02  0.50213318765E+02  0.00000000000E+00 0. -1.
        -14    1    4    4    0    0  0.52890763326E+02  0.41065831816E+02 -0.42935893375E+02  0.79544492756E+02  0.00000000000E+00 0.  1.
<mgrwt>
<rscale>  2 0.21602822E+03</rscale>
<asrwt>0</asrwt>
<pdfrwt beam="1">  1       21 0.33998253E-01 0.21628350E+03</pdfrwt>
<pdfrwt beam="2">  1       21 0.33326557E-01 0.21628350E+03</pdfrwt>
<totfact> 0.71535639E+04</totfact>
</mgrwt>
</event>
<event>
12    1  0.1013215E-001  0.3579132E+03  0.7546771E-02  0.1059456E+00
         21   -1    0    0  501  502  0.00000000000E+00  0.00000000000E+00  0.27129974289E+03  0.27129974289E+03  0.00000000000E+00 0.  1.
         21   -1    0    0  502  503 -0.00000000000E+00 -0.00000000000E+00 -0.47166854497E+03  0.47166854497E+03  0.00000000000E+00 0. -1.
         -6    2    1    2    0  503 -0.28390837715E+03  0.13309409325E+03 -0.10439334672E+03  0.37282678850E+03  0.17257994989E+03 0.  0.
        -24    2    3    3    0    0 -0.83803252310E+02  0.65900467120E+02 -0.98076862152E+02  0.16159461207E+03  0.71609294759E+02 0.  0.
          6    2    1    2  501    0  0.28390837715E+03 -0.13309409325E+03 -0.95975455362E+02  0.37014149937E+03  0.17168412055E+03 0.  0.
         24    2    5    5    0    0  0.57295110177E+02 -0.78271506630E+01 -0.23767441908E+02  0.10128937109E+03  0.79690974792E+02 0.  0.
          5    1    5    5  501    0  0.22661326697E+03 -0.12526694259E+03 -0.72208013454E+02  0.26885212828E+03  0.47000000000E+01 0. -1.
        -13    1    6    6    0    0 -0.62659806385E+01  0.20184888567E+01  0.21599463641E+02  0.22580381755E+02  0.00000000000E+00 0.  1.
         14    1    6    6    0    0  0.63561090815E+02 -0.98456395197E+01 -0.45366905549E+02  0.78708989336E+02  0.00000000000E+00 0. -1.
         -5    1    3    3    0  503 -0.20010512484E+03  0.67193626134E+02 -0.63164845660E+01  0.21123217643E+03  0.47000000000E+01 0.  1.
         13    1    4    4    0    0  0.73162234819E+01  0.26581403331E+02 -0.32622983795E+02  0.42712494668E+02  0.00000000000E+00 0. -1.
        -14    1    4    4    0    0 -0.91119475792E+02  0.39319063790E+02 -0.65453878357E+02  0.11888211740E+03  0.00000000000E+00 0.  1.
<mgrwt>
<rscale>  2 0.35780536E+03</rscale>
<asrwt>0</asrwt>
<pdfrwt beam="1">  1       21 0.41738422E-01 0.35791318E+03</pdfrwt>
<pdfrwt beam="2">  1       21 0.72564391E-01 0.35791318E+03</pdfrwt>
<totfact> 0.86745267E+03</totfact>
</mgrwt>
</event>
<event>
12    1  0.1013215E-001  0.1834023E+03  0.7546771E-02  0.1166253E+00
         21   -1    0    0  501  502  0.00000000000E+00  0.00000000000E+00  0.39603207472E+03  0.39603207472E+03  0.00000000000E+00 0. -1.
         21   -1    0    0  502  503 -0.00000000000E+00 -0.00000000000E+00 -0.14879583141E+03  0.14879583141E+03  0.00000000000E+00 0. -1.
         -6    2    1    2    0  503 -0.49995174354E+02 -0.14872833348E+02 -0.60629264402E+02  0.18647394717E+03  0.16845149640E+03 0.  0.
        -24    2    3    3    0    0 -0.15131216762E+02  0.53418528111E+02 -0.47133522300E+02  0.10847759697E+03  0.80394821063E+02 0.  0.
          6    2    1    2  501    0  0.49995174354E+02  0.14872833348E+02  0.30786550770E+03  0.35835395896E+03  0.17582852567E+03 0.  0.
         24    2    5    5    0    0  0.60485442515E+02 -0.13553155640E+02  0.80492207195E+02  0.12892250872E+03  0.79371538046E+02 0.  0.
          5    1    5    5  501    0 -0.10490268161E+02  0.28425988988E+02  0.22737330051E+03  0.22943145024E+03  0.47000000000E+01 0. -1.
        -13    1    6    6    0    0 -0.10370605586E+02  0.85513881812E+00 -0.90783025341E+01  0.13809283092E+02  0.00000000000E+00 0.  1.
         14    1    6    6    0    0  0.70856048101E+02 -0.14408294458E+02  0.89570509729E+02  0.11511322563E+03  0.00000000000E+00 0. -1.
         -5    1    3    3    0  503 -0.34863957592E+02 -0.68291361459E+02 -0.13495742102E+02  0.77996350195E+02  0.47000000000E+01 0.  1.
         11    1    4    4    0    0 -0.31600893652E+02 -0.90799738227E+01 -0.12716386686E+02  0.35252927461E+02  0.00000000000E+00 0. -1.
        -12    1    4    4    0    0  0.16469676890E+02  0.62498501934E+02 -0.34417135614E+02  0.73224669509E+02  0.00000000000E+00 0.  1.
<mgrwt>
<rscale>  2 0.18161122E+03</rscale>
<asrwt>0</asrwt>
<pdfrwt beam="1">  1       21 0.60928011E-01 0.18340226E+03</pdfrwt>
<pdfrwt beam="2">  1       21 0.22891666E-01 0.18340226E+03</pdfrwt>
<totfact> 0.45098606E+04</totfact>
</mgrwt>
</event>
<event>
12    1  0.1013215E-001  0.1863334E+03  0.7546771E-02  0.1162682E+00
         21   -1    0    0  503  502  0.00000000000E+00  0.00000000000E+00  0.66478782577E+03  0.66478782577E+03  0.00000000000E+00 0. -1.
         21   -1    0    0  501  503 -0.00000000000E+00 -0.00000000000E+00 -0.51260765446E+02  0.51260765446E+02  0.00000000000E+00 0. -1.
          6    2    1    2  501    0 -0.67313930005E+02  0.11480207220E+02  0.29012119972E+03  0.34280404775E+03  0.16935567394E+03 0.  0.
         24    2    3    3    0    0 -0.51641952118E+02  0.54446316739E+02  0.10304124714E+03  0.15015749025E+03  0.79362967700E+02 0.  0.
         -6    2    1    2    0  502  0.67313930005E+02 -0.11480207220E+02  0.32340586061E+03  0.37324454347E+03  0.17337006149E+03 0.  0.
        -24    2    5    5    0    0  0.18795093735E+02 -0.59209445113E+02  0.12316294529E+03  0.16169910448E+03  0.84371057579E+02 0.  0.
          5    1    3    3  501    0 -0.15671977887E+02 -0.42966109519E+02  0.18707995258E+03  0.19264655750E+03  0.47000000000E+01 0. -1.
        -11    1    4    4    0    0 -0.26344834001E+02 -0.37758953169E+01 -0.27771250031E+01  0.26758551666E+02  0.00000000000E+00 0.  1.
         12    1    4    4    0    0 -0.25297118117E+02  0.58222212056E+02  0.10581837214E+03  0.12339893859E+03  0.00000000000E+00 0. -1.
         -5    1    5    5    0  502  0.48518836270E+02  0.47729237893E+02  0.20024291532E+03  0.21154543899E+03  0.47000000000E+01 0.  1.
         11    1    6    6    0    0 -0.21850099351E+02 -0.60062343244E+02  0.80167023791E+02  0.10252640451E+03  0.00000000000E+00 0. -1.
        -12    1    6    6    0    0  0.40645193085E+02  0.85289813156E+00  0.42995921497E+02  0.59172699968E+02  0.00000000000E+00 0.  1.
<mgrwt>
<rscale>  2 0.18539403E+03</rscale>
<asrwt>0</asrwt>
<pdfrwt beam="1">  1       21 0.10227504E+00 0.18633341E+03</pdfrwt>
<pdfrwt beam="2">  1       21 0.78862721E-02 0.18633341E+03</pdfrwt>
<totfact> 0.95982468E+04</totfact>
</mgrwt>
</event>
<event>
12    1  0.1013215E-001  0.2131189E+03  0.7546771E-02  0.1139303E+00
         21   -1    0    0  503  502  0.00000000000E+00  0.00000000000E+00  0.15933160482E+03  0.15933160482E+03  0.00000000000E+00 0. -1.
         21   -1    0    0  501  503 -0.00000000000E+00 -0.00000000000E+00 -0.28712983550E+03  0.28712983550E+03  0.00000000000E+00 0.  1.
          6    2    1    2  501    0  0.51918034237E+02  0.11370862644E+03 -0.87776451998E+02  0.22961722972E+03  0.17144746324E+03 0.  0.
         24    2    3    3    0    0 -0.28082424784E+02  0.97483490326E+02 -0.45921644734E+02  0.13776276125E+03  0.81105656187E+02 0.  0.
         -6    2    1    2    0  502 -0.51918034237E+02 -0.11370862644E+03 -0.40021778687E+02  0.21684421060E+03  0.17261093504E+03 0.  0.
        -24    2    5    5    0    0 -0.85995208916E+02 -0.77360472736E+02  0.15784112351E+02  0.14188535798E+03  0.80638067361E+02 0.  0.
          5    1    3    3  501    0  0.80000459021E+02  0.16225136111E+02 -0.41854807264E+02  0.91854468462E+02  0.47000000000E+01 0. -1.
        -13    1    4    4    0    0 -0.39251768180E+02  0.10210243315E+02 -0.23852885372E+02  0.47052210515E+02  0.00000000000E+00 0.  1.
         14    1    4    4    0    0  0.11169343395E+02  0.87273247011E+02 -0.22068759362E+02  0.90710550740E+02  0.00000000000E+00 0. -1.
         -5    1    5    5    0  502  0.34077174679E+02 -0.36348153701E+02 -0.55805891039E+02  0.74958852621E+02  0.47000000000E+01 0.  1.
         13    1    6    6    0    0 -0.54879132198E+02 -0.89522357095E+02  0.23489541154E+02  0.10759986113E+03  0.00000000000E+00 0. -1.
        -14    1    6    6    0    0 -0.31116076717E+02  0.12161884359E+02 -0.77054288029E+01  0.34285496853E+02  0.00000000000E+00 0.  1.
<mgrwt>
<rscale>  2 0.21288321E+03</rscale>
<asrwt>0</asrwt>
<pdfrwt beam="1">  1       21 0.24512555E-01 0.21311891E+03</pdfrwt>
<pdfrwt beam="2">  1       21 0.44173821E-01 0.21311891E+03</pdfrwt>
<totfact> 0.76731082E+04</totfact>
</mgrwt>
</event>
<event>
12    1  0.1013215E-001  0.2109411E+03  0.7546771E-02  0.1141070E+00
         21   -1    0    0  501  502  0.00000000000E+00  0.00000000000E+00  0.84662183948E+03  0.84662183948E+03  0.00000000000E+00 0. -1.
         21   -1    0    0  502  503 -0.00000000000E+00 -0.00000000000E+00 -0.77612298272E+02  0.77612298272E+02  0.00000000000E+00 0.  1.
         -6    2    1    2    0  503 -0.84075919712E+02 -0.88123905171E+02  0.11955008754E+03  0.24137710385E+03  0.17069299896E+03 0.  0.
        -24    2    3    3    0    0 -0.10680443722E+03 -0.19858207836E+02  0.92325763585E+02  0.16430541803E+03  0.81674277117E+02 0.  0.
          6    2    1    2  501    0  0.84075919712E+02  0.88123905171E+02  0.64945945366E+03  0.68285703390E+03  0.17222532873E+03 0.  0.
         24    2    5    5    0    0  0.82246862102E+01  0.91773776082E+02  0.27529151529E+03  0.30103185495E+03  0.79653548940E+02 0.  0.
          5    1    5    5  501    0  0.75851233501E+02 -0.36498709114E+01  0.37416793837E+03  0.38182517895E+03  0.47000000000E+01 0. -1.
        -13    1    6    6    0    0  0.31466444929E+02  0.49074455852E+01  0.74934713407E+02  0.81421320623E+02  0.00000000000E+00 0.  1.
         14    1    6    6    0    0 -0.23241758719E+02  0.86866330497E+02  0.20035680189E+03  0.21961053432E+03  0.00000000000E+00 0. -1.
         -5    1    3    3    0  503  0.22728517509E+02 -0.68265697335E+02  0.27224323956E+02  0.77071685823E+02  0.47000000000E+01 0.  1.
         13    1    4    4    0    0  0.13372233907E+02  0.11875402662E+00  0.44513609501E+01  0.14094160368E+02  0.00000000000E+00 0. -1.
        -14    1    4    4    0    0 -0.12017667113E+03 -0.19976961862E+02  0.87874402635E+02  0.15021125766E+03  0.00000000000E+00 0.  1.
<mgrwt>
<rscale>  2 0.21062810E+03</rscale>
<asrwt>0</asrwt>
<pdfrwt beam="1">  1       21 0.13024951E+00 0.21094110E+03</pdfrwt>
<pdfrwt beam="2">  1       21 0.11940354E-01 0.21094110E+03</pdfrwt>
<totfact> 0.25184602E+04</totfact>
</mgrwt>
</event>
<event>
12    1  0.1013215E-001  0.1985875E+03  0.7546771E-02  0.1152882E+00
         21   -1    0    0  503  502  0.00000000000E+00  0.00000000000E+00  0.33973768547E+03  0.33973768547E+03  0.00000000000E+00 0.  1.
         21   -1    0    0  501  503 -0.00000000000E+00 -0.00000000000E+00 -0.17980621921E+03  0.17980621921E+03  0.00000000000E+00 0.  1.
          6    2    1    2  501    0  0.25237585316E+02 -0.94176454267E+02 -0.81924407036E+02  0.20660420986E+03  0.16268850855E+03 0.  0.
         24    2    3    3    0    0 -0.40398804823E+02 -0.75514484697E+02 -0.30798299518E+02  0.12120881368E+03  0.80053359898E+02 0.  0.
         -6    2    1    2    0  502 -0.25237585316E+02  0.94176454267E+02  0.24185587330E+03  0.31293969482E+03  0.17300534354E+03 0.  0.
        -24    2    5    5    0    0  0.14031759147E+02 -0.56458349468E+01  0.15475705483E+03  0.17468317593E+03  0.79597111845E+02 0.  0.
          5    1    3    3  501    0  0.65636390140E+02 -0.18661969570E+02 -0.51126107518E+02  0.85395396180E+02  0.47000000000E+01 0. -1.
        -11    1    4    4    0    0 -0.11663281878E+02 -0.63861348888E+02 -0.52392347763E+02  0.83422192072E+02  0.00000000000E+00 0.  1.
         12    1    4    4    0    0 -0.28735522945E+02 -0.11653135810E+02  0.21594048245E+02  0.37786621611E+02  0.00000000000E+00 0. -1.
         -5    1    5    5    0  502 -0.39269344463E+02  0.99822289214E+02  0.87098818469E+02  0.13825651890E+03  0.47000000000E+01 0.  1.
         13    1    6    6    0    0 -0.68945220960E+01  0.12092625188E+02  0.14484831590E+03  0.14551563709E+03  0.00000000000E+00 0. -1.
        -14    1    6    6    0    0  0.20926281242E+02 -0.17738460135E+02  0.99087389365E+01  0.29167538839E+02  0.00000000000E+00 0.  1.
<mgrwt>
<rscale>  2 0.19631886E+03</rscale>
<asrwt>0</asrwt>
<pdfrwt beam="1">  1       21 0.52267336E-01 0.19858748E+03</pdfrwt>
<pdfrwt beam="2">  1       21 0.27662495E-01 0.19858748E+03</pdfrwt>
<totfact> 0.43184266E+04</totfact>
</mgrwt>
</event>
<event>
12    1  0.1013215E-001  0.7487566E+03  0.7546771E-02  0.9637381E-01
         21   -1    0    0  501  502  0.00000000000E+00  0.00000000000E+00  0.68948750371E+03  0.68948750371E+03  0.00000000000E+00 0.  1.
         21   -1    0    0  502  503 -0.00000000000E+00 -0.00000000000E+00 -0.13549918705E+04  0.13549918705E+04  0.00000000000E+00 0. -1.
         -6    2    1    2    0  503 -0.71884508341E+03  0.11688448678E+03 -0.97930038583E+03  0.12326269122E+04  0.17303069615E+03 0.  0.
        -24    2    3    3    0    0 -0.39696230145E+03  0.12968620666E+03 -0.57525983840E+03  0.71586462321E+03  0.84502639744E+02 0.  0.
          6    2    1    2  501    0  0.71884508341E+03 -0.11688448678E+03  0.31379601907E+03  0.81185246198E+03  0.17388571318E+03 0.  0.
         24    2    5    5    0    0  0.32229621064E+03 -0.90967440203E+02  0.20037420692E+03  0.39856164516E+03  0.80942199277E+02 0.  0.
          5    1    5    5  501    0  0.39654887277E+03 -0.25917046580E+02  0.11342181215E+03  0.41329081682E+03  0.47000000000E+01 0. -1.
        -13    1    6    6    0    0  0.14472441933E+03 -0.16984229336E+02  0.12488970638E+03  0.19191420051E+03  0.00000000000E+00 0.  1.
         14    1    6    6    0    0  0.17757179132E+03 -0.73983210868E+02  0.75484500536E+02  0.20664744466E+03  0.00000000000E+00 0. -1.
         -5    1    3    3    0  503 -0.32188278196E+03 -0.12801719880E+02 -0.40404054744E+03  0.51676228900E+03  0.47000000000E+01 0.  1.
         11    1    4    4    0    0 -0.38309609412E+02  0.23538638863E+02 -0.11045053339E+03  0.11925189315E+03  0.00000000000E+00 0. -1.
        -12    1    4    4    0    0 -0.35865269204E+03  0.10614756780E+03 -0.46480930500E+03  0.59661273007E+03  0.00000000000E+00 0.  1.
<mgrwt>
<rscale>  2 0.74870709E+03</rscale>
<asrwt>0</asrwt>
<pdfrwt beam="1">  1       21 0.10607500E+00 0.74875662E+03</pdfrwt>
<pdfrwt beam="2">  1       21 0.20846029E+00 0.74875662E+03</pdfrwt>
<totfact> 0.58132974E+01</totfact>
</mgrwt>
</event>
<event>
12    1  0.1013215E-001  0.2398907E+03  0.7546771E-02  0.1120242E+00
         21   -1    0    0  503  502  0.00000000000E+00  0.00000000000E+00  0.26666834862E+03  0.26666834862E+03  0.00000000000E+00 0. -1.
         21   -1    0    0  501  503 -0.00000000000E+00 -0.00000000000E+00 -0.62100358318E+03  0.62100358318E+03  0.00000000000E+00 0.  1.
          6    2    1    2  501    0  0.11306055519E+03 -0.12392218491E+03 -0.53686103107E+03  0.58801982356E+03  0.17148804381E+03 0.  0.
         24    2    3    3    0    0  0.15845725470E+02  0.48316901786E+01 -0.14036114743E+03  0.15992809135E+03  0.74841903023E+02 0.  0.
         -6    2    1    2    0  502 -0.11306055519E+03  0.12392218491E+03  0.18252579651E+03  0.29965210824E+03  0.16833396130E+03 0.  0.
        -24    2    5    5    0    0 -0.33208116555E+01  0.24876351728E+02  0.96420643255E+02  0.12851159346E+03  0.81169135406E+02 0.  0.
          5    1    3    3  501    0  0.97214829723E+02 -0.12875387508E+03 -0.39649988364E+03  0.42809173221E+03  0.47000000000E+01 0. -1.
        -11    1    4    4    0    0  0.25459769283E+02 -0.36276947925E+01 -0.14426588137E+03  0.14654011242E+03  0.00000000000E+00 0.  1.
         12    1    4    4    0    0 -0.96140438129E+01  0.84593849711E+01  0.39047339394E+01  0.13387978924E+02  0.00000000000E+00 0. -1.
         -5    1    5    5    0  502 -0.10973974354E+03  0.99045833178E+02  0.86105153252E+02  0.17114051478E+03  0.47000000000E+01 0.  1.
         11    1    6    6    0    0 -0.12036882938E+02 -0.26229258649E+02  0.16484633605E+02  0.33235578906E+02  0.00000000000E+00 0. -1.
        -12    1    6    6    0    0  0.87160712829E+01  0.51105610376E+02  0.79936009649E+02  0.95276014554E+02  0.00000000000E+00 0.  1.
<mgrwt>
<rscale>  2 0.23932759E+03</rscale>
<asrwt>0</asrwt>
<pdfrwt beam="1">  1       21 0.41025900E-01 0.23989070E+03</pdfrwt>
<pdfrwt beam="2">  1       21 0.95539013E-01 0.23989070E+03</pdfrwt>
<totfact> 0.50547346E+03</totfact>
</mgrwt>
</event>
<event>
12    1  0.1013215E-001  0.1947805E+03  0.7546771E-02  0.1154408E+00
         21   -1    0    0  501  502  0.00000000000E+00  0.00000000000E+00  0.15387012836E+03  0.15387012836E+03  0.00000000000E+00 0. -1.
         21   -1    0    0  502  503 -0.00000000000E+00 -0.00000000000E+00 -0.51325803930E+03  0.51325803930E+03  0.00000000000E+00 0. -1.
         -6    2    1    2    0  503  0.61571043331E+02  0.66266685747E+02 -0.42082035483E+03  0.46371244104E+03  0.17250272439E+03 0.  0.
        -24    2    3    3    0    0 -0.31446603283E+02  0.31326491328E+02 -0.16323968586E+03  0.18759110758E+03  0.81073982795E+02 0.  0.
          6    2    1    2  501    0 -0.61571043331E+02 -0.66266685747E+02  0.61432443886E+02  0.20341572662E+03  0.17152768190E+03 0.  0.
         24    2    5    5    0    0 -0.79108123056E+02 -0.99316684287E+02  0.28135919941E+02  0.15311065654E+03  0.80804357836E+02 0.  0.
          5    1    5    5  501    0  0.17537079725E+02  0.33049998540E+02  0.33296523945E+02  0.50305070078E+02  0.47000000000E+01 0. -1.
        -11    1    6    6    0    0  0.83884559516E+01 -0.86698689957E+01 -0.15625595833E+02  0.19740619717E+02  0.00000000000E+00 0.  1.
         12    1    6    6    0    0 -0.87496579007E+02 -0.90646815292E+02  0.43761515775E+02  0.13337003683E+03  0.00000000000E+00 0. -1.
         -5    1    3    3    0  503  0.93017646614E+02  0.34940194419E+02 -0.25758066897E+03  0.27612133346E+03  0.47000000000E+01 0.  1.
         13    1    4    4    0    0 -0.67300754590E+01 -0.23825980917E+02 -0.86134852293E+02  0.89622452889E+02  0.00000000000E+00 0. -1.
        -14    1    4    4    0    0 -0.24716527824E+02  0.55152472245E+02 -0.77104833567E+02  0.97968654690E+02  0.00000000000E+00 0.  1.
<mgrwt>
<rscale>  2 0.19456443E+03</rscale>
<asrwt>0</asrwt>
<pdfrwt beam="1">  1       21 0.23672327E-01 0.19478054E+03</pdfrwt>
<pdfrwt beam="2">  1       21 0.78962776E-01 0.19478054E+03</pdfrwt>
<totfact> 0.23775021E+04</totfact>
</mgrwt>
</event>
<event>
12    1  0.1013215E-001  0.2521168E+03  0.7546771E-02  0.1112282E+00
         21   -1    0    0  503  502  0.00000000000E+00  0.00000000000E+00  0.23217091052E+03  0.23217091052E+03  0.00000000000E+00 0. -1.
         21   -1    0    0  501  503 -0.00000000000E+00 -0.00000000000E+00 -0.12986038845E+04  0.12986038845E+04  0.00000000000E+00 0. -1.
          6    2    1    2  501    0  0.70121306231E+02 -0.16968328206E+03 -0.12142932457E+04  0.12401898867E+04  0.17278152287E+03 0.  0.
         24    2    3    3    0    0  0.25929479528E+02 -0.17215402642E+03 -0.76558916561E+03  0.78928361746E+03  0.80823954142E+02 0.  0.
         -6    2    1    2    0  502 -0.70121306231E+02  0.16968328206E+03  0.14786027170E+03  0.29058490838E+03  0.16990442971E+03 0.  0.
        -24    2    5    5    0    0 -0.26808804840E+02  0.11237719522E+03  0.16490565262E+03  0.21660791617E+03  0.79860935742E+02 0.  0.
          5    1    3    3  501    0  0.44191826704E+02  0.24707443668E+01 -0.44870408011E+03  0.45090626923E+03  0.47000000000E+01 0. -1.
        -13    1    4    4    0    0 -0.57199207155E+01 -0.11319444350E+03 -0.33816404507E+03  0.35665196047E+03  0.00000000000E+00 0.  1.
         14    1    4    4    0    0  0.31649400243E+02 -0.58959582925E+02 -0.42742512054E+03  0.43263165699E+03  0.00000000000E+00 0. -1.
         -5    1    5    5    0  502 -0.43312501391E+02  0.57306086837E+02 -0.17045380927E+02  0.73976992209E+02  0.47000000000E+01 0.  1.
         13    1    6    6    0    0 -0.29584860188E+02  0.59179422618E+02  0.32143589181E+02  0.73557313295E+02  0.00000000000E+00 0. -1.
        -14    1    6    6    0    0  0.27760553483E+01  0.53197772601E+02  0.13276206344E+03  0.14305060287E+03  0.00000000000E+00 0.  1.
<mgrwt>
<rscale>  2 0.25162459E+03</rscale>
<asrwt>0</asrwt>
<pdfrwt beam="1">  1       21 0.35718602E-01 0.25211678E+03</pdfrwt>
<pdfrwt beam="2">  1       21 0.19978521E+00 0.25211678E+03</pdfrwt>
<totfact> 0.95924616E+02</totfact>
</mgrwt>
</event>
<event>
12    1  0.1013215E-001  0.1871400E+03  0.7546771E-02  0.1161241E+00
         21   -1    0    0  501  502  0.00000000000E+00  0.00000000000E+00  0.54612744459E+02  0.54612744459E+02  0.00000000000E+00 0.  1.
         21   -1    0    0  502  503 -0.00000000000E+00 -0.00000000000E+00 -0.71268920062E+03  0.71268920062E+03  0.00000000000E+00 0.  1.
         -6    2    1    2    0  503 -0.53588324501E+02  0.47422676203E+02 -0.45207171619E+03  0.48898679741E+03  0.17210064707E+03 0.  0.
        -24    2    3    3    0    0 -0.88706068542E+02 -0.13177209877E+01 -0.25887625072E+03  0.28661224332E+03  0.85200715076E+02 0.  0.
          6    2    1    2  501    0  0.53588324501E+02 -0.47422676203E+02 -0.20600473997E+03  0.27831514766E+03  0.17291833272E+03 0.  0.
         24    2    5    5    0    0  0.40067351916E+02 -0.93468673548E+02 -0.18581492739E+03  0.22603925357E+03  0.78897219792E+02 0.  0.
          5    1    5    5  501    0  0.13520972586E+02  0.46045997345E+02 -0.20189812578E+02  0.52275894091E+02  0.47000000000E+01 0. -1.
        -11    1    6    6    0    0  0.63775073151E+02 -0.73098885319E+02 -0.14828254499E+03  0.17719599358E+03  0.00000000000E+00 0.  1.
         12    1    6    6    0    0 -0.23707721236E+02 -0.20369788229E+02 -0.37532382396E+02  0.48843259996E+02  0.00000000000E+00 0. -1.
         -5    1    3    3    0  503  0.35117744041E+02  0.48740397191E+02 -0.19319546547E+03  0.20237455409E+03  0.47000000000E+01 0.  1.
         13    1    4    4    0    0 -0.11221057066E+01 -0.30544803218E+02 -0.69625843253E+02  0.76039477731E+02  0.00000000000E+00 0. -1.
        -14    1    4    4    0    0 -0.87583962835E+02  0.29227082231E+02 -0.18925040747E+03  0.21057276559E+03  0.00000000000E+00 0.  1.
<mgrwt>
<rscale>  2 0.18695086E+03</rscale>
<asrwt>0</asrwt>
<pdfrwt beam="1">  1       21 0.84019617E-02 0.18713997E+03</pdfrwt>
<pdfrwt beam="2">  1       21 0.10964448E+00 0.18713997E+03</pdfrwt>
<totfact> 0.72703392E+04</totfact>
</mgrwt>
</event>
<event>
12    1  0.1013215E-001  0.2050453E+03  0.7546771E-02  0.1145613E+00
         21   -1    0    0  503  502  0.00000000000E+00  0.00000000000E+00  0.64466252038E+03  0.64466252038E+03  0.00000000000E+00 0.  1.
         21   -1    0    0  501  503 -0.00000000000E+00 -0.00000000000E+00 -0.20771853144E+03  0.20771853144E+03  0.00000000000E+00 0. -1.
          6    2    1    2  501    0  0.65162000475E+02  0.88395968615E+02 -0.13469930140E+03  0.24507584143E+03  0.17279563849E+03 0.  0.
         24    2    3    3    0    0 -0.11032985286E+02  0.93007425754E+02 -0.58126661037E+02  0.13685199635E+03  0.81102726043E+02 0.  0.
         -6    2    1    2    0  502 -0.65162000475E+02 -0.88395968615E+02  0.57164329034E+03  0.60730521040E+03  0.17315782863E+03 0.  0.
        -24    2    5    5    0    0 -0.32371472962E+02 -0.20878005458E+02  0.12009686321E+03  0.14953871982E+03  0.80341575784E+02 0.  0.
          5    1    3    3  501    0  0.76194985760E+02 -0.46114571385E+01 -0.76572640360E+02  0.10822384508E+03  0.47000000000E+01 0. -1.
        -11    1    4    4    0    0  0.25482556879E+02  0.40938264358E+02  0.34299872230E+01  0.48343220891E+02  0.00000000000E+00 0.  1.
         12    1    4    4    0    0 -0.36515542164E+02  0.52069161396E+02 -0.61556648260E+02  0.88508775458E+02  0.00000000000E+00 0. -1.
         -5    1    5    5    0  502 -0.32790527513E+02 -0.67517963157E+02  0.45154642712E+03  0.45776649057E+03  0.47000000000E+01 0.  1.
         11    1    6    6    0    0  0.22473005783E+02 -0.24365584224E+02  0.34702925033E+02  0.47989693574E+02  0.00000000000E+00 0. -1.
        -12    1    6    6    0    0 -0.54844478745E+02  0.34875787663E+01  0.85393938180E+02  0.10154902625E+03  0.00000000000E+00 0.  1.
<mgrwt>
<rscale>  2 0.20496879E+03</rscale>
<asrwt>0</asrwt>
<pdfrwt beam="1">  1       21 0.99178849E-01 0.20504528E+03</pdfrwt>
<pdfrwt beam="2">  1       21 0.31956697E-01 0.20504528E+03</pdfrwt>
<totfact> 0.78123956E+03</totfact>
</mgrwt>
</event>
<event>
12    1  0.1013215E-001  0.1842415E+03  0.7546771E-02  0.1165846E+00
         21   -1    0    0  503  502  0.00000000000E+00  0.00000000000E+00  0.63533551553E+02  0.63533551553E+02  0.00000000000E+00 0.  1.
         21   -1    0    0  501  503 -0.00000000000E+00 -0.00000000000E+00 -0.60304105916E+03  0.60304105916E+03  0.00000000000E+00 0. -1.
          6    2    1    2  501    0  0.58716958912E+02  0.13413262850E+02 -0.40649403206E+03  0.44629846573E+03  0.17411871102E+03 0.  0.
         24    2    3    3    0    0  0.18659455515E+02  0.66324414349E+02 -0.17379023780E+03  0.20427090656E+03  0.82319215833E+02 0.  0.
         -6    2    1    2    0  502 -0.58716958912E+02 -0.13413262850E+02 -0.13301347555E+03  0.22027614499E+03  0.16492846476E+03 0.  0.
        -24    2    5    5    0    0 -0.74721474112E+02  0.90166596581E+01 -0.15197154074E+03  0.18650124060E+03  0.77606473340E+02 0.  0.
          5    1    3    3  501    0  0.40057503397E+02 -0.52911151500E+02 -0.23270379426E+03  0.24202755917E+03  0.47000000000E+01 0. -1.
        -13    1    4    4    0    0  0.29004484932E+02  0.49451272359E+02 -0.42164668573E+02  0.71165636089E+02  0.00000000000E+00 0.  1.
         14    1    4    4    0    0 -0.10345029417E+02  0.16873141991E+02 -0.13162556922E+03  0.13310527047E+03  0.00000000000E+00 0. -1.
         -5    1    5    5    0  502  0.16004515200E+02 -0.22429922508E+02  0.18958065194E+02  0.33774904387E+02  0.47000000000E+01 0.  1.
         13    1    6    6    0    0 -0.19864715405E+02  0.36893067878E+02 -0.36112647159E+02  0.55315718023E+02  0.00000000000E+00 0. -1.
        -14    1    6    6    0    0 -0.54856758708E+02 -0.27876408220E+02 -0.11585889358E+03  0.13118552258E+03  0.00000000000E+00 0.  1.
<mgrwt>
<rscale>  2 0.18203734E+03</rscale>
<asrwt>0</asrwt>
<pdfrwt beam="1">  1       21 0.97743925E-02 0.18424148E+03</pdfrwt>
<pdfrwt beam="2">  1       21 0.92775548E-01 0.18424148E+03</pdfrwt>
<totfact> 0.83007053E+04</totfact>
</mgrwt>
</event>
<event>
12    1  0.1013215E-001  0.2225560E+03  0.7546771E-02  0.1132231E+00
         21   -1    0    0  503  502  0.00000000000E+00  0.00000000000E+00  0.26616106168E+03  0.26616106168E+03  0.00000000000E+00 0. -1.
         21   -1    0    0  501  503 -0.00000000000E+00 -0.00000000000E+00 -0.42186857920E+03  0.42186857920E+03  0.00000000000E+00 0.  1.
          6    2    1    2  501    0 -0.82968672369E+02 -0.11256333444E+03 -0.33572489123E+03  0.40279319564E+03  0.17313824247E+03 0.  0.
         24    2    3    3    0    0 -0.68954841773E+02 -0.57760342428E+02 -0.32323430985E+03  0.34467383566E+03  0.78921521530E+02 0.  0.
         -6    2    1    2    0  502  0.82968672369E+02  0.11256333444E+03  0.18001737371E+03  0.28523644523E+03  0.17146215324E+03 0.  0.
        -24    2    5    5    0    0  0.85462399108E+02  0.85033643651E+02  0.43932086786E+02  0.14629257935E+03  0.70263420851E+02 0.  0.
          5    1    3    3  501    0 -0.14013830596E+02 -0.54802992014E+02 -0.12490581380E+02  0.58119359983E+02  0.47000000000E+01 0. -1.
        -11    1    4    4    0    0 -0.21236274000E+02  0.14948899940E+02 -0.13286597526E+03  0.13538026564E+03  0.00000000000E+00 0.  1.
         12    1    4    4    0    0 -0.47718567773E+02 -0.72709242367E+02 -0.19036833459E+03  0.20929357002E+03  0.00000000000E+00 0. -1.
         -5    1    5    5    0  502 -0.24937267391E+01  0.27529690791E+02  0.13608528693E+03  0.13894386588E+03  0.47000000000E+01 0.  1.
         13    1    6    6    0    0  0.76955888083E+02  0.62615324143E+02  0.61357379941E+02  0.11665168495E+03  0.00000000000E+00 0. -1.
        -14    1    6    6    0    0  0.85065110258E+01  0.22418319508E+02 -0.17425293155E+02  0.29640894402E+02  0.00000000000E+00 0.  1.
<mgrwt>
<rscale>  2 0.22222989E+03</rscale>
<asrwt>0</asrwt>
<pdfrwt beam="1">  1       21 0.40947855E-01 0.22255596E+03</pdfrwt>
<pdfrwt beam="2">  1       21 0.64902859E-01 0.22255596E+03</pdfrwt>
<totfact> 0.12323672E+04</totfact>
</mgrwt>
</event>
<event>
12    1  0.1013215E-001  0.2249595E+03  0.7546771E-02  0.1130352E+00
         21   -1    0    0  501  502  0.00000000000E+00  0.00000000000E+00  0.41891115446E+03  0.41891115446E+03  0.00000000000E+00 0.  1.
         21   -1    0    0  502  503 -0.00000000000E+00 -0.00000000000E+00 -0.31642225666E+03  0.31642225666E+03  0.00000000000E+00 0. -1.
         -6    2    1    2    0  503 -0.10973704025E+03 -0.90995664989E+02 -0.23811464091E+03  0.32714528607E+03  0.17321381854E+03 0.  0.
        -24    2    3    3    0    0 -0.58385750238E+02  0.45847679444E+01 -0.17619033233E+03  0.20212815069E+03  0.79892679056E+02 0.  0.
          6    2    1    2  501    0  0.10973704025E+03  0.90995664989E+02  0.34060353871E+03  0.40818812505E+03  0.17402398053E+03 0.  0.
         24    2    5    5    0    0  0.34114634287E+02  0.58079179797E+02  0.71795957415E+02  0.12697317338E+03  0.80190572128E+02 0.  0.
          5    1    5    5  501    0  0.75622405965E+02  0.32916485192E+02  0.26880758129E+03  0.28121495167E+03  0.47000000000E+01 0. -1.
        -11    1    6    6    0    0  0.37831071975E+02  0.49429957338E+02  0.88263694641E+02  0.10800458546E+03  0.00000000000E+00 0.  1.
         12    1    6    6    0    0 -0.37164376874E+01  0.86492224586E+01 -0.16467737225E+02  0.18968587916E+02  0.00000000000E+00 0. -1.
         -5    1    3    3    0  503 -0.51351290014E+02 -0.95580432934E+02 -0.61924308573E+02  0.12501713538E+03  0.47000000000E+01 0.  1.
         11    1    4    4    0    0 -0.22985592229E+02 -0.20061542927E+02 -0.14678926676E+03  0.14992628786E+03  0.00000000000E+00 0. -1.
        -12    1    4    4    0    0 -0.35400158009E+02  0.24646310871E+02 -0.29401065573E+02  0.52201862835E+02  0.00000000000E+00 0.  1.
<mgrwt>
<rscale>  2 0.22480280E+03</rscale>
<asrwt>0</asrwt>
<pdfrwt beam="1">  1       21 0.64447870E-01 0.22495950E+03</pdfrwt>
<pdfrwt beam="2">  1       21 0.48680347E-01 0.22495950E+03</pdfrwt>
<totfact> 0.87513365E+03</totfact>
</mgrwt>
</event>
<event>
12    1  0.1013215E-001  0.1925546E+03  0.7546771E-02  0.1156194E+00
         21   -1    0    0  503  502  0.00000000000E+00  0.00000000000E+00  0.43750739435E+02  0.43750739435E+02  0.00000000000E+00 0.  1.
         21   -1    0    0  501  503 -0.00000000000E+00 -0.00000000000E+00 -0.87178072644E+03  0.87178072644E+03  0.00000000000E+00 0.  1.
          6    2    1    2  501    0  0.47665534811E+02  0.70832741213E+02 -0.49105283665E+03  0.52745630921E+03  0.17259197349E+03 0.  0.
         24    2    3    3    0    0 -0.57903920152E+01  0.99732268491E+02 -0.38295550303E+03  0.40336020804E+03  0.77874810539E+02 0.  0.
         -6    2    1    2    0  502 -0.47665534811E+02 -0.70832741213E+02 -0.33697715036E+03  0.38807515666E+03  0.17250926618E+03 0.  0.
        -24    2    5    5    0    0  0.31659573551E+01 -0.94928648882E+02 -0.16223679034E+03  0.20444308762E+03  0.80341323552E+02 0.  0.
          5    1    3    3  501    0  0.53455926826E+02 -0.28899527278E+02 -0.10809733362E+03  0.12409610117E+03  0.47000000000E+01 0. -1.
        -13    1    4    4    0    0  0.65240520443E+01 -0.55317132402E+01 -0.32643395408E+01  0.91552727478E+01  0.00000000000E+00 0.  1.
         14    1    4    4    0    0 -0.12314444059E+02  0.10526398173E+03 -0.37969116348E+03  0.39420493529E+03  0.00000000000E+00 0. -1.
         -5    1    5    5    0  502 -0.50831492166E+02  0.24095907669E+02 -0.17474036001E+03  0.18363206904E+03  0.47000000000E+01 0.  1.
         13    1    6    6    0    0  0.30683602562E+02 -0.60131306225E+01 -0.43586348822E+02  0.53641504543E+02  0.00000000000E+00 0. -1.
        -14    1    6    6    0    0 -0.27517645207E+02 -0.88915518260E+02 -0.11865044152E+03  0.15080158308E+03  0.00000000000E+00 0.  1.
<mgrwt>
<rscale>  2 0.19253605E+03</rscale>
<asrwt>0</asrwt>
<pdfrwt beam="1">  1       21 0.67308832E-02 0.19255459E+03</pdfrwt>
<pdfrwt beam="2">  1       21 0.13412011E+00 0.19255459E+03</pdfrwt>
<totfact> 0.64652932E+04</totfact>
</mgrwt>
</event>
<event>
12    1  0.1013215E-001  0.1734578E+03  0.7546771E-02  0.1174902E+00
         21   -1    0    0  503  502  0.00000000000E+00  0.00000000000E+00  0.60346919157E+02  0.60346919157E+02  0.00000000000E+00 0. -1.
         21   -1    0    0  501  503 -0.00000000000E+00 -0.00000000000E+00 -0.10844323271E+04  0.10844323271E+04  0.00000000000E+00 0. -1.
          6    2    1    2  501    0 -0.99596614222E+01  0.81565069043E+01 -0.93682258623E+03  0.95274558483E+03  0.17297938574E+03 0.  0.
         24    2    3    3    0    0  0.60068981105E+02  0.15262287928E+02 -0.51078181552E+03  0.52090379528E+03  0.81249498139E+02 0.  0.
         -6    2    1    2    0  502  0.99596614222E+01 -0.81565069043E+01 -0.87262821722E+02  0.19203366143E+03  0.17057667955E+03 0.  0.
        -24    2    5    5    0    0  0.22671872582E+02  0.62866777008E+01  0.17025165194E+02  0.85881505969E+02  0.80822278455E+02 0.  0.
          5    1    3    3  501    0 -0.70028642527E+02 -0.71057810237E+01 -0.42604077071E+03  0.43184178956E+03  0.47000000000E+01 0. -1.
        -11    1    4    4    0    0 -0.10213707848E+02  0.60611953443E+01 -0.11220583441E+02  0.16338892550E+02  0.00000000000E+00 0.  1.
         12    1    4    4    0    0  0.70282688952E+02  0.92010925837E+01 -0.49956123207E+03  0.50456490273E+03  0.00000000000E+00 0. -1.
         -5    1    5    5    0  502 -0.12712211160E+02 -0.14443184605E+02 -0.10428798692E+03  0.10615215546E+03  0.47000000000E+01 0.  1.
         11    1    6    6    0    0  0.66863701179E+01  0.40931373422E+02 -0.50831395445E+01  0.41784245634E+02  0.00000000000E+00 0. -1.
        -12    1    6    6    0    0  0.15985502464E+02 -0.34644695721E+02  0.22108304739E+02  0.44097260335E+02  0.00000000000E+00 0.  1.
<mgrwt>
<rscale>  2 0.17285563E+03</rscale>
<asrwt>0</asrwt>
<pdfrwt beam="1">  1       21 0.92841427E-02 0.17345775E+03</pdfrwt>
<pdfrwt beam="2">  1       21 0.16683572E+00 0.17345775E+03</pdfrwt>
<totfact> 0.21064985E+04</totfact>
</mgrwt>
</event>
<event>
12    1  0.1013215E-001  0.2342206E+03  0.7546771E-02  0.1124640E+00
         21   -1    0    0  501  502  0.00000000000E+00  0.00000000000E+00  0.78488949970E+03  0.78488949970E+03  0.00000000000E+00 0. -1.
         21   -1    0    0  502  503 -0.00000000000E+00 -0.00000000000E+00 -0.82305879252E+02  0.82305879252E+02  0.00000000000E+00 0.  1.
         -6    2    1    2    0  503 -0.15916636262E+03  0.10802102535E+01  0.52677160411E+03  0.57433167027E+03  0.16441851092E+03 0.  0.
        -24    2    3    3    0    0 -0.10539917012E+03 -0.18721158155E+02  0.48554581853E+03  0.50358804457E+03  0.79916893833E+02 0.  0.
          6    2    1    2  501    0  0.15916636262E+03 -0.10802102535E+01  0.17581201633E+03  0.29286370868E+03  0.17182604265E+03 0.  0.
         24    2    5    5    0    0  0.18478461494E+03  0.61075017032E+01  0.17350142061E+03  0.26574569053E+03  0.79595060061E+02 0.  0.
          5    1    5    5  501    0 -0.25618252329E+02 -0.71877119567E+01  0.23105957236E+01  0.27118018146E+02  0.47000000000E+01 0. -1.
        -13    1    6    6    0    0  0.24119378043E+02 -0.25106215112E+02  0.15004404023E+02  0.37910401930E+02  0.00000000000E+00 0.  1.
         14    1    6    6    0    0  0.16066523690E+03  0.31213716815E+02  0.15849701658E+03  0.22783528860E+03  0.00000000000E+00 0. -1.
         -5    1    3    3    0  503 -0.53767192501E+02  0.19801368408E+02  0.41225785584E+02  0.70743625701E+02  0.47000000000E+01 0.  1.
         11    1    4    4    0    0 -0.88406645461E+02 -0.54673702140E+01  0.21988984685E+03  0.23705942683E+03  0.00000000000E+00 0. -1.
        -12    1    4    4    0    0 -0.16992524654E+02 -0.13253787941E+02  0.26565597168E+03  0.26652861774E+03  0.00000000000E+00 0.  1.
<mgrwt>
<rscale>  2 0.23286414E+03</rscale>
<asrwt>0</asrwt>
<pdfrwt beam="1">  1       21 0.12075223E+00 0.23422059E+03</pdfrwt>
<pdfrwt beam="2">  1       21 0.12662443E-01 0.23422059E+03</pdfrwt>
<totfact> 0.27063893E+04</totfact>
</mgrwt>
</event>
<event>
12    1  0.1013215E-001  0.1773372E+03  0.7546771E-02  0.1173212E+00
         21   -1    0    0  501  502  0.00000000000E+00  0.00000000000E+00  0.12402025835E+04  0.12402025835E+04  0.00000000000E+00 0. -1.
         21   -1    0    0  502  503 -0.00000000000E+00 -0.00000000000E+00 -0.21780147058E+03  0.21780147058E+03  0.00000000000E+00 0. -1.
         -6    2    1    2    0  503 -0.11635693396E+02  0.80244510027E+01 -0.17854998885E+03  0.24403039843E+03  0.16574364442E+03 0.  0.
        -24    2    3    3    0    0  0.24461530081E+02 -0.93420567166E+01 -0.19035468589E+03  0.20200604828E+03  0.62336960365E+02 0.  0.
          6    2    1    2  501    0  0.11635693396E+02 -0.80244510027E+01  0.12009511017E+04  0.12139736556E+04  0.17677303690E+03 0.  0.
         24    2    5    5    0    0 -0.47991197109E+02 -0.70522592405E+01  0.32784196314E+03  0.33881768715E+03  0.70456958281E+02 0.  0.
          5    1    5    5  501    0  0.59626890505E+02 -0.97219176218E+00  0.87310913859E+03  0.87515596845E+03  0.47000000000E+01 0. -1.
        -13    1    6    6    0    0 -0.62692292585E+02  0.81625683568E+01  0.26766195035E+03  0.27502703637E+03  0.00000000000E+00 0.  1.
         14    1    6    6    0    0  0.14701095476E+02 -0.15214827597E+02  0.60180012785E+02  0.63790650771E+02  0.00000000000E+00 0. -1.
         -5    1    3    3    0  503 -0.36097223476E+02  0.17366507719E+02  0.11804697037E+02  0.42024350146E+02  0.47000000000E+01 0.  1.
         13    1    4    4    0    0  0.12757567198E+02  0.26635281435E+02 -0.92096360845E+02  0.96715735116E+02  0.00000000000E+00 0. -1.
        -14    1    4    4    0    0  0.11703962882E+02 -0.35977338152E+02 -0.98258325040E+02  0.10529031317E+03  0.00000000000E+00 0.  1.
<mgrwt>
<rscale>  2 0.17452293E+03</rscale>
<asrwt>0</asrwt>
<pdfrwt beam="1">  1       21 0.19080039E+00 0.17733721E+03</pdfrwt>
<pdfrwt beam="2">  1       21 0.33507919E-01 0.17733721E+03</pdfrwt>
<totfact> 0.13445487E+03</totfact>
</mgrwt>
</event>
<event>
12    1  0.1013215E-001  0.1784722E+03  0.7546771E-02  0.1169504E+00
         21   -1    0    0  503  502  0.00000000000E+00  0.00000000000E+00  0.11394880098E+03  0.11394880098E+03  0.00000000000E+00 0. -1.
         21   -1    0    0  501  503 -0.00000000000E+00 -0.00000000000E+00 -0.40507332333E+03  0.40507332333E+03  0.00000000000E+00 0. -1.
          6    2    1    2  501    0  0.37458687707E+02 -0.18585341101E+02 -0.29105974504E+03  0.34142071300E+03  0.17350435122E+03 0.  0.
         24    2    3    3    0    0  0.71232800970E+02 -0.50294156949E+02 -0.13591161081E+03  0.17943561095E+03  0.78240388341E+02 0.  0.
         -6    2    1    2    0  502 -0.37458687707E+02  0.18585341101E+02 -0.64777302036E-01  0.17760141131E+03  0.17260848448E+03 0.  0.
        -24    2    5    5    0    0 -0.11522045969E+02  0.37264935276E+02  0.61639084336E+02  0.10795162191E+03  0.79578533599E+02 0.  0.
          5    1    3    3  501    0 -0.33774113263E+02  0.31708815848E+02 -0.15514813423E+03  0.16198510205E+03  0.47000000000E+01 0. -1.
        -11    1    4    4    0    0  0.67046171134E+01 -0.47735808729E+02 -0.34771587497E+02  0.59436711069E+02  0.00000000000E+00 0.  1.
         12    1    4    4    0    0  0.64528183857E+02 -0.25583482198E+01 -0.10114002331E+03  0.11999889988E+03  0.00000000000E+00 0. -1.
         -5    1    5    5    0  502 -0.25936641738E+02 -0.18679594175E+02 -0.61703861638E+02  0.69649789406E+02  0.47000000000E+01 0.  1.
         11    1    6    6    0    0 -0.20298964650E+02  0.59293006088E+02  0.54856755805E+02  0.83288487766E+02  0.00000000000E+00 0. -1.
        -12    1    6    6    0    0  0.87769186819E+01 -0.22028070812E+02  0.67823285311E+01  0.24663134139E+02  0.00000000000E+00 0.  1.
<mgrwt>
<rscale>  2 0.17825410E+03</rscale>
<asrwt>0</asrwt>
<pdfrwt beam="1">  1       21 0.17530585E-01 0.17847221E+03</pdfrwt>
<pdfrwt beam="2">  1       21 0.62318973E-01 0.17847221E+03</pdfrwt>
<totfact> 0.70827260E+04</totfact>
</mgrwt>
</event>
<event>
12    1  0.1013215E-001  0.2188318E+03  0.7546771E-02  0.1135133E+00
         21   -1    0    0  503  502  0.00000000000E+00  0.00000000000E+00  0.36957817259E+03  0.36957817259E+03  0.00000000000E+00 0. -1.
         21   -1    0    0  501  503 -0.00000000000E+00 -0.00000000000E+00 -0.14042486049E+03  0.14042486049E+03  0.00000000000E+00 0. -1.
          6    2    1    2  501    0 -0.11412115828E+03 -0.67772660244E+02  0.40421879200E+02  0.22253377824E+03  0.17398443003E+03 0.  0.
         24    2    3    3    0    0 -0.41865892953E+01 -0.64902587384E+02 -0.43430662481E+01  0.10370685739E+03  0.80662114196E+02 0.  0.
         -6    2    1    2    0  502  0.11412115828E+03  0.67772660244E+02  0.18873143290E+03  0.28746925484E+03  0.17147083272E+03 0.  0.
        -24    2    5    5    0    0  0.12873311860E+03  0.63171541122E+01  0.11402449191E+03  0.18952281208E+03  0.79405222010E+02 0.  0.
          5    1    3    3  501    0 -0.10993456899E+03 -0.28700728601E+01  0.44764945448E+02  0.11882692085E+03  0.47000000000E+01 0. -1.
        -11    1    4    4    0    0 -0.17075045547E+02  0.14685296601E+02  0.31241427982E+01  0.22737092710E+02  0.00000000000E+00 0.  1.
         12    1    4    4    0    0  0.12888456252E+02 -0.79587883984E+02 -0.74672090464E+01  0.80969764682E+02  0.00000000000E+00 0. -1.
         -5    1    5    5    0  502 -0.14611960319E+02  0.61455506132E+02  0.74706940992E+02  0.97946442767E+02  0.47000000000E+01 0.  1.
         13    1    6    6    0    0  0.86326572851E+02  0.18815936611E+02  0.27797960690E+02  0.92623124916E+02  0.00000000000E+00 0. -1.
        -14    1    6    6    0    0  0.42406545752E+02 -0.12498782499E+02  0.86226531216E+02  0.96899687162E+02  0.00000000000E+00 0.  1.
<mgrwt>
<rscale>  2 0.21833181E+03</rscale>
<asrwt>0</asrwt>
<pdfrwt beam="1">  1       21 0.56858180E-01 0.21883179E+03</pdfrwt>
<pdfrwt beam="2">  1       21 0.21603825E-01 0.21883179E+03</pdfrwt>
<totfact> 0.57369006E+04</totfact>
</mgrwt>
</event>
<event>
12    1  0.1013215E-001  0.1812037E+03  0.7546771E-02  0.1166950E+00
         21   -1    0    0  501  502  0.00000000000E+00  0.00000000000E+00  0.21915897678E+03  0.21915897678E+03  0.00000000000E+00 0.  1.
         21   -1    0    0  502  503 -0.00000000000E+00 -0.00000000000E+00 -0.40348143604E+03  0.40348143604E+03  0.00000000000E+00 0.  1.
         -6    2    1    2    0  503 -0.38630504526E+02 -0.29192834127E+02 -0.33939497102E+03  0.38414040949E+03  0.17329273038E+03 0.  0.
        -24    2    3    3    0    0 -0.49634204930E+02 -0.28242072239E+01 -0.83279104827E+02  0.12639283370E+03  0.81044485716E+02 0.  0.
          6    2    1    2  501    0  0.38630504526E+02  0.29192834127E+02  0.15507251176E+03  0.23850000333E+03  0.17461451898E+03 0.  0.
         24    2    5    5    0    0 -0.19191756588E+02 -0.26394303179E+02  0.12651975466E+03  0.15323164078E+03  0.80048139611E+02 0.  0.
          5    1    5    5  501    0  0.57822261114E+02  0.55587137305E+02  0.28552757102E+02  0.85268362552E+02  0.47000000000E+01 0. -1.
        -11    1    6    6    0    0 -0.65929387629E+01  0.16482216731E+02  0.99366853738E+02  0.10094009080E+03  0.00000000000E+00 0.  1.
         12    1    6    6    0    0 -0.12598817825E+02 -0.42876519909E+02  0.27152900921E+02  0.52291549973E+02  0.00000000000E+00 0. -1.
         -5    1    3    3    0  503  0.11003700404E+02 -0.26368626903E+02 -0.25611586619E+03  0.25774757578E+03  0.47000000000E+01 0.  1.
         11    1    4    4    0    0 -0.21753935108E+02  0.15242518124E+02  0.92131901489E+01  0.28114959081E+02  0.00000000000E+00 0. -1.
        -12    1    4    4    0    0 -0.27880269822E+02 -0.18066725348E+02 -0.92492294975E+02  0.98277874621E+02  0.00000000000E+00 0.  1.
<mgrwt>
<rscale>  2 0.18088448E+03</rscale>
<asrwt>0</asrwt>
<pdfrwt beam="1">  1       21 0.33716766E-01 0.18120366E+03</pdfrwt>
<pdfrwt beam="2">  1       21 0.62074067E-01 0.18120366E+03</pdfrwt>
<totfact> 0.20546465E+04</totfact>
</mgrwt>
</event>
<event>
12    1  0.1013215E-001  0.1798929E+03  0.7546771E-02  0.1169083E+00
         21   -1    0    0  501  502  0.00000000000E+00  0.00000000000E+00  0.27667923618E+03  0.27667923618E+03  0.00000000000E+00 0.  1.
         21   -1    0    0  502  503 -0.00000000000E+00 -0.00000000000E+00 -0.27938046491E+03  0.27938046491E+03  0.00000000000E+00 0.  1.
         -6    2    1    2    0  503  0.45027797467E+02  0.18208914539E+01 -0.21533102039E+03  0.27754060574E+03  0.16920555931E+03 0.  0.
        -24    2    3    3    0    0  0.14581950717E+02  0.12319158974E+02 -0.31074877014E+02  0.90432135653E+02  0.82752209715E+02 0.  0.
          6    2    1    2  501    0 -0.45027797467E+02 -0.18208914539E+01  0.21262979167E+03  0.27851909536E+03  0.17415694067E+03 0.  0.
         24    2    5    5    0    0 -0.40650276789E+02  0.76209154178E+01  0.23583667692E+03  0.25265483570E+03  0.80653607919E+02 0.  0.
          5    1    5    5  501    0 -0.43775206776E+01 -0.94418068717E+01 -0.23206885250E+02  0.25864259651E+02  0.47000000000E+01 0. -1.
        -13    1    6    6    0    0 -0.34208646784E+02  0.42837070389E+02  0.14012978476E+03  0.15047126866E+03  0.00000000000E+00 0.  1.
         14    1    6    6    0    0 -0.64416300048E+01 -0.35216154971E+02  0.95706892155E+02  0.10218356704E+03  0.00000000000E+00 0. -1.
         -5    1    3    3    0  503  0.30445846750E+02 -0.10498267520E+02 -0.18425614338E+03  0.18710847009E+03  0.47000000000E+01 0.  1.
         11    1    4    4    0    0 -0.30195627132E+02  0.50529863600E+01 -0.33017363675E+02  0.45027268106E+02  0.00000000000E+00 0. -1.
        -12    1    4    4    0    0  0.44777577849E+02  0.72661726139E+01  0.19424866607E+01  0.45404867547E+02  0.00000000000E+00 0.  1.
<mgrwt>
<rscale>  2 0.17868349E+03</rscale>
<asrwt>0</asrwt>
<pdfrwt beam="1">  1       21 0.42566036E-01 0.17989291E+03</pdfrwt>
<pdfrwt beam="2">  1       21 0.42981610E-01 0.17989291E+03</pdfrwt>
<totfact> 0.27832843E+04</totfact>
</mgrwt>
</event>
<event>
12    1  0.1013215E-001  0.2162265E+03  0.7546771E-02  0.1136869E+00
         21   -1    0    0  501  502  0.00000000000E+00  0.00000000000E+00  0.93618038628E+03  0.93618038628E+03  0.00000000000E+00 0. -1.
         21   -1    0    0  502  503 -0.00000000000E+00 -0.00000000000E+00 -0.14544491470E+03  0.14544491470E+03  0.00000000000E+00 0. -1.
         -6    2    1    2    0  503 -0.10758376804E+03 -0.66696619403E+02 -0.43027661913E+02  0.22046604041E+03  0.17530313488E+03 0.  0.
        -24    2    3    3    0    0 -0.67339107682E+02  0.32003343554E+02 -0.25908542188E+02  0.11240832604E+03  0.80035053458E+02 0.  0.
          6    2    1    2  501    0  0.10758376804E+03  0.66696619403E+02  0.83376313349E+03  0.86115926057E+03  0.17438922877E+03 0.  0.
         24    2    5    5    0    0  0.24696432511E+02 -0.59065766844E+01  0.17977374987E+03  0.19793551374E+03  0.78835683729E+02 0.  0.
          5    1    5    5  501    0  0.82887335530E+02  0.72603196087E+02  0.65398938362E+03  0.66322374683E+03  0.47000000000E+01 0. -1.
        -11    1    6    6    0    0  0.17039511057E+01  0.15873797267E+02  0.15957548175E+03  0.16037211499E+03  0.00000000000E+00 0.  1.
         12    1    6    6    0    0  0.22992481406E+02 -0.21780373951E+02  0.20198268117E+02  0.37563398749E+02  0.00000000000E+00 0. -1.
         -5    1    3    3    0  503 -0.40244660359E+02 -0.98699962957E+02 -0.17119119725E+02  0.10805771437E+03  0.47000000000E+01 0.  1.
         11    1    4    4    0    0 -0.16708666671E+02 -0.24287538847E+02 -0.21654148567E+02  0.36578220778E+02  0.00000000000E+00 0. -1.
        -12    1    4    4    0    0 -0.50630441011E+02  0.56290882400E+02 -0.42543936212E+01  0.75830105258E+02  0.00000000000E+00 0.  1.
<mgrwt>
<rscale>  2 0.21604118E+03</rscale>
<asrwt>0</asrwt>
<pdfrwt beam="1">  1       21 0.14402775E+00 0.21622649E+03</pdfrwt>
<pdfrwt beam="2">  1       21 0.22376141E-01 0.21622649E+03</pdfrwt>
<totfact> 0.61011207E+03</totfact>
</mgrwt>
</event>
<event>
12    1  0.1013215E-001  0.2073338E+03  0.7546771E-02  0.1143845E+00
         21   -1    0    0  501  502  0.00000000000E+00  0.00000000000E+00  0.77332627782E+03  0.77332627782E+03  0.00000000000E+00 0. -1.
         21   -1    0    0  502  503 -0.00000000000E+00 -0.00000000000E+00 -0.47672715156E+03  0.47672715156E+03  0.00000000000E+00 0. -1.
         -6    2    1    2    0  503  0.58685578708E+02  0.96790025775E+02 -0.43932856653E+03  0.48547716258E+03  0.17281834330E+03 0.  0.
        -24    2    3    3    0    0  0.14086479177E+02  0.11084028173E+03 -0.40347960678E+03  0.42636940263E+03  0.80691247736E+02 0.  0.
          6    2    1    2  501    0 -0.58685578708E+02 -0.96790025775E+02  0.73592769279E+03  0.76457626680E+03  0.17370950607E+03 0.  0.
         24    2    5    5    0    0  0.31312561534E+02 -0.12404179782E+02  0.33548685168E+03  0.34553498782E+03  0.75555674692E+02 0.  0.
          5    1    5    5  501    0 -0.89998140243E+02 -0.84385845993E+02  0.40044084112E+03  0.41904127897E+03  0.47000000000E+01 0. -1.
        -11    1    6    6    0    0  0.90970496374E+01  0.30114525868E+02  0.18286621542E+03  0.18555240156E+03  0.00000000000E+00 0.  1.
         12    1    6    6    0    0  0.22215511897E+02 -0.42518705649E+02  0.15262063625E+03  0.15998258627E+03  0.00000000000E+00 0. -1.
         -5    1    3    3    0  503  0.44599099531E+02 -0.14050255956E+02 -0.35848959747E+02  0.59107759951E+02  0.47000000000E+01 0.  1.
         11    1    4    4    0    0  0.20425919475E+02  0.69126502341E+02 -0.35435781916E+03  0.36161465058E+03  0.00000000000E+00 0. -1.
        -12    1    4    4    0    0 -0.63394402976E+01  0.41713779390E+02 -0.49121787618E+02  0.64754752050E+02  0.00000000000E+00 0.  1.
<mgrwt>
<rscale>  2 0.20714702E+03</rscale>
<asrwt>0</asrwt>
<pdfrwt beam="1">  1       21 0.11897327E+00 0.20733379E+03</pdfrwt>
<pdfrwt beam="2">  1       21 0.73342639E-01 0.20733379E+03</pdfrwt>
<totfact> 0.88817187E+02</totfact>
</mgrwt>
</event>
<event>
12    1  0.1013215E-001  0.2000647E+03  0.7546771E-02  0.1149831E+00
         21   -1    0    0  503  502  0.00000000000E+00  0.00000000000E+00  0.22103126362E+03  0.22103126362E+03  0.00000000000E+00 0. -1.
         21   -1    0    0  501  503 -0.00000000000E+00 -0.00000000000E+00 -0.24576862605E+03  0.24576862605E+03  0.00000000000E+00 0. -1.
          6    2    1    2  501    0 -0.98446845380E+00 -0.99933655809E+02 -0.13270032094E+03  0.24007344463E+03  0.17331525870E+03 0.  0.
         24    2    3    3    0    0 -0.36422851449E+02 -0.12440257357E+03 -0.82356032862E+02  0.17365624605E+03  0.81063871267E+02 0.  0.
         -6    2    1    2    0  502  0.98446845380E+00  0.99933655809E+02  0.10796295852E+03  0.22672644503E+03  0.17251427687E+03 0.  0.
        -24    2    5    5    0    0 -0.13922245588E+01  0.69685420084E+02 -0.84594270633E+01  0.10632351194E+03  0.79844418857E+02 0.  0.
          5    1    3    3  501    0  0.35438382996E+02  0.24468917757E+02 -0.50344288082E+02  0.66417198586E+02  0.47000000000E+01 0. -1.
        -11    1    4    4    0    0 -0.47162230072E+02 -0.55381749257E+02 -0.10590751638E+02  0.73509034250E+02  0.00000000000E+00 0.  1.
         12    1    4    4    0    0  0.10739378623E+02 -0.69020824309E+02 -0.71765281224E+02  0.10014721180E+03  0.00000000000E+00 0. -1.
         -5    1    5    5    0  502  0.23766930126E+01  0.30248235725E+02  0.11642238558E+03  0.12040293310E+03  0.47000000000E+01 0.  1.
         13    1    6    6    0    0 -0.12994081743E+01  0.19877865760E+01  0.28902714124E+02  0.29000114496E+02  0.00000000000E+00 0. -1.
        -14    1    6    6    0    0 -0.92816384507E-01  0.67697633508E+02 -0.37362141187E+02  0.77323397439E+02  0.00000000000E+00 0.  1.
<mgrwt>
<rscale>  2 0.19989110E+03</rscale>
<asrwt>0</asrwt>
<pdfrwt beam="1">  1       21 0.34004810E-01 0.20006470E+03</pdfrwt>
<pdfrwt beam="2">  1       21 0.37810558E-01 0.20006470E+03</pdfrwt>
<totfact> 0.56011320E+04</totfact>
</mgrwt>
</event>
<event>
12    1  0.1013215E-001  0.1756610E+03  0.7546771E-02  0.1172099E+00
         21   -1    0    0  503  502  0.00000000000E+00  0.00000000000E+00  0.40308070160E+03  0.40308070160E+03  0.00000000000E+00 0. -1.
         21   -1    0    0  501  503 -0.00000000000E+00 -0.00000000000E+00 -0.88541093741E+02  0.88541093741E+02  0.00000000000E+00 0. -1.
          6    2    1    2  501    0  0.16904241065E+02 -0.23537150234E+02  0.66582300043E+02  0.18774746440E+03  0.17313623798E+03 0.  0.
         24    2    3    3    0    0 -0.13570846053E+02 -0.17541361424E+02  0.10752512649E+03  0.13614237303E+03  0.80506059918E+02 0.  0.
         -6    2    1    2    0  502 -0.16904241065E+02  0.23537150234E+02  0.24795730782E+03  0.30387433094E+03  0.17325424005E+03 0.  0.
        -24    2    5    5    0    0 -0.63590820231E+02 -0.36516156597E+01  0.20887857741E+03  0.23703046185E+03  0.92174036632E+02 0.  0.
          5    1    3    3  501    0  0.30475087118E+02 -0.59957888108E+01 -0.40942826447E+02  0.51605091375E+02  0.47000000000E+01 0. -1.
        -11    1    4    4    0    0  0.31865635469E+02 -0.14170090863E+01  0.24842645528E+02  0.40429984856E+02  0.00000000000E+00 0.  1.
         12    1    4    4    0    0 -0.45436481522E+02 -0.16124352337E+02  0.82682480962E+02  0.95712388171E+02  0.00000000000E+00 0. -1.
         -5    1    5    5    0  502  0.46686579165E+02  0.27188765894E+02  0.39078730415E+02  0.66843869097E+02  0.47000000000E+01 0.  1.
         11    1    6    6    0    0 -0.95323546995E+01  0.12379683645E+02  0.16459306166E+03  0.16533299217E+03  0.00000000000E+00 0. -1.
        -12    1    6    6    0    0 -0.54058465531E+02 -0.16031299305E+02  0.44285515745E+02  0.71697469675E+02  0.00000000000E+00 0.  1.
<mgrwt>
<rscale>  2 0.17563188E+03</rscale>
<asrwt>0</asrwt>
<pdfrwt beam="1">  1       21 0.62012415E-01 0.17566099E+03</pdfrwt>
<pdfrwt beam="2">  1       21 0.13621707E-01 0.17566099E+03</pdfrwt>
<totfact> 0.11347906E+05</totfact>
</mgrwt>
</event>
<event>
12    1  0.1013215E-001  0.1918710E+03  0.7546771E-02  0.1157036E+00
         21   -1    0    0  503  502  0.00000000000E+00  0.00000000000E+00  0.32855021124E+03  0.32855021124E+03  0.00000000000E+00 0. -1.
         21   -1    0    0  501  503 -0.00000000000E+00 -0.00000000000E+00 -0.11832109816E+03  0.11832109816E+03  0.00000000000E+00 0. -1.
          6    2    1    2  501    0  0.63059489581E+02  0.51205595617E+02  0.50763204152E+02  0.19738409216E+03  0.17258350064E+03 0.  0.
         24    2    3    3    0    0  0.95302917908E+02  0.74592732370E+02  0.53991828183E+02  0.15714591565E+03  0.84457086209E+02 0.  0.
         -6    2    1    2    0  502 -0.63059489581E+02 -0.51205595617E+02  0.15946590893E+03  0.24948721724E+03  0.17382745239E+03 0.  0.
        -24    2    5    5    0    0 -0.20489761322E+02  0.79810513813E+01 -0.31529041004E+01  0.71211561865E+02  0.67658098103E+02 0.  0.
          5    1    3    3  501    0 -0.32243428328E+02 -0.23387136753E+02 -0.32286240317E+01  0.40238176512E+02  0.47000000000E+01 0. -1.
        -13    1    4    4    0    0  0.63974758593E+02  0.21545645879E+02  0.65967119798E+02  0.94385621192E+02  0.00000000000E+00 0.  1.
         14    1    4    4    0    0  0.31328159315E+02  0.53047086492E+02 -0.11975291614E+02  0.62760294459E+02  0.00000000000E+00 0. -1.
         -5    1    5    5    0  502 -0.42569728259E+02 -0.59186646998E+02  0.16261881303E+03  0.17827565537E+03  0.47000000000E+01 0.  1.
         13    1    6    6    0    0 -0.24761437336E+02  0.40580834528E+01  0.29109939896E+02  0.38431568027E+02  0.00000000000E+00 0. -1.
        -14    1    6    6    0    0  0.42716760136E+01  0.39229679286E+01 -0.32262843997E+02  0.32779993839E+02  0.00000000000E+00 0.  1.
<mgrwt>
<rscale>  2 0.19158886E+03</rscale>
<asrwt>0</asrwt>
<pdfrwt beam="1">  1       21 0.50546186E-01 0.19187104E+03</pdfrwt>
<pdfrwt beam="2">  1       21 0.18203246E-01 0.19187104E+03</pdfrwt>
<totfact> 0.10246762E+05</totfact>
</mgrwt>
</event>
<event>
12    1  0.1013215E-001  0.1942085E+03  0.7546771E-02  0.1154842E+00
         21   -1    0    0  503  502  0.00000000000E+00  0.00000000000E+00  0.29023934476E+03  0.29023934476E+03  0.00000000000E+00 0.  1.
         21   -1    0    0  501  503 -0.00000000000E+00 -0.00000000000E+00 -0.22177593192E+03  0.22177593192E+03  0.00000000000E+00 0. -1.
          6    2    1    2  501    0 -0.15786553511E+02  0.86520784153E+02 -0.13086142935E+03  0.23372166085E+03  0.17252837359E+03 0.  0.
         24    2    3    3    0    0 -0.27440882141E+02  0.10112218768E+02 -0.12986189808E+03  0.15628019067E+03  0.81878730096E+02 0.  0.
         -6    2    1    2    0  502  0.15786553511E+02 -0.86520784153E+02  0.19932484220E+03  0.27829361584E+03  0.17315277225E+03 0.  0.
        -24    2    5    5    0    0 -0.30682655347E+02 -0.41767654348E+02  0.19046013997E+03  0.21300270571E+03  0.80057013659E+02 0.  0.
          5    1    3    3  501    0  0.11654328629E+02  0.76408565386E+02 -0.99953127456E+00  0.77441470175E+02  0.47000000000E+01 0. -1.
        -13    1    4    4    0    0 -0.32648763545E+02 -0.30540969189E+02 -0.54466143703E+02  0.70464553997E+02  0.00000000000E+00 0.  1.
         14    1    4    4    0    0  0.52078814048E+01  0.40653187957E+02 -0.75395754376E+02  0.85815636674E+02  0.00000000000E+00 0. -1.
         -5    1    5    5    0  502  0.46469208859E+02 -0.44753129805E+02  0.88647022271E+01  0.65290910124E+02  0.47000000000E+01 0.  1.
         13    1    6    6    0    0  0.79436375061E+01  0.15710591824E+02  0.85235768554E+02  0.87034822418E+02  0.00000000000E+00 0. -1.
        -14    1    6    6    0    0 -0.38626292853E+02 -0.57478246173E+02  0.10522437141E+03  0.12596788330E+03  0.00000000000E+00 0.  1.
<mgrwt>
<rscale>  2 0.19406923E+03</rscale>
<asrwt>0</asrwt>
<pdfrwt beam="1">  1       21 0.44652207E-01 0.19420851E+03</pdfrwt>
<pdfrwt beam="2">  1       21 0.34119374E-01 0.19420851E+03</pdfrwt>
<totfact> 0.39821812E+04</totfact>
</mgrwt>
</event>
<event>
12    1  0.1013215E-001  0.1775686E+03  0.7546771E-02  0.1170492E+00
         21   -1    0    0  501  502  0.00000000000E+00  0.00000000000E+00  0.83907993799E+03  0.83907993799E+03  0.00000000000E+00 0. -1.
         21   -1    0    0  502  503 -0.00000000000E+00 -0.00000000000E+00 -0.33201559664E+03  0.33201559664E+03  0.00000000000E+00 0. -1.
         -6    2    1    2    0  503  0.37484766220E+02  0.14694652427E+02 -0.29803349230E+03  0.34692157591E+03  0.17294385445E+03 0.  0.
        -24    2    3    3    0    0  0.51122791997E+02  0.68531039927E+02 -0.23061687570E+03  0.25944905131E+03  0.82581012185E+02 0.  0.
          6    2    1    2  501    0 -0.37484766220E+02 -0.14694652427E+02  0.80509783364E+03  0.82417395872E+03  0.17163668605E+03 0.  0.
         24    2    5    5    0    0  0.34830237867E+02  0.27329171665E+02  0.35833860083E+03  0.36962873137E+03  0.79112686194E+02 0.  0.
          5    1    5    5  501    0 -0.72315004087E+02 -0.42023824093E+02  0.44675923282E+03  0.45454522736E+03  0.47000000000E+01 0. -1.
        -13    1    6    6    0    0 -0.77252602389E+01  0.36013481977E+02  0.81929592055E+02  0.89828217083E+02  0.00000000000E+00 0.  1.
         14    1    6    6    0    0  0.42555498106E+02 -0.86843103119E+01  0.27640900877E+03  0.27980051428E+03  0.00000000000E+00 0. -1.
         -5    1    3    3    0  503 -0.13638025776E+02 -0.53836387500E+02 -0.67416616595E+02  0.87472524596E+02  0.47000000000E+01 0.  1.
         13    1    4    4    0    0  0.34518361000E+02 -0.23820578995E+01 -0.13436079151E+03  0.13874441878E+03  0.00000000000E+00 0. -1.
        -14    1    4    4    0    0  0.16604430997E+02  0.70913097826E+02 -0.96256084191E+02  0.12070463254E+03  0.00000000000E+00 0.  1.
<mgrwt>
<rscale>  2 0.17724955E+03</rscale>
<asrwt>0</asrwt>
<pdfrwt beam="1">  1       21 0.12908922E+00 0.17756863E+03</pdfrwt>
<pdfrwt beam="2">  1       21 0.51079323E-01 0.17756863E+03</pdfrwt>
<totfact> 0.16275741E+03</totfact>
</mgrwt>
</event>
<event>
12    1  0.1013215E-001  0.2634213E+03  0.7546771E-02  0.1105236E+00
         21   -1    0    0  503  502  0.00000000000E+00  0.00000000000E+00  0.14773849072E+04  0.14773849072E+04  0.00000000000E+00 0. -1.
         21   -1    0    0  501  503 -0.00000000000E+00 -0.00000000000E+00 -0.65165676125E+02  0.65165676125E+02  0.00000000000E+00 0. -1.
          6    2    1    2  501    0  0.68892488788E+02  0.18580106669E+03  0.29762995921E+03  0.39745992210E+03  0.17355859433E+03 0.  0.
         24    2    3    3    0    0 -0.12387504852E+02  0.56577079873E+02  0.63249837778E+02  0.11770751826E+03  0.80623207779E+02 0.  0.
         -6    2    1    2    0  502 -0.68892488788E+02 -0.18580106669E+03  0.11145892719E+04  0.11450906612E+04  0.17220675381E+03 0.  0.
        -24    2    5    5    0    0  0.11494611700E+02 -0.11613580460E+03  0.80796449940E+03  0.82050450046E+03  0.82470308453E+02 0.  0.
          5    1    3    3  501    0  0.81279993639E+02  0.12922398682E+03  0.23438012143E+03  0.27975240384E+03  0.47000000000E+01 0. -1.
        -13    1    4    4    0    0 -0.98272496638E+01 -0.89472631102E+01  0.48776820307E+02  0.50554985435E+02  0.00000000000E+00 0.  1.
         14    1    4    4    0    0 -0.25602551879E+01  0.65524342983E+02  0.14473017471E+02  0.67152532824E+02  0.00000000000E+00 0. -1.
         -5    1    5    5    0  502 -0.80387100487E+02 -0.69665262087E+02  0.30662477247E+03  0.32458616077E+03  0.47000000000E+01 0.  1.
         13    1    6    6    0    0  0.11963008366E+01 -0.64154897453E+02  0.19569568373E+03  0.20594679563E+03  0.00000000000E+00 0. -1.
        -14    1    6    6    0    0  0.10298310863E+02 -0.51980907151E+02  0.61226881568E+03  0.61455770483E+03  0.00000000000E+00 0.  1.
<mgrwt>
<rscale>  2 0.26319887E+03</rscale>
<asrwt>0</asrwt>
<pdfrwt beam="1">  1       21 0.22728996E+00 0.26342133E+03</pdfrwt>
<pdfrwt beam="2">  1       21 0.10025490E-01 0.26342133E+03</pdfrwt>
<totfact> 0.69228970E+03</totfact>
</mgrwt>
</event>
<event>
12    1  0.1013215E-001  0.2160413E+03  0.7546771E-02  0.1136963E+00
         21   -1    0    0  501  502  0.00000000000E+00  0.00000000000E+00  0.25070642213E+02  0.25070642213E+02  0.00000000000E+00 0.  1.
         21   -1    0    0  502  503 -0.00000000000E+00 -0.00000000000E+00 -0.18580768545E+04  0.18580768545E+04  0.00000000000E+00 0. -1.
         -6    2    1    2    0  503  0.87514170880E+02  0.94684491375E+02 -0.89852004782E+03  0.92401339727E+03  0.17273852780E+03 0.  0.
        -24    2    3    3    0    0  0.46120727025E+02 -0.14082428156E+01 -0.61336568945E+03  0.62023333068E+03  0.79641765961E+02 0.  0.
          6    2    1    2  501    0 -0.87514170880E+02 -0.94684491375E+02 -0.93448616443E+03  0.95913409941E+03  0.17334920283E+03 0.  0.
         24    2    5    5    0    0 -0.16358695988E+02 -0.82308199221E+02 -0.77946453845E+03  0.78804912422E+03  0.80088756270E+02 0.  0.
          5    1    5    5  501    0 -0.71155474892E+02 -0.12376292154E+02 -0.15502162597E+03  0.17108497519E+03  0.47000000000E+01 0. -1.
        -13    1    6    6    0    0  0.11982722195E+02 -0.50169082498E+01 -0.18279637480E+02  0.22425435246E+02  0.00000000000E+00 0.  1.
         14    1    6    6    0    0 -0.28341418182E+02 -0.77291290971E+02 -0.76118490097E+03  0.76562368897E+03  0.00000000000E+00 0. -1.
         -5    1    3    3    0  503  0.41393443855E+02  0.96092734191E+02 -0.28515435837E+03  0.30378006659E+03  0.47000000000E+01 0.  1.
         13    1    4    4    0    0  0.22807281874E+02  0.34756043682E+02 -0.42438544830E+03  0.42641665470E+03  0.00000000000E+00 0. -1.
        -14    1    4    4    0    0  0.23313445151E+02 -0.36164286497E+02 -0.18898024115E+03  0.19381667598E+03  0.00000000000E+00 0.  1.
<mgrwt>
<rscale>  2 0.21591874E+03</rscale>
<asrwt>0</asrwt>
<pdfrwt beam="1">  1       21 0.38570216E-02 0.21604127E+03</pdfrwt>
<pdfrwt beam="2">  1       21 0.28585799E+00 0.21604127E+03</pdfrwt>
<totfact> 0.16774562E+04</totfact>
</mgrwt>
</event>
<event>
12    1  0.1013215E-001  0.2328154E+03  0.7546771E-02  0.1125105E+00
         21   -1    0    0  501  502  0.00000000000E+00  0.00000000000E+00  0.42088595710E+03  0.42088595710E+03  0.00000000000E+00 0.  1.
         21   -1    0    0  502  503 -0.00000000000E+00 -0.00000000000E+00 -0.12903665409E+03  0.12903665409E+03  0.00000000000E+00 0.  1.
         -6    2    1    2    0  503 -0.21548427612E+02  0.15417789670E+03  0.17750269296E+03  0.29276308522E+03  0.17311227424E+03 0.  0.
        -24    2    3    3    0    0  0.10236338069E+02  0.47538211339E+02  0.16398136842E+03  0.18057034908E+03  0.57888665786E+02 0.  0.
          6    2    1    2  501    0  0.21548427612E+02 -0.15417789670E+03  0.11434661005E+03  0.25715952598E+03  0.16976665163E+03 0.  0.
         24    2    5    5    0    0  0.33190489759E+02 -0.17542483416E+03  0.73228668555E+02  0.20920386859E+03  0.80798141609E+02 0.  0.
          5    1    5    5  501    0 -0.11642062147E+02  0.21246937454E+02  0.41117941493E+02  0.47955657381E+02  0.47000000000E+01 0. -1.
        -13    1    6    6    0    0  0.28526654095E+02 -0.72017798959E+02  0.71892858416E+02  0.10568309445E+03  0.00000000000E+00 0.  1.
         14    1    6    6    0    0  0.46638356636E+01 -0.10340703520E+03  0.13358101393E+01  0.10352077415E+03  0.00000000000E+00 0. -1.
         -5    1    3    3    0  503 -0.31784765680E+02  0.10663968536E+03  0.13521324549E+02  0.11219273613E+03  0.47000000000E+01 0.  1.
         11    1    4    4    0    0  0.30776962263E+01 -0.12549565336E+02  0.48539986049E+02  0.50230409612E+02  0.00000000000E+00 0. -1.
        -12    1    4    4    0    0  0.71586418423E+01  0.60087776675E+02  0.11544138237E+03  0.13033993947E+03  0.00000000000E+00 0.  1.
<mgrwt>
<rscale>  2 0.23219373E+03</rscale>
<asrwt>0</asrwt>
<pdfrwt beam="1">  1       21 0.64751685E-01 0.23281542E+03</pdfrwt>
<pdfrwt beam="2">  1       21 0.19851793E-01 0.23281542E+03</pdfrwt>
<totfact> 0.50487901E+04</totfact>
</mgrwt>
</event>
<event>
12    1  0.1013215E-001  0.3127182E+03  0.7546771E-02  0.1079183E+00
         21   -1    0    0  503  502  0.00000000000E+00  0.00000000000E+00  0.25362030453E+03  0.25362030453E+03  0.00000000000E+00 0.  1.
         21   -1    0    0  501  503 -0.00000000000E+00 -0.00000000000E+00 -0.48311979968E+03  0.48311979968E+03  0.00000000000E+00 0. -1.
          6    2    1    2  501    0  0.24507425700E+03 -0.87059453141E+02 -0.28126329608E+03  0.41976665983E+03  0.17162245530E+03 0.  0.
         24    2    3    3    0    0  0.10007782786E+03 -0.46093852127E+02 -0.21707650082E+03  0.25592472498E+03  0.78962287311E+02 0.  0.
         -6    2    1    2    0  502 -0.24507425700E+03  0.87059453141E+02  0.51763800925E+02  0.31697344438E+03  0.17364312118E+03 0.  0.
        -24    2    5    5    0    0 -0.17365254475E+03  0.10969220585E+03 -0.87776773738E+01  0.22053349898E+03  0.79814724383E+02 0.  0.
          5    1    3    3  501    0  0.14499642914E+03 -0.40965601015E+02 -0.64186795263E+02  0.16384193485E+03  0.47000000000E+01 0. -1.
        -13    1    4    4    0    0  0.18470012635E+02 -0.26451831401E+02 -0.12150527531E+02  0.34474281290E+02  0.00000000000E+00 0.  1.
         14    1    4    4    0    0  0.81607815221E+02 -0.19642020725E+02 -0.20492597329E+03  0.22145044369E+03  0.00000000000E+00 0. -1.
         -5    1    5    5    0  502 -0.71421712247E+02 -0.22632752710E+02  0.60541478299E+02  0.96439945407E+02  0.47000000000E+01 0.  1.
         13    1    6    6    0    0 -0.74898908611E+02  0.27935233495E+02 -0.38804188092E+02  0.88859376517E+02  0.00000000000E+00 0. -1.
        -14    1    6    6    0    0 -0.98753636137E+02  0.81756972357E+02  0.30026510719E+02  0.13167412246E+03  0.00000000000E+00 0.  1.
<mgrwt>
<rscale>  2 0.31243846E+03</rscale>
<asrwt>0</asrwt>
<pdfrwt beam="1">  1       21 0.39018508E-01 0.31271820E+03</pdfrwt>
<pdfrwt beam="2">  1       21 0.74326123E-01 0.31271820E+03</pdfrwt>
<totfact> 0.96111549E+03</totfact>
</mgrwt>
</event>
<event>
12    1  0.1013215E-001  0.1948665E+03  0.7546771E-02  0.1154404E+00
         21   -1    0    0  501  502  0.00000000000E+00  0.00000000000E+00  0.31187411493E+04  0.31187411493E+04  0.00000000000E+00 0.  1.
         21   -1    0    0  502  503 -0.00000000000E+00 -0.00000000000E+00 -0.27789869748E+02  0.27789869748E+02  0.00000000000E+00 0.  1.
         -6    2    1    2    0  503  0.57924810154E+02  0.65265239618E+02  0.36545811696E+03  0.41416491489E+03  0.17423577801E+03 0.  0.
        -24    2    3    3    0    0 -0.12440735246E+02 -0.14647111120E+02  0.11367971617E+03  0.14075725793E+03  0.80747867052E+02 0.  0.
          6    2    1    2  501    0 -0.57924810154E+02 -0.65265239618E+02  0.27254931626E+04  0.27323661042E+04  0.17290665890E+03 0.  0.
         24    2    5    5    0    0 -0.37683080898E+02 -0.79145258086E+02  0.10639175001E+04  0.10706025366E+04  0.81150217147E+02 0.  0.
          5    1    5    5  501    0 -0.20241729255E+02  0.13880018468E+02  0.16615756625E+04  0.16617635676E+04  0.47000000000E+01 0. -1.
        -13    1    6    6    0    0  0.25216784863E+02 -0.21906573092E+02  0.36643401482E+03  0.36795335492E+03  0.00000000000E+00 0.  1.
         14    1    6    6    0    0 -0.62899865761E+02 -0.57238684993E+02  0.69748348532E+03  0.70264918165E+03  0.00000000000E+00 0. -1.
         -5    1    3    3    0  503  0.70365545400E+02  0.79912350739E+02  0.25177840079E+03  0.27340765696E+03  0.47000000000E+01 0.  1.
         13    1    4    4    0    0  0.23745758092E+02  0.67340508367E+01  0.88239708963E+02  0.91626713932E+02  0.00000000000E+00 0. -1.
        -14    1    4    4    0    0 -0.36186493338E+02 -0.21381161957E+02  0.25440007207E+02  0.49130543997E+02  0.00000000000E+00 0.  1.
<mgrwt>
<rscale>  2 0.19456892E+03</rscale>
<asrwt>0</asrwt>
<pdfrwt beam="1">  1       21 0.47980605E+00 0.19486647E+03</pdfrwt>
<pdfrwt beam="2">  1       21 0.42753670E-02 0.19486647E+03</pdfrwt>
<totfact> 0.91375990E+02</totfact>
</mgrwt>
</event>
<event>
12    1  0.1013215E-001  0.2002316E+03  0.7546771E-02  0.1149775E+00
         21   -1    0    0  503  502  0.00000000000E+00  0.00000000000E+00  0.66676191828E+03  0.66676191828E+03  0.00000000000E+00 0.  1.
         21   -1    0    0  501  503 -0.00000000000E+00 -0.00000000000E+00 -0.38920653700E+03  0.38920653700E+03  0.00000000000E+00 0.  1.
          6    2    1    2  501    0 -0.25513201831E+02  0.96982234192E+02 -0.34689416712E+03  0.40053498514E+03  0.17330964751E+03 0.  0.
         24    2    3    3    0    0  0.44405420712E+02  0.79836909544E+02 -0.26873394255E+03  0.29416916995E+03  0.77277390985E+02 0.  0.
         -6    2    1    2    0  502  0.25513201831E+02 -0.96982234192E+02  0.62444954840E+03  0.65543347015E+03  0.17204452352E+03 0.  0.
        -24    2    5    5    0    0 -0.29325168393E+02 -0.80590259726E+02  0.24859055403E+03  0.27521245899E+03  0.81178067022E+02 0.  0.
          5    1    3    3  501    0 -0.69918622542E+02  0.17145324648E+02 -0.78160224573E+02  0.10636581519E+03  0.47000000000E+01 0. -1.
        -13    1    4    4    0    0  0.51227138188E+02  0.13509430780E+02 -0.11874810221E+03  0.13003013568E+03  0.00000000000E+00 0.  1.
         14    1    4    4    0    0 -0.68217174766E+01  0.66327478764E+02 -0.14998584034E+03  0.16413903427E+03  0.00000000000E+00 0. -1.
         -5    1    5    5    0  502  0.54838370224E+02 -0.16391974466E+02  0.37585899437E+03  0.38022101116E+03  0.47000000000E+01 0.  1.
         13    1    6    6    0    0  0.15758551735E+02 -0.63727680357E+02  0.10564252293E+03  0.12437801995E+03  0.00000000000E+00 0. -1.
        -14    1    6    6    0    0 -0.45083720128E+02 -0.16862579369E+02  0.14294803110E+03  0.15083443904E+03  0.00000000000E+00 0.  1.
<mgrwt>
<rscale>  2 0.19995758E+03</rscale>
<asrwt>0</asrwt>
<pdfrwt beam="1">  1       21 0.10257876E+00 0.20023164E+03</pdfrwt>
<pdfrwt beam="2">  1       21 0.59877929E-01 0.20023164E+03</pdfrwt>
<totfact> 0.19969416E+03</totfact>
</mgrwt>
</event>
<event>
12    1  0.1013215E-001  0.2037081E+03  0.7546771E-02  0.1146817E+00
         21   -1    0    0  503  502  0.00000000000E+00  0.00000000000E+00  0.64807427174E+03  0.64807427174E+03  0.00000000000E+00 0.  1.
         21   -1    0    0  501  503 -0.00000000000E+00 -0.00000000000E+00 -0.63776884819E+02  0.63776884819E+02  0.00000000000E+00 0.  1.
          6    2    1    2  501    0 -0.82622861685E+02  0.68140591610E+02  0.29034798366E+03  0.35468145435E+03  0.17328388543E+03 0.  0.
         24    2    3    3    0    0 -0.99495507995E+02  0.10350616000E+03  0.24646148299E+03  0.29566006363E+03  0.77837840157E+02 0.  0.
         -6    2    1    2    0  502  0.82622861685E+02 -0.68140591610E+02  0.29394940326E+03  0.35716970221E+03  0.17232024547E+03 0.  0.
        -24    2    5    5    0    0  0.28919648227E+02 -0.91517345976E+02  0.12044323394E+03  0.17398403527E+03  0.80945050849E+02 0.  0.
          5    1    3    3  501    0  0.16872646310E+02 -0.35365568394E+02  0.43886500671E+02  0.59021390720E+02  0.47000000000E+01 0. -1.
        -11    1    4    4    0    0 -0.52055482564E+02  0.68154348663E+02  0.20828255170E+03  0.22524744138E+03  0.00000000000E+00 0.  1.
         12    1    4    4    0    0 -0.47440025431E+02  0.35351811341E+02  0.38178931291E+02  0.70412622253E+02  0.00000000000E+00 0. -1.
         -5    1    5    5    0  502  0.53703213459E+02  0.23376754366E+02  0.17350616932E+03  0.18318566694E+03  0.47000000000E+01 0.  1.
         11    1    6    6    0    0 -0.19984172919E+01 -0.66258568858E+02  0.11627435469E+03  0.13384288243E+03  0.00000000000E+00 0. -1.
        -12    1    6    6    0    0  0.30918065519E+02 -0.25258777118E+02  0.41688792552E+01  0.40141152838E+02  0.00000000000E+00 0.  1.
<mgrwt>
<rscale>  2 0.20350300E+03</rscale>
<asrwt>0</asrwt>
<pdfrwt beam="1">  1       21 0.99703730E-01 0.20370808E+03</pdfrwt>
<pdfrwt beam="2">  1       21 0.98118289E-02 0.20370808E+03</pdfrwt>
<totfact> 0.69011754E+04</totfact>
</mgrwt>
</event>
<event>
12    1  0.1013215E-001  0.1850723E+03  0.7546771E-02  0.1164374E+00
         21   -1    0    0  501  502  0.00000000000E+00  0.00000000000E+00  0.27490171770E+03  0.27490171770E+03  0.00000000000E+00 0.  1.
         21   -1    0    0  502  503 -0.00000000000E+00 -0.00000000000E+00 -0.23369865664E+03  0.23369865664E+03  0.00000000000E+00 0.  1.
         -6    2    1    2    0  503  0.21013548340E+02 -0.39205958565E+02 -0.15640122224E+03  0.23786209578E+03  0.17360402613E+03 0.  0.
        -24    2    3    3    0    0 -0.19196276328E+02  0.35652521351E+02 -0.10787519938E+03  0.13989533146E+03  0.79335022661E+02 0.  0.
          6    2    1    2  501    0 -0.21013548340E+02  0.39205958565E+02  0.19760428331E+03  0.27073827857E+03  0.17964711603E+03 0.  0.
         24    2    5    5    0    0 -0.68941102250E+01  0.65364752714E+02  0.21304484142E+03  0.23691311221E+03  0.80122647429E+02 0.  0.
          5    1    5    5  501    0 -0.14119438115E+02 -0.26158794149E+02 -0.15440558109E+02  0.33825166352E+02  0.47000000000E+01 0. -1.
        -13    1    6    6    0    0 -0.41559622342E+02  0.34146725309E+02  0.84521686326E+02  0.10018541070E+03  0.00000000000E+00 0.  1.
         14    1    6    6    0    0  0.34665512117E+02  0.31218027405E+02  0.12852315509E+03  0.13672770151E+03  0.00000000000E+00 0. -1.
         -5    1    3    3    0  503  0.40209824668E+02 -0.74858479916E+02 -0.48526022869E+02  0.97966764316E+02  0.47000000000E+01 0.  1.
         13    1    4    4    0    0  0.11875000106E+02  0.13476204379E+00  0.83085061451E+01  0.14493621448E+02  0.00000000000E+00 0. -1.
        -14    1    4    4    0    0 -0.31071276434E+02  0.35517759307E+02 -0.11618370552E+03  0.12540171001E+03  0.00000000000E+00 0.  1.
<mgrwt>
<rscale>  2 0.18358958E+03</rscale>
<asrwt>0</asrwt>
<pdfrwt beam="1">  1       21 0.42292572E-01 0.18507232E+03</pdfrwt>
<pdfrwt beam="2">  1       21 0.35953639E-01 0.18507232E+03</pdfrwt>
<totfact> 0.40282847E+04</totfact>
</mgrwt>
</event>
<event>
12    1  0.1013215E-001  0.1785824E+03  0.7546771E-02  0.1169207E+00
         21   -1    0    0  503  502  0.00000000000E+00  0.00000000000E+00  0.26435203479E+03  0.26435203479E+03  0.00000000000E+00 0.  1.
         21   -1    0    0  501  503 -0.00000000000E+00 -0.00000000000E+00 -0.17369151244E+03  0.17369151244E+03  0.00000000000E+00 0. -1.
          6    2    1    2  501    0  0.42564258137E+02  0.20798225806E+02 -0.75799687387E+02  0.19391102084E+03  0.17208024037E+03 0.  0.
         24    2    3    3    0    0  0.56700210049E+02 -0.44732721857E+02 -0.28863413733E+02  0.11194008682E+03  0.80508112397E+02 0.  0.
         -6    2    1    2    0  502 -0.42564258137E+02 -0.20798225806E+02  0.16646020974E+03  0.24413252640E+03  0.17218422329E+03 0.  0.
        -24    2    5    5    0    0 -0.33244649733E+02 -0.75332197822E+02  0.81366905707E+02  0.14252657384E+03  0.83145078873E+02 0.  0.
          5    1    3    3  501    0 -0.14135951912E+02  0.65530947663E+02 -0.46936273654E+02  0.81970934011E+02  0.47000000000E+01 0. -1.
        -13    1    4    4    0    0  0.12972494904E+02 -0.38458657398E+02  0.20688188862E+02  0.45556065582E+02  0.00000000000E+00 0.  1.
         14    1    4    4    0    0  0.43727715145E+02 -0.62740644586E+01 -0.49551602595E+02  0.66384021243E+02  0.00000000000E+00 0. -1.
         -5    1    5    5    0  502 -0.93196084042E+01  0.54533972016E+02  0.85093304030E+02  0.10160595256E+03  0.47000000000E+01 0.  1.
         11    1    6    6    0    0  0.23313260845E+02 -0.48446160955E+02  0.30248719032E+02  0.61688926442E+02  0.00000000000E+00 0. -1.
        -12    1    6    6    0    0 -0.56557910578E+02 -0.26886036867E+02  0.51118186675E+02  0.80837647394E+02  0.00000000000E+00 0.  1.
<mgrwt>
<rscale>  2 0.17855737E+03</rscale>
<asrwt>0</asrwt>
<pdfrwt beam="1">  1       21 0.40669544E-01 0.17858244E+03</pdfrwt>
<pdfrwt beam="2">  1       21 0.26721771E-01 0.17858244E+03</pdfrwt>
<totfact> 0.78105137E+04</totfact>
</mgrwt>
</event>
<event>
12    1  0.1013215E-001  0.2345944E+03  0.7546771E-02  0.1123544E+00
         21   -1    0    0  503  502  0.00000000000E+00  0.00000000000E+00  0.76047486874E+02  0.76047486874E+02  0.00000000000E+00 0.  1.
         21   -1    0    0  501  503 -0.00000000000E+00 -0.00000000000E+00 -0.73363704465E+03  0.73363704465E+03  0.00000000000E+00 0.  1.
          6    2    1    2  501    0 -0.12178431672E+03  0.10140854026E+03 -0.37950707139E+03  0.44586535611E+03  0.17220681376E+03 0.  0.
         24    2    3    3    0    0 -0.15354015089E+03  0.64299843215E+02 -0.30917287744E+03  0.36010710730E+03  0.79876234322E+02 0.  0.
         -6    2    1    2    0  502  0.12178431672E+03 -0.10140854026E+03 -0.27808248638E+03  0.36381917541E+03  0.17297228486E+03 0.  0.
        -24    2    5    5    0    0  0.31705373546E+02 -0.55078764084E+02 -0.21918142854E+03  0.24654987517E+03  0.93313671912E+02 0.  0.
          5    1    3    3  501    0  0.31755834168E+02  0.37108697047E+02 -0.70334193946E+02  0.85758248805E+02  0.47000000000E+01 0. -1.
        -13    1    4    4    0    0 -0.13658668776E+03  0.41766236056E+02 -0.29666733534E+03  0.32925954748E+03  0.00000000000E+00 0.  1.
         14    1    4    4    0    0 -0.16953463128E+02  0.22533607158E+02 -0.12505542100E+02  0.30847559819E+02  0.00000000000E+00 0. -1.
         -5    1    5    5    0  502  0.90078943176E+02 -0.46329776177E+02 -0.58901057846E+02  0.11726930024E+03  0.47000000000E+01 0.  1.
         11    1    6    6    0    0 -0.21218601910E+02 -0.33995663061E+02 -0.33203971479E+02  0.52042654582E+02  0.00000000000E+00 0. -1.
        -12    1    6    6    0    0  0.52923975456E+02 -0.21083101024E+02 -0.18597745706E+03  0.19450722059E+03  0.00000000000E+00 0.  1.
<mgrwt>
<rscale>  2 0.23445330E+03</rscale>
<asrwt>0</asrwt>
<pdfrwt beam="1">  1       21 0.11699613E-01 0.23459438E+03</pdfrwt>
<pdfrwt beam="2">  1       21 0.11286724E+00 0.23459438E+03</pdfrwt>
<totfact> 0.36851446E+04</totfact>
</mgrwt>
</event>
<event>
12    1  0.1013215E-001  0.2825627E+03  0.7546771E-02  0.1094520E+00
         21   -1    0    0  501  502  0.00000000000E+00  0.00000000000E+00  0.44329029228E+03  0.44329029228E+03  0.00000000000E+00 0.  1.
         21   -1    0    0  502  503 -0.00000000000E+00 -0.00000000000E+00 -0.17906600347E+03  0.17906600347E+03  0.00000000000E+00 0. -1.
         -6    2    1    2    0  503 -0.54063832336E+02 -0.21454511670E+03  0.13260887090E+03  0.31064442664E+03  0.17309633761E+03 0.  0.
        -24    2    3    3    0    0 -0.64831491004E+02 -0.52706769573E+02  0.33647015751E+02  0.12058356310E+03  0.80169496927E+02 0.  0.
          6    2    1    2  501    0  0.54063832336E+02  0.21454511670E+03  0.13161541791E+03  0.31171186911E+03  0.17575313951E+03 0.  0.
         24    2    5    5    0    0  0.81898019965E+02  0.20907010441E+03  0.14587632772E+03  0.27961543147E+03  0.80543729071E+02 0.  0.
          5    1    5    5  501    0 -0.27834187630E+02  0.54750122896E+01 -0.14260909818E+02  0.32096437644E+02  0.47000000000E+01 0. -1.
        -11    1    6    6    0    0  0.32515594925E+02  0.26255437533E+02  0.56338911151E+02  0.70147593138E+02  0.00000000000E+00 0.  1.
         12    1    6    6    0    0  0.49382425041E+02  0.18281466688E+03  0.89537416573E+02  0.20946783833E+03  0.00000000000E+00 0. -1.
         -5    1    3    3    0  503  0.10767658668E+02 -0.16183834713E+03  0.98961855147E+02  0.19006086354E+03  0.47000000000E+01 0.  1.
         13    1    4    4    0    0 -0.24703320052E+02 -0.32663698909E+02 -0.24056901655E+02  0.47496376338E+02  0.00000000000E+00 0. -1.
        -14    1    4    4    0    0 -0.40128170951E+02 -0.20043070664E+02  0.57703917406E+02  0.73087186767E+02  0.00000000000E+00 0.  1.
<mgrwt>
<rscale>  2 0.28215058E+03</rscale>
<asrwt>0</asrwt>
<pdfrwt beam="1">  1       21 0.68198506E-01 0.28256269E+03</pdfrwt>
<pdfrwt beam="2">  1       21 0.27548616E-01 0.28256269E+03</pdfrwt>
<totfact> 0.23593074E+04</totfact>
</mgrwt>
</event>
<event>
12    1  0.1013215E-001  0.2361655E+03  0.7546771E-02  0.1122792E+00
         21   -1    0    0  501  502  0.00000000000E+00  0.00000000000E+00  0.12524328807E+04  0.12524328807E+04  0.00000000000E+00 0.  1.
         21   -1    0    0  502  503 -0.00000000000E+00 -0.00000000000E+00 -0.12486013318E+03  0.12486013318E+03  0.00000000000E+00 0.  1.
         -6    2    1    2    0  503 -0.26670597236E+02  0.15514196791E+03  0.88206686071E+01  0.23388567150E+03  0.17275517987E+03 0.  0.
        -24    2    3    3    0    0 -0.41359126977E+02  0.22800577866E+02  0.28937914574E+02  0.99138537911E+02  0.82222886498E+02 0.  0.
          6    2    1    2  501    0  0.26670597236E+02 -0.15514196791E+03  0.11187520789E+04  0.11434073424E+04  0.17605051996E+03 0.  0.
         24    2    5    5    0    0 -0.83611553999E+01 -0.10065408130E+03  0.36771942879E+03  0.38957162750E+03  0.79670079968E+02 0.  0.
          5    1    5    5  501    0  0.35031752636E+02 -0.54487886607E+02  0.75103265011E+03  0.75383571487E+03  0.47000000000E+01 0. -1.
        -13    1    6    6    0    0  0.13967200355E+02 -0.31096566759E+02  0.24021713169E+03  0.24262388486E+03  0.00000000000E+00 0.  1.
         14    1    6    6    0    0 -0.22328355755E+02 -0.69557514542E+02  0.12750229710E+03  0.14694774264E+03  0.00000000000E+00 0. -1.
         -5    1    3    3    0  503  0.14688529741E+02  0.13234139004E+03 -0.20117245966E+02  0.13474713359E+03  0.47000000000E+01 0.  1.
         13    1    4    4    0    0 -0.16072213909E+02  0.49059167559E+02  0.34739675196E+02  0.62225099552E+02  0.00000000000E+00 0. -1.
        -14    1    4    4    0    0 -0.25286913068E+02 -0.26258589693E+02 -0.58017606225E+01  0.36913438359E+02  0.00000000000E+00 0.  1.
<mgrwt>
<rscale>  2 0.23555154E+03</rscale>
<asrwt>0</asrwt>
<pdfrwt beam="1">  1       21 0.19268197E+00 0.23616549E+03</pdfrwt>
<pdfrwt beam="2">  1       21 0.19209252E-01 0.23616549E+03</pdfrwt>
<totfact> 0.35870223E+03</totfact>
</mgrwt>
</event>
<event>
12    1  0.1013215E-001  0.2043079E+03  0.7546771E-02  0.1146165E+00
         21   -1    0    0  501  502  0.00000000000E+00  0.00000000000E+00  0.55393248389E+03  0.55393248389E+03  0.00000000000E+00 0.  1.
         21   -1    0    0  502  503 -0.00000000000E+00 -0.00000000000E+00 -0.76226794547E+02  0.76226794547E+02  0.00000000000E+00 0.  1.
         -6    2    1    2    0  503 -0.10831730035E+03 -0.88336524579E+01  0.27286327225E+03  0.34084608034E+03  0.17294801003E+03 0.  0.
        -24    2    3    3    0    0 -0.11133909384E+03 -0.61238178244E+02  0.22300034409E+03  0.26829425636E+03  0.78141834125E+02 0.  0.
          6    2    1    2  501    0  0.10831730035E+03  0.88336524579E+01  0.20484241709E+03  0.28931319809E+03  0.17300589521E+03 0.  0.
         24    2    5    5    0    0  0.10867333842E+02 -0.45672113151E+02  0.72781445353E+02  0.11631156598E+03  0.77635048322E+02 0.  0.
          5    1    5    5  501    0  0.97449966504E+02  0.54505765609E+02  0.13206097174E+03  0.17300163211E+03  0.47000000000E+01 0. -1.
        -13    1    6    6    0    0  0.31480784790E+02 -0.58495996733E+02  0.52206389752E+02  0.84488629861E+02  0.00000000000E+00 0.  1.
         14    1    6    6    0    0 -0.20613450948E+02  0.12823883582E+02  0.20575055601E+02  0.31822936117E+02  0.00000000000E+00 0. -1.
         -5    1    3    3    0  503  0.30217934934E+01  0.52404525786E+02  0.49862928154E+02  0.72551823981E+02  0.47000000000E+01 0.  1.
         11    1    4    4    0    0  0.79983684430E+01 -0.35750481271E+01 -0.13748834436E+00  0.87620642491E+01  0.00000000000E+00 0. -1.
        -12    1    4    4    0    0 -0.11933746228E+03 -0.57663130117E+02  0.22313783244E+03  0.25953219211E+03  0.00000000000E+00 0.  1.
<mgrwt>
<rscale>  2 0.20429563E+03</rscale>
<asrwt>0</asrwt>
<pdfrwt beam="1">  1       21 0.85220380E-01 0.20430788E+03</pdfrwt>
<pdfrwt beam="2">  1       21 0.11727200E-01 0.20430788E+03</pdfrwt>
<totfact> 0.72445314E+04</totfact>
</mgrwt>
</event>
<event>
12    1  0.1013215E-001  0.2932020E+03  0.7546771E-02  0.1089685E+00
         21   -1    0    0  501  502  0.00000000000E+00  0.00000000000E+00  0.14338679803E+03  0.14338679803E+03  0.00000000000E+00 0.  1.
         21   -1    0    0  502  503 -0.00000000000E+00 -0.00000000000E+00 -0.99091707563E+03  0.99091707563E+03  0.00000000000E+00 0.  1.
         -6    2    1    2    0  503 -0.68592865872E+02 -0.22674371295E+03 -0.79045581427E+03  0.84308230818E+03  0.17277063245E+03 0.  0.
        -24    2    3    3    0    0 -0.29565988000E+02 -0.19018431537E+03 -0.74299896802E+03  0.77143086713E+03  0.77549305774E+02 0.  0.
          6    2    1    2  501    0  0.68592865872E+02  0.22674371295E+03 -0.57074463324E+02  0.29122156548E+03  0.15948295591E+03 0.  0.
         24    2    5    5    0    0  0.10006228501E+03  0.17620280703E+03 -0.72632789319E+02  0.22950561115E+03  0.79607872581E+02 0.  0.
          5    1    5    5  501    0 -0.31469419135E+02  0.50540905916E+02  0.15558325995E+02  0.61715954333E+02  0.47000000000E+01 0. -1.
        -13    1    6    6    0    0  0.76517763251E+02  0.13886224713E+03 -0.18452612105E+02  0.15961889194E+03  0.00000000000E+00 0.  1.
         14    1    6    6    0    0  0.23544521756E+02  0.37340559903E+02 -0.54180177214E+02  0.69886719207E+02  0.00000000000E+00 0. -1.
         -5    1    3    3    0  503 -0.39026877872E+02 -0.36559397582E+02 -0.47456846249E+02  0.71651441045E+02  0.47000000000E+01 0.  1.
         11    1    4    4    0    0  0.90808649518E+01 -0.89450361128E+01 -0.14049425582E+03  0.14107130005E+03  0.00000000000E+00 0. -1.
        -12    1    4    4    0    0 -0.38646852952E+02 -0.18123927925E+03 -0.60250471220E+03  0.63035956708E+03  0.00000000000E+00 0.  1.
<mgrwt>
<rscale>  2 0.29127607E+03</rscale>
<asrwt>0</asrwt>
<pdfrwt beam="1">  1       21 0.22059509E-01 0.29320195E+03</pdfrwt>
<pdfrwt beam="2">  1       21 0.15244877E+00 0.29320195E+03</pdfrwt>
<totfact> 0.51305424E+03</totfact>
</mgrwt>
</event>
<event>
12    1  0.1013215E-001  0.1811457E+03  0.7546771E-02  0.1166734E+00
         21   -1    0    0  503  502  0.00000000000E+00  0.00000000000E+00  0.89957455974E+03  0.89957455974E+03  0.00000000000E+00 0.  1.
         21   -1    0    0  501  503 -0.00000000000E+00 -0.00000000000E+00 -0.87672742973E+02  0.87672742973E+02  0.00000000000E+00 0.  1.
          6    2    1    2  501    0  0.19932304756E+02  0.47113742140E+02  0.28567241212E+02  0.18324056145E+03  0.17362031741E+03 0.  0.
         24    2    3    3    0    0  0.28003820184E+02  0.67404403136E+02 -0.36843209785E+02  0.11412126324E+03  0.79615784299E+02 0.  0.
         -6    2    1    2    0  502 -0.19932304756E+02 -0.47113742140E+02  0.78333457555E+03  0.80400674126E+03  0.17377221086E+03 0.  0.
        -24    2    5    5    0    0 -0.32434885004E+01  0.13953553557E+02  0.66337928228E+03  0.66828977999E+03  0.79586029002E+02 0.  0.
          5    1    3    3  501    0 -0.80715154280E+01 -0.20290660996E+02  0.65410450996E+02  0.69119298206E+02  0.47000000000E+01 0. -1.
        -13    1    4    4    0    0 -0.18300060070E+02 -0.29200312432E+01 -0.21759299221E+02  0.28581215573E+02  0.00000000000E+00 0.  1.
         14    1    4    4    0    0  0.46303880254E+02  0.70324434379E+02 -0.15083910564E+02  0.85540047669E+02  0.00000000000E+00 0. -1.
         -5    1    5    5    0  502 -0.16688816256E+02 -0.61067295697E+02  0.11995529327E+03  0.13571696127E+03  0.47000000000E+01 0.  1.
         13    1    6    6    0    0  0.78217197585E+01  0.21155888638E+02  0.50964236696E+02  0.55732435314E+02  0.00000000000E+00 0. -1.
        -14    1    6    6    0    0 -0.11065208259E+02 -0.72023350802E+01  0.61241504558E+03  0.61255734468E+03  0.00000000000E+00 0.  1.
<mgrwt>
<rscale>  2 0.18110931E+03</rscale>
<asrwt>0</asrwt>
<pdfrwt beam="1">  1       21 0.13839608E+00 0.18114575E+03</pdfrwt>
<pdfrwt beam="2">  1       21 0.13488115E-01 0.18114575E+03</pdfrwt>
<totfact> 0.17669654E+04</totfact>
</mgrwt>
</event>
<event>
12    1  0.1013215E-001  0.1941392E+03  0.7546771E-02  0.1155410E+00
         21   -1    0    0  503  502  0.00000000000E+00  0.00000000000E+00  0.24681466591E+03  0.24681466591E+03  0.00000000000E+00 0. -1.
         21   -1    0    0  501  503 -0.00000000000E+00 -0.00000000000E+00 -0.16394037172E+03  0.16394037172E+03  0.00000000000E+00 0. -1.
          6    2    1    2  501    0  0.77319323990E+02  0.15935182840E+02 -0.17143963925E+02  0.19489471639E+03  0.17736354491E+03 0.  0.
         24    2    3    3    0    0  0.74336435002E+02  0.68117198693E+02  0.18341981655E+02  0.13154487236E+03  0.82472824772E+02 0.  0.
         -6    2    1    2    0  502 -0.77319323990E+02 -0.15935182840E+02  0.10001825812E+03  0.21586032124E+03  0.17424069104E+03 0.  0.
        -24    2    5    5    0    0  0.16386352799E+02 -0.30104667782E+02  0.79262482729E+02  0.11872937674E+03  0.81482023499E+02 0.  0.
          5    1    3    3  501    0  0.29828889884E+01 -0.52182015853E+02 -0.35485945579E+02  0.63349844032E+02  0.47000000000E+01 0. -1.
        -13    1    4    4    0    0  0.51440130627E+02  0.83193043983E+01  0.38080531564E+02  0.64540101865E+02  0.00000000000E+00 0.  1.
         14    1    4    4    0    0  0.22896304375E+02  0.59797894295E+02 -0.19738549909E+02  0.67004770492E+02  0.00000000000E+00 0. -1.
         -5    1    5    5    0  502 -0.93705676790E+02  0.14169484942E+02  0.20755775390E+02  0.97130944493E+02  0.47000000000E+01 0.  1.
         13    1    6    6    0    0 -0.29792833526E+02 -0.27561280189E+02  0.48225637872E+02  0.63031335408E+02  0.00000000000E+00 0. -1.
        -14    1    6    6    0    0  0.46179186325E+02 -0.25433875934E+01  0.31036844857E+02  0.55698041337E+02  0.00000000000E+00 0.  1.
<mgrwt>
<rscale>  2 0.19342306E+03</rscale>
<asrwt>0</asrwt>
<pdfrwt beam="1">  1       21 0.37971487E-01 0.19413922E+03</pdfrwt>
<pdfrwt beam="2">  1       21 0.25221596E-01 0.19413922E+03</pdfrwt>
<totfact> 0.99564882E+04</totfact>
</mgrwt>
</event>
<event>
12    1  0.1013215E-001  0.1856653E+03  0.7546771E-02  0.1162686E+00
         21   -1    0    0  503  502  0.00000000000E+00  0.00000000000E+00  0.19046305444E+03  0.19046305444E+03  0.00000000000E+00 0.  1.
         21   -1    0    0  501  503 -0.00000000000E+00 -0.00000000000E+00 -0.27745625635E+03  0.27745625635E+03  0.00000000000E+00 0.  1.
          6    2    1    2  501    0  0.61011585154E+02  0.23306842567E+02 -0.18213007036E+03  0.25929852089E+03  0.17262310962E+03 0.  0.
         24    2    3    3    0    0  0.14106204328E+02 -0.48087206811E+02 -0.11671533957E+03  0.15160264334E+03  0.82761866323E+02 0.  0.
         -6    2    1    2    0  502 -0.61011585154E+02 -0.23306842567E+02  0.95136868461E+02  0.20862078989E+03  0.17379869908E+03 0.  0.
        -24    2    5    5    0    0 -0.10059092827E+03  0.15756194212E+02  0.65473153806E+02  0.14541896072E+03  0.80580070489E+02 0.  0.
          5    1    3    3  501    0  0.46905380826E+02  0.71394049378E+02 -0.65414730790E+02  0.10769587755E+03  0.47000000000E+01 0. -1.
        -11    1    4    4    0    0 -0.50334635911E+01 -0.20289161476E+02  0.80140875690E+01  0.22387751756E+02  0.00000000000E+00 0.  1.
         12    1    4    4    0    0  0.19139667919E+02 -0.27798045335E+02 -0.12472942714E+03  0.12921489159E+03  0.00000000000E+00 0. -1.
         -5    1    5    5    0  502  0.39579343118E+02 -0.39063036779E+02  0.29663714655E+02  0.63201829176E+02  0.47000000000E+01 0.  1.
         13    1    6    6    0    0 -0.91025926263E+02 -0.97162759987E+01  0.22026877110E+02  0.94155767676E+02  0.00000000000E+00 0. -1.
        -14    1    6    6    0    0 -0.95650020089E+01  0.25472470211E+02  0.43446276696E+02  0.51263193042E+02  0.00000000000E+00 0.  1.
<mgrwt>
<rscale>  2 0.18538971E+03</rscale>
<asrwt>0</asrwt>
<pdfrwt beam="1">  1       21 0.29302008E-01 0.18566532E+03</pdfrwt>
<pdfrwt beam="2">  1       21 0.42685578E-01 0.18566532E+03</pdfrwt>
<totfact> 0.59077929E+04</totfact>
</mgrwt>
</event>
<event>
12    1  0.1013215E-001  0.1916832E+03  0.7546771E-02  0.1156965E+00
         21   -1    0    0  503  502  0.00000000000E+00  0.00000000000E+00  0.47669011525E+02  0.47669011525E+02  0.00000000000E+00 0.  1.
         21   -1    0    0  501  503 -0.00000000000E+00 -0.00000000000E+00 -0.77119566591E+03  0.77119566591E+03  0.00000000000E+00 0.  1.
          6    2    1    2  501    0 -0.79226474430E+02  0.25459280809E+02 -0.34977105346E+03  0.39882215930E+03  0.17261030004E+03 0.  0.
         24    2    3    3    0    0  0.23098953035E+01 -0.36926256488E+02 -0.15398815236E+03  0.17770416090E+03  0.80607280688E+02 0.  0.
         -6    2    1    2    0  502  0.79226474430E+02 -0.25459280809E+02 -0.37375560093E+03  0.42004251814E+03  0.17267732505E+03 0.  0.
        -24    2    5    5    0    0 -0.23509940544E+02 -0.18489208409E+01 -0.15711728911E+03  0.17907266897E+03  0.82613814959E+02 0.  0.
          5    1    3    3  501    0 -0.81536369734E+02  0.62385537297E+02 -0.19578290110E+03  0.22111799840E+03  0.47000000000E+01 0. -1.
        -13    1    4    4    0    0 -0.33145366566E+02 -0.30412213857E+02 -0.12001967646E+03  0.12817269918E+03  0.00000000000E+00 0.  1.
         14    1    4    4    0    0  0.35455261869E+02 -0.65140426317E+01 -0.33968475897E+02  0.49531461723E+02  0.00000000000E+00 0. -1.
         -5    1    5    5    0  502  0.10273641497E+03 -0.23610359968E+02 -0.21663831183E+03  0.24096984917E+03  0.47000000000E+01 0.  1.
         11    1    6    6    0    0 -0.16888610149E+02 -0.35759584564E+02 -0.12773692897E+03  0.13371871994E+03  0.00000000000E+00 0. -1.
        -12    1    6    6    0    0 -0.66213303949E+01  0.33910663723E+02 -0.29380360142E+02  0.45353949027E+02  0.00000000000E+00 0.  1.
<mgrwt>
<rscale>  2 0.19166815E+03</rscale>
<asrwt>0</asrwt>
<pdfrwt beam="1">  1       21 0.73336936E-02 0.19168325E+03</pdfrwt>
<pdfrwt beam="2">  1       21 0.11864549E+00 0.19168325E+03</pdfrwt>
<totfact> 0.75840779E+04</totfact>
</mgrwt>
</event>
<event>
12    1  0.1013215E-001  0.1740041E+03  0.7546771E-02  0.1176403E+00
         21   -1    0    0  503  502  0.00000000000E+00  0.00000000000E+00  0.16309010869E+04  0.16309010869E+04  0.00000000000E+00 0. -1.
         21   -1    0    0  501  503 -0.00000000000E+00 -0.00000000000E+00 -0.23326035964E+02  0.23326035964E+02  0.00000000000E+00 0. -1.
          6    2    1    2  501    0  0.57916402777E+01  0.17627536760E+02  0.37204072283E+03  0.40650018422E+03  0.16273852396E+03 0.  0.
         24    2    3    3    0    0 -0.12388012189E+02  0.37850810524E+02  0.10401958615E+03  0.13706206466E+03  0.79873578633E+02 0.  0.
         -6    2    1    2    0  502 -0.57916402777E+01 -0.17627536760E+02  0.12355343281E+04  0.12477269387E+04  0.17301203521E+03 0.  0.
        -24    2    5    5    0    0 -0.48252075814E+02 -0.61911211652E+02  0.83724410222E+03  0.84471189365E+03  0.79995222537E+02 0.  0.
          5    1    3    3  501    0  0.18179652467E+02 -0.20223273764E+02  0.26802113668E+03  0.26943811956E+03  0.47000000000E+01 0. -1.
        -11    1    4    4    0    0 -0.44066655798E+02  0.77772521704E+01  0.43334625856E+02  0.62291617435E+02  0.00000000000E+00 0.  1.
         12    1    4    4    0    0  0.31678643609E+02  0.30073558354E+02  0.60684960294E+02  0.74770447229E+02  0.00000000000E+00 0. -1.
         -5    1    5    5    0  502  0.42460435537E+02  0.44283674892E+02  0.39829022593E+03  0.40301504503E+03  0.47000000000E+01 0.  1.
         11    1    6    6    0    0 -0.65508918100E+02 -0.31455882608E+02  0.44343051071E+03  0.44934564505E+03  0.00000000000E+00 0. -1.
        -12    1    6    6    0    0  0.17256842286E+02 -0.30455329044E+02  0.39381359151E+03  0.39536624860E+03  0.00000000000E+00 0.  1.
<mgrwt>
<rscale>  2 0.17139313E+03</rscale>
<asrwt>0</asrwt>
<pdfrwt beam="1">  1       21 0.25090777E+00 0.17400413E+03</pdfrwt>
<pdfrwt beam="2">  1       21 0.35886222E-02 0.17400413E+03</pdfrwt>
<totfact> 0.31354262E+04</totfact>
</mgrwt>
</event>
<event>
12    1  0.1013215E-001  0.2122182E+03  0.7546771E-02  0.1140619E+00
         21   -1    0    0  501  502  0.00000000000E+00  0.00000000000E+00  0.14523804009E+03  0.14523804009E+03  0.00000000000E+00 0.  1.
         21   -1    0    0  502  503 -0.00000000000E+00 -0.00000000000E+00 -0.42849460775E+03  0.42849460775E+03  0.00000000000E+00 0.  1.
         -6    2    1    2    0  503 -0.96632667167E+02  0.71582786990E+02 -0.29708794347E+03  0.36509974142E+03  0.17485596150E+03 0.  0.
        -24    2    3    3    0    0 -0.77060157767E+02  0.10902499000E+03 -0.27735500381E+03  0.31823311579E+03  0.80757671355E+02 0.  0.
          6    2    1    2  501    0  0.96632667167E+02 -0.71582786990E+02  0.13831375807E+02  0.20863290643E+03  0.16992473313E+03 0.  0.
         24    2    5    5    0    0  0.16669491806E+02  0.23162486093E+02 -0.15450405781E+00  0.83779107842E+02  0.78768917221E+02 0.  0.
          5    1    5    5  501    0  0.79963175360E+02 -0.94745273083E+02  0.13985879865E+02  0.12485379858E+03  0.47000000000E+01 0. -1.
        -11    1    6    6    0    0  0.26647200149E+02 -0.57785958341E+01  0.30186484778E+02  0.40677872472E+02  0.00000000000E+00 0.  1.
         12    1    6    6    0    0 -0.99777083430E+01  0.28941081927E+02 -0.30340988836E+02  0.43101235370E+02  0.00000000000E+00 0. -1.
         -5    1    3    3    0  503 -0.19572509399E+02 -0.37442203011E+02 -0.19732939655E+02  0.46866625630E+02  0.47000000000E+01 0.  1.
         13    1    4    4    0    0 -0.37084592226E+02  0.56576038539E+02 -0.22217769104E+03  0.23224780195E+03  0.00000000000E+00 0. -1.
        -14    1    4    4    0    0 -0.39975565541E+02  0.52448951463E+02 -0.55177312777E+02  0.85985313834E+02  0.00000000000E+00 0.  1.
<mgrwt>
<rscale>  2 0.21119984E+03</rscale>
<asrwt>0</asrwt>
<pdfrwt beam="1">  1       21 0.22344314E-01 0.21221823E+03</pdfrwt>
<pdfrwt beam="2">  1       21 0.65922246E-01 0.21221823E+03</pdfrwt>
<totfact> 0.39224057E+04</totfact>
</mgrwt>
</event>
<event>
12    1  0.1013215E-001  0.3140042E+03  0.7546771E-02  0.1078582E+00
         21   -1    0    0  501  502  0.00000000000E+00  0.00000000000E+00  0.54379192885E+03  0.54379192885E+03  0.00000000000E+00 0. -1.
         21   -1    0    0  502  503 -0.00000000000E+00 -0.00000000000E+00 -0.20491705841E+03  0.20491705841E+03  0.00000000000E+00 0.  1.
         -6    2    1    2    0  503  0.23469940364E+03  0.11345162214E+03  0.40293462456E+02  0.31540827823E+03  0.17292697368E+03 0.  0.
        -24    2    3    3    0    0  0.25637803783E+03  0.99489067921E+02  0.34470106631E+02  0.28855836996E+03  0.80311715872E+02 0.  0.
          6    2    1    2  501    0 -0.23469940364E+03 -0.11345162214E+03  0.29858140798E+03  0.43330070903E+03  0.17505303944E+03 0.  0.
         24    2    5    5    0    0 -0.15488366888E+03 -0.13419324004E+03  0.16177790583E+03  0.27349440618E+03  0.81426794352E+02 0.  0.
          5    1    5    5  501    0 -0.79815734760E+02  0.20741617903E+02  0.13680350216E+03  0.15980630285E+03  0.47000000000E+01 0. -1.
        -11    1    6    6    0    0 -0.79954871027E+02 -0.10159195754E+03  0.58773808889E+02  0.14201432269E+03  0.00000000000E+00 0.  1.
         12    1    6    6    0    0 -0.74928797851E+02 -0.32601282503E+02  0.10300409694E+03  0.13148008349E+03  0.00000000000E+00 0. -1.
         -5    1    3    3    0  503 -0.21678634194E+02  0.13962554218E+02  0.58233558249E+01  0.26849908265E+02  0.47000000000E+01 0.  1.
         13    1    4    4    0    0  0.45959073234E+02  0.28274317317E+02  0.38652925056E+02  0.66375613351E+02  0.00000000000E+00 0. -1.
        -14    1    4    4    0    0  0.21041896460E+03  0.71214750604E+02 -0.41828184251E+01  0.22218275661E+03  0.00000000000E+00 0.  1.
<mgrwt>
<rscale>  2 0.31370873E+03</rscale>
<asrwt>0</asrwt>
<pdfrwt beam="1">  1       21 0.83660296E-01 0.31400422E+03</pdfrwt>
<pdfrwt beam="2">  1       21 0.31525701E-01 0.31400422E+03</pdfrwt>
<totfact> 0.11252017E+04</totfact>
</mgrwt>
</event>
<event>
11    1  0.1013215E-001  0.2215905E+03  0.7546771E-02  0.1133059E+00
         21   -1    0    0  501  502  0.00000000000E+00  0.00000000000E+00  0.20386338294E+04  0.20386338294E+04  0.00000000000E+00 0.  1.
         21   -1    0    0  502  503 -0.00000000000E+00 -0.00000000000E+00 -0.30255251527E+02  0.30255251527E+02  0.00000000000E+00 0. -1.
         -6    2    1    2    0  503  0.13269176403E+03 -0.27355597753E+02  0.52580086700E+03  0.56984304571E+03  0.17291359703E+03 0.  0.
          6    2    1    2  501    0 -0.13269176403E+03  0.27355597753E+02  0.14825777109E+04  0.14990460352E+04  0.17534797959E+03 0.  0.
         24    2    4    4    0    0 -0.16003491897E+03 -0.59009800529E+01  0.11897482855E+04  0.12030311530E+04  0.78338850778E+02 0.  0.
          5    1    4    4  501    0  0.27343154941E+02  0.33256577805E+02  0.29282942539E+03  0.29601488216E+03  0.47000000000E+01 0. -1.
        -11    1    5    5    0    0 -0.91439933758E+00 -0.67927559678E+01  0.76508326086E+01  0.10271947205E+02  0.00000000000E+00 0.  1.
         12    1    5    5    0    0 -0.15912051964E+03  0.89177591488E+00  0.11820974529E+04  0.11927592058E+04  0.00000000000E+00 0. -1.
         -5    1    3    3    0  503  0.11418178251E+03 -0.44533619611E+02  0.16025321290E+03  0.20180164760E+03  0.47000000000E+01 0.  1.
         13    1    3    3    0    0  0.14669576409E+02 -0.67216368252E+01  0.90215029430E+02  0.91646758856E+02  0.00000000000E+00 0. -1.
        -14    1    3    3    0    0  0.38404051131E+01  0.23899658683E+02  0.27533262468E+03  0.27639463925E+03  0.00000000000E+00 0.  1.
<mgrwt>
<rscale>  2 0.22110859E+03</rscale>
<asrwt>0</asrwt>
<pdfrwt beam="1">  1       21 0.31363587E+00 0.22159049E+03</pdfrwt>
<pdfrwt beam="2">  1       21 0.46546557E-02 0.22159049E+03</pdfrwt>
<totfact> 0.83860939E+03</totfact>
</mgrwt>
</event>
<event>
12    1  0.1013215E-001  0.1948279E+03  0.7546771E-02  0.1154225E+00
         21   -1    0    0  503  502  0.00000000000E+00  0.00000000000E+00  0.41198682864E+02  0.41198682864E+02  0.00000000000E+00 0.  1.
         21   -1    0    0  501  503 -0.00000000000E+00 -0.00000000000E+00 -0.97586887418E+03  0.97586887418E+03  0.00000000000E+00 0. -1.
          6    2    1    2  501    0  0.41504715256E+02 -0.79501388573E+02 -0.34574032405E+03  0.39674803294E+03  0.17271223985E+03 0.  0.
         24    2    3    3    0    0  0.21814021722E+02  0.58290923145E+00 -0.72974930833E+02  0.11174931732E+03  0.81770276172E+02 0.  0.
         -6    2    1    2    0  502 -0.41504715256E+02  0.79501388573E+02 -0.58892986727E+03  0.62031952411E+03  0.17295898720E+03 0.  0.
        -24    2    5    5    0    0  0.20731045193E+02 -0.11516619164E+02 -0.27614524565E+03  0.28863612516E+03  0.80574234742E+02 0.  0.
          5    1    3    3  501    0  0.19690693534E+02 -0.80084297804E+02 -0.27276539321E+03  0.28499871561E+03  0.47000000000E+01 0. -1.
        -11    1    4    4    0    0 -0.28680101049E+02 -0.90978226633E+01 -0.13064894819E+02  0.32802592124E+02  0.00000000000E+00 0.  1.
         12    1    4    4    0    0  0.50494122771E+02  0.96807318948E+01 -0.59910036014E+02  0.78946725199E+02  0.00000000000E+00 0. -1.
         -5    1    5    5    0  502 -0.62235760449E+02  0.91018007737E+02 -0.31278462162E+03  0.33168339894E+03  0.47000000000E+01 0.  1.
         13    1    6    6    0    0  0.46731289452E+02  0.38376054237E+01 -0.10708596704E+03  0.11690143270E+03  0.00000000000E+00 0. -1.
        -14    1    6    6    0    0 -0.26000244259E+02 -0.15354224588E+02 -0.16905927860E+03  0.17173469247E+03  0.00000000000E+00 0.  1.
<mgrwt>
<rscale>  2 0.19477316E+03</rscale>
<asrwt>0</asrwt>
<pdfrwt beam="1">  1       21 0.63382594E-02 0.19482793E+03</pdfrwt>
<pdfrwt beam="2">  1       21 0.15013366E+00 0.19482793E+03</pdfrwt>
<totfact> 0.53457936E+04</totfact>
</mgrwt>
</event>
<event>
12    1  0.1013215E-001  0.2733837E+03  0.7546771E-02  0.1099994E+00
         21   -1    0    0  501  502  0.00000000000E+00  0.00000000000E+00  0.22190694205E+03  0.22190694205E+03  0.00000000000E+00 0. -1.
         21   -1    0    0  502  503 -0.00000000000E+00 -0.00000000000E+00 -0.40725988072E+03  0.40725988072E+03  0.00000000000E+00 0.  1.
         -6    2    1    2    0  503 -0.11386516323E+03  0.17712013229E+03 -0.22789713023E+03  0.35249257412E+03  0.16726355307E+03 0.  0.
        -24    2    3    3    0    0 -0.55216391105E+02  0.18290975517E+03 -0.14831585298E+03  0.25335394445E+03  0.75404247487E+02 0.  0.
          6    2    1    2  501    0  0.11386516323E+03 -0.17712013229E+03  0.42544191559E+02  0.27667424864E+03  0.17436116244E+03 0.  0.
         24    2    5    5    0    0  0.10505378454E+03 -0.12202150927E+03  0.91359665458E+02  0.20238737803E+03  0.81783347594E+02 0.  0.
          5    1    5    5  501    0  0.88113786938E+01 -0.55098623023E+02 -0.48815473899E+02  0.74286870613E+02  0.47000000000E+01 0. -1.
        -11    1    6    6    0    0 -0.13948710161E+02 -0.13931508553E+02  0.12284058423E+02  0.23228248687E+02  0.00000000000E+00 0.  1.
         12    1    6    6    0    0  0.11900249470E+03 -0.10809000071E+03  0.79075607035E+02  0.17915912934E+03  0.00000000000E+00 0. -1.
         -5    1    3    3    0  503 -0.58648772128E+02 -0.57896228802E+01 -0.79581277249E+02  0.99138629675E+02  0.47000000000E+01 0.  1.
         13    1    4    4    0    0 -0.35029293192E+02  0.19727013698E+02 -0.20723134095E+02  0.45228914841E+02  0.00000000000E+00 0. -1.
        -14    1    4    4    0    0 -0.20187097914E+02  0.16318274147E+03 -0.12759271889E+03  0.20812502961E+03  0.00000000000E+00 0.  1.
<mgrwt>
<rscale>  2 0.27225895E+03</rscale>
<asrwt>0</asrwt>
<pdfrwt beam="1">  1       21 0.34139530E-01 0.27338367E+03</pdfrwt>
<pdfrwt beam="2">  1       21 0.62655366E-01 0.27338367E+03</pdfrwt>
<totfact> 0.18699364E+04</totfact>
</mgrwt>
</event>
<event>
12    1  0.1013215E-001  0.1835063E+03  0.7546771E-02  0.1164795E+00
         21   -1    0    0  503  502  0.00000000000E+00  0.00000000000E+00  0.31223833128E+03  0.31223833128E+03  0.00000000000E+00 0.  1.
         21   -1    0    0  501  503 -0.00000000000E+00 -0.00000000000E+00 -0.17920787565E+03  0.17920787565E+03  0.00000000000E+00 0. -1.
          6    2    1    2  501    0  0.22940021382E+02 -0.56274063736E+02 -0.89302723484E+02  0.20408221377E+03  0.17315183720E+03 0.  0.
         24    2    3    3    0    0 -0.30045745745E+02 -0.45994900262E+02 -0.10898120296E+03  0.14644121036E+03  0.80931130021E+02 0.  0.
         -6    2    1    2    0  502 -0.22940021382E+02  0.56274063736E+02  0.22233317912E+03  0.28736399316E+03  0.17161878451E+03 0.  0.
        -24    2    5    5    0    0  0.37840108432E+02  0.51951012987E+02  0.74603242402E+02  0.12749174057E+03  0.80979741781E+02 0.  0.
          5    1    3    3  501    0  0.52985767127E+02 -0.10279163474E+02  0.19678479472E+02  0.57641003410E+02  0.47000000000E+01 0. -1.
        -11    1    4    4    0    0  0.10937636876E+02 -0.51343356416E+02 -0.39891246798E+02  0.65932417820E+02  0.00000000000E+00 0.  1.
         12    1    4    4    0    0 -0.40983382621E+02  0.53484561545E+01 -0.69089956158E+02  0.80508792540E+02  0.00000000000E+00 0. -1.
         -5    1    5    5    0  502 -0.60780129814E+02  0.43230507486E+01  0.14772993671E+03  0.15987225259E+03  0.47000000000E+01 0.  1.
         13    1    6    6    0    0  0.36633890223E+02 -0.10705984623E+02  0.15008437324E+02  0.41011135202E+02  0.00000000000E+00 0. -1.
        -14    1    6    6    0    0  0.12062182091E+01  0.62656997609E+02  0.59594805078E+02  0.86480605364E+02  0.00000000000E+00 0.  1.
<mgrwt>
<rscale>  2 0.18314380E+03</rscale>
<asrwt>0</asrwt>
<pdfrwt beam="1">  1       21 0.48036666E-01 0.18350633E+03</pdfrwt>
<pdfrwt beam="2">  1       21 0.27570442E-01 0.18350633E+03</pdfrwt>
<totfact> 0.52206627E+04</totfact>
</mgrwt>
</event>
<event>
12    1  0.1013215E-001  0.2715370E+03  0.7546771E-02  0.1100421E+00
         21   -1    0    0  501  502  0.00000000000E+00  0.00000000000E+00  0.25543955264E+03  0.25543955264E+03  0.00000000000E+00 0.  1.
         21   -1    0    0  502  503 -0.00000000000E+00 -0.00000000000E+00 -0.38731469795E+03  0.38731469795E+03  0.00000000000E+00 0.  1.
         -6    2    1    2    0  503 -0.17388990348E+03 -0.11622791463E+03 -0.22826161986E+03  0.35473331923E+03  0.17316389347E+03 0.  0.
        -24    2    3    3    0    0 -0.13489984224E+03 -0.12113499705E+03 -0.10266935901E+03  0.22305260569E+03  0.79622940671E+02 0.  0.
          6    2    1    2  501    0  0.17388990348E+03  0.11622791463E+03  0.96386474545E+02  0.28802093136E+03  0.17297132061E+03 0.  0.
         24    2    5    5    0    0  0.52705494204E+02  0.10529535585E+03  0.20445913137E+02  0.14451399508E+03  0.81248251220E+02 0.  0.
          5    1    5    5  501    0  0.12118440927E+03  0.10932558777E+02  0.75940561408E+02  0.14350693628E+03  0.47000000000E+01 0. -1.
        -11    1    6    6    0    0  0.45437577829E+02  0.89709268906E+02 -0.18218900261E+02  0.10219713662E+03  0.00000000000E+00 0.  1.
         12    1    6    6    0    0  0.72679163744E+01  0.15586086947E+02  0.38664813398E+02  0.42316858459E+02  0.00000000000E+00 0. -1.
         -5    1    3    3    0  503 -0.38990061239E+02  0.49070824179E+01 -0.12559226085E+03  0.13168071354E+03  0.47000000000E+01 0.  1.
         11    1    4    4    0    0  0.47710805405E+01 -0.31738932546E+02 -0.19204977121E+02  0.37402596099E+02  0.00000000000E+00 0. -1.
        -12    1    4    4    0    0 -0.13967092278E+03 -0.89396064502E+02 -0.83464381890E+02  0.18565000959E+03  0.00000000000E+00 0.  1.
<mgrwt>
<rscale>  2 0.27150634E+03</rscale>
<asrwt>0</asrwt>
<pdfrwt beam="1">  1       21 0.39298393E-01 0.27153703E+03</pdfrwt>
<pdfrwt beam="2">  1       21 0.59586877E-01 0.27153703E+03</pdfrwt>
<totfact> 0.15723598E+04</totfact>
</mgrwt>
</event>
<event>
12    1  0.1013215E-001  0.1926213E+03  0.7546771E-02  0.1159554E+00
         21   -1    0    0  501  502  0.00000000000E+00  0.00000000000E+00  0.38105578272E+03  0.38105578272E+03  0.00000000000E+00 0.  1.
         21   -1    0    0  502  503 -0.00000000000E+00 -0.00000000000E+00 -0.31124862680E+03  0.31124862680E+03  0.00000000000E+00 0.  1.
         -6    2    1    2    0  503  0.25634215852E+02 -0.39217800591E+02 -0.25646780287E+03  0.32074707735E+03  0.18683630486E+03 0.  0.
        -24    2    3    3    0    0  0.71589415833E+02  0.27275209056E+02 -0.16968345294E+03  0.20205919200E+03  0.78526819487E+02 0.  0.
          6    2    1    2  501    0 -0.25634215852E+02  0.39217800591E+02  0.32627495880E+03  0.37155733217E+03  0.17147697643E+03 0.  0.
         24    2    5    5    0    0  0.28906466353E+01 -0.42096094480E+02  0.16752938853E+03  0.19087013453E+03  0.81147244105E+02 0.  0.
          5    1    5    5  501    0 -0.28524862488E+02  0.81313895071E+02  0.15874557027E+03  0.18068719764E+03  0.47000000000E+01 0. -1.
        -11    1    6    6    0    0 -0.83949489167E+00 -0.57194377195E+02  0.16559761925E+03  0.17519838194E+03  0.00000000000E+00 0.  1.
         12    1    6    6    0    0  0.37301415270E+01  0.15098282715E+02  0.19317692872E+01  0.15671752593E+02  0.00000000000E+00 0. -1.
         -5    1    3    3    0  503 -0.45955199980E+02 -0.66493009647E+02 -0.86784349928E+02  0.11868788535E+03  0.47000000000E+01 0.  1.
         13    1    4    4    0    0  0.52765197787E+01 -0.18611968490E+02 -0.71580572130E+01  0.20627283270E+02  0.00000000000E+00 0. -1.
        -14    1    4    4    0    0  0.66312896054E+02  0.45887177546E+02 -0.16252539573E+03  0.18143190873E+03  0.00000000000E+00 0.  1.
<mgrwt>
<rscale>  2 0.18879401E+03</rscale>
<asrwt>0</asrwt>
<pdfrwt beam="1">  1       21 0.58623967E-01 0.19262127E+03</pdfrwt>
<pdfrwt beam="2">  1       21 0.47884404E-01 0.19262127E+03</pdfrwt>
<totfact> 0.11353554E+04</totfact>
</mgrwt>
</event>
<event>
12    1  0.1013215E-001  0.2276568E+03  0.7546771E-02  0.1128345E+00
         21   -1    0    0  501  502  0.00000000000E+00  0.00000000000E+00  0.17169513620E+04  0.17169513620E+04  0.00000000000E+00 0.  1.
         21   -1    0    0  502  503 -0.00000000000E+00 -0.00000000000E+00 -0.67823981170E+02  0.67823981170E+02  0.00000000000E+00 0.  1.
         -6    2    1    2    0  503 -0.12443275172E+03  0.76876927172E+02  0.15929034205E+03  0.27764494784E+03  0.17412562235E+03 0.  0.
        -24    2    3    3    0    0 -0.13366867406E+03  0.13968886486E+02  0.14191602516E+03  0.21156408274E+03  0.80973814882E+02 0.  0.
          6    2    1    2  501    0  0.12443275172E+03 -0.76876927172E+02  0.14898370388E+04  0.15071303953E+04  0.17445358919E+03 0.  0.
         24    2    5    5    0    0  0.16003062289E+03 -0.58881815461E+02  0.12619087067E+04  0.12756904527E+04  0.76783322561E+02 0.  0.
          5    1    5    5  501    0 -0.35597871177E+02 -0.17995111712E+02  0.22792833208E+03  0.23143994262E+03  0.47000000000E+01 0. -1.
        -11    1    6    6    0    0  0.96941259781E+01 -0.16623508587E+02  0.34831587293E+03  0.34884705023E+03  0.00000000000E+00 0.  1.
         12    1    6    6    0    0  0.15033649691E+03 -0.42258306873E+02  0.91359283376E+03  0.92684340247E+03  0.00000000000E+00 0. -1.
         -5    1    3    3    0  503  0.92359223438E+01  0.62908040687E+02  0.17374316898E+02  0.66080865099E+02  0.47000000000E+01 0.  1.
         11    1    4    4    0    0 -0.86265651774E+01  0.25494196394E+02  0.46981276222E+02  0.54144362514E+02  0.00000000000E+00 0. -1.
        -12    1    4    4    0    0 -0.12504210888E+03 -0.11525309908E+02  0.94934748934E+02  0.15741972023E+03  0.00000000000E+00 0.  1.
<mgrwt>
<rscale>  2 0.22759399E+03</rscale>
<asrwt>0</asrwt>
<pdfrwt beam="1">  1       21 0.26414633E+00 0.22765682E+03</pdfrwt>
<pdfrwt beam="2">  1       21 0.10434460E-01 0.22765682E+03</pdfrwt>
<totfact> 0.39909882E+03</totfact>
</mgrwt>
</event>
<event>
12    1  0.1013215E-001  0.2212711E+03  0.7546771E-02  0.1132966E+00
         21   -1    0    0  503  502  0.00000000000E+00  0.00000000000E+00  0.43570671273E+03  0.43570671273E+03  0.00000000000E+00 0.  1.
         21   -1    0    0  501  503 -0.00000000000E+00 -0.00000000000E+00 -0.11335644340E+03  0.11335644340E+03  0.00000000000E+00 0. -1.
          6    2    1    2  501    0  0.58786412605E+02 -0.12257901805E+03  0.18777315398E+03  0.29020620719E+03  0.17458358274E+03 0.  0.
         24    2    3    3    0    0  0.29442035016E+02 -0.15760427972E+02  0.22322242352E+02  0.91039448313E+02  0.81698678875E+02 0.  0.
         -6    2    1    2    0  502 -0.58786412605E+02  0.12257901805E+03  0.13457711536E+03  0.25885694894E+03  0.17439742562E+03 0.  0.
        -24    2    5    5    0    0 -0.81451104340E+02  0.22411370736E+02  0.72622296697E+02  0.13882472254E+03  0.82835702897E+02 0.  0.
          5    1    3    3  501    0  0.29344377589E+02 -0.10681859008E+03  0.16545091163E+03  0.19916675887E+03  0.47000000000E+01 0. -1.
        -11    1    4    4    0    0 -0.93682525136E+01 -0.27353099747E+02  0.37876734750E+02  0.47650847382E+02  0.00000000000E+00 0.  1.
         12    1    4    4    0    0  0.38810287530E+02  0.11592671775E+02 -0.15554492398E+02  0.43388600931E+02  0.00000000000E+00 0. -1.
         -5    1    5    5    0  502  0.22664691735E+02  0.10016764731E+03  0.61954818661E+02  0.12003222640E+03  0.47000000000E+01 0.  1.
         13    1    6    6    0    0 -0.36478723235E+02  0.52635051280E+02  0.42023627766E+02  0.76597200750E+02  0.00000000000E+00 0. -1.
        -14    1    6    6    0    0 -0.44972381105E+02 -0.30223680544E+02  0.30598668931E+02  0.62227521791E+02  0.00000000000E+00 0.  1.
<mgrwt>
<rscale>  2 0.22123435E+03</rscale>
<asrwt>0</asrwt>
<pdfrwt beam="1">  1       21 0.67031801E-01 0.22127107E+03</pdfrwt>
<pdfrwt beam="2">  1       21 0.17439453E-01 0.22127107E+03</pdfrwt>
<totfact> 0.59868031E+04</totfact>
</mgrwt>
</event>
<event>
12    1  0.1013215E-001  0.1956726E+03  0.7546771E-02  0.1153630E+00
         21   -1    0    0  501  502  0.00000000000E+00  0.00000000000E+00  0.45501870390E+03  0.45501870390E+03  0.00000000000E+00 0.  1.
         21   -1    0    0  502  503 -0.00000000000E+00 -0.00000000000E+00 -0.16859976544E+03  0.16859976544E+03  0.00000000000E+00 0.  1.
         -6    2    1    2    0  503  0.83118988262E+02  0.34456229755E+02 -0.77801480266E+02  0.21057267032E+03  0.17375782335E+03 0.  0.
        -24    2    3    3    0    0  0.51213886953E+01  0.57835065964E+02 -0.13062490663E+01  0.98752252163E+02  0.79869753621E+02 0.  0.
          6    2    1    2  501    0 -0.83118988262E+02 -0.34456229755E+02  0.36422041872E+03  0.41304579902E+03  0.17278402904E+03 0.  0.
         24    2    5    5    0    0 -0.12287725232E+03 -0.22661684571E+02  0.31766135701E+03  0.35051846831E+03  0.79637226245E+02 0.  0.
          5    1    5    5  501    0  0.39758264062E+02 -0.11794545184E+02  0.46559061709E+02  0.62527330701E+02  0.47000000000E+01 0. -1.
        -11    1    6    6    0    0 -0.75356182948E+02 -0.23624225608E+01  0.91652677360E+02  0.11867749836E+03  0.00000000000E+00 0.  1.
         12    1    6    6    0    0 -0.47521069377E+02 -0.20299262010E+02  0.22600867965E+03  0.23184096996E+03  0.00000000000E+00 0. -1.
         -5    1    3    3    0  503  0.77997599567E+02 -0.23378836208E+02 -0.76495231200E+02  0.11182041816E+03  0.47000000000E+01 0.  1.
         13    1    4    4    0    0 -0.11312218064E+02 -0.17702010336E+02 -0.40718253462E+01  0.21398766533E+02  0.00000000000E+00 0. -1.
        -14    1    4    4    0    0  0.16433606759E+02  0.75537076300E+02  0.27655762799E+01  0.77353485631E+02  0.00000000000E+00 0.  1.
<mgrwt>
<rscale>  2 0.19545622E+03</rscale>
<asrwt>0</asrwt>
<pdfrwt beam="1">  1       21 0.70002877E-01 0.19567263E+03</pdfrwt>
<pdfrwt beam="2">  1       21 0.25938426E-01 0.19567263E+03</pdfrwt>
<totfact> 0.26108644E+04</totfact>
</mgrwt>
</event>
<event>
12    1  0.1013215E-001  0.2112878E+03  0.7546771E-02  0.1140623E+00
         21   -1    0    0  503  502  0.00000000000E+00  0.00000000000E+00  0.12969911984E+04  0.12969911984E+04  0.00000000000E+00 0. -1.
         21   -1    0    0  501  503 -0.00000000000E+00 -0.00000000000E+00 -0.82804953134E+02  0.82804953134E+02  0.00000000000E+00 0. -1.
          6    2    1    2  501    0  0.12045540893E+03 -0.13669661327E+01  0.79177462817E+02  0.22528870166E+03  0.17313160988E+03 0.  0.
         24    2    3    3    0    0  0.13881923599E+03  0.70285864388E+01  0.10541501435E+03  0.19184898639E+03  0.79834372415E+02 0.  0.
         -6    2    1    2    0  502 -0.12045540893E+03  0.13669661327E+01  0.11350087824E+04  0.11545074498E+04  0.17358324065E+03 0.  0.
        -24    2    5    5    0    0 -0.86110625281E+02  0.70929061597E+01  0.10947253488E+04  0.11010547083E+04  0.80203068820E+02 0.  0.
          5    1    3    3  501    0 -0.18363827054E+02 -0.83955525715E+01 -0.26237551537E+02  0.33439715275E+02  0.47000000000E+01 0. -1.
        -11    1    4    4    0    0  0.63796801136E+02 -0.16522243929E+02  0.90278778185E+02  0.11177331600E+03  0.00000000000E+00 0.  1.
         12    1    4    4    0    0  0.75022434852E+02  0.23550830368E+02  0.15136236169E+02  0.80075670384E+02  0.00000000000E+00 0. -1.
         -5    1    5    5    0  502 -0.34344783654E+02 -0.57259400270E+01  0.40283433565E+02  0.53452741493E+02  0.47000000000E+01 0.  1.
         11    1    6    6    0    0 -0.56047697431E+02 -0.25497419764E+02  0.85842672773E+03  0.86063227320E+03  0.00000000000E+00 0. -1.
        -12    1    6    6    0    0 -0.30062927850E+02  0.32590325924E+02  0.23629862112E+03  0.24042243513E+03  0.00000000000E+00 0.  1.
<mgrwt>
<rscale>  2 0.21119497E+03</rscale>
<asrwt>0</asrwt>
<pdfrwt beam="1">  1       21 0.19953709E+00 0.21128776E+03</pdfrwt>
<pdfrwt beam="2">  1       21 0.12739225E-01 0.21128776E+03</pdfrwt>
<totfact> 0.70132811E+03</totfact>
</mgrwt>
</event>
<event>
12    1  0.1013215E-001  0.2543082E+03  0.7546771E-02  0.1111689E+00
         21   -1    0    0  501  502  0.00000000000E+00  0.00000000000E+00  0.22508202503E+04  0.22508202503E+04  0.00000000000E+00 0.  1.
         21   -1    0    0  502  503 -0.00000000000E+00 -0.00000000000E+00 -0.33260043821E+02  0.33260043821E+02  0.00000000000E+00 0. -1.
         -6    2    1    2    0  503 -0.77678787910E+02 -0.16915652843E+03  0.15517751868E+04  0.15713795491E+04  0.16303230343E+03 0.  0.
        -24    2    3    3    0    0 -0.48544118138E+01 -0.63259863994E+02  0.43883058091E+03  0.45102903300E+03  0.82640995637E+02 0.  0.
          6    2    1    2  501    0  0.77678787910E+02  0.16915652843E+03  0.66578501966E+03  0.71270074494E+03  0.17327646761E+03 0.  0.
         24    2    5    5    0    0  0.54088503905E+02  0.13765463761E+03  0.64722742137E+03  0.66893608935E+03  0.81840033870E+02 0.  0.
          5    1    5    5  501    0  0.23590284005E+02  0.31501890818E+02  0.18557598284E+02  0.43764655586E+02  0.47000000000E+01 0. -1.
        -11    1    6    6    0    0  0.31713129879E+02  0.13220042714E+03  0.44239886946E+03  0.46281684849E+03  0.00000000000E+00 0.  1.
         12    1    6    6    0    0  0.22375374025E+02  0.54542104705E+01  0.20482855191E+03  0.20611924086E+03  0.00000000000E+00 0. -1.
         -5    1    3    3    0  503 -0.72824376096E+02 -0.10589666443E+03  0.11129446059E+04  0.11203505161E+04  0.47000000000E+01 0.  1.
         13    1    4    4    0    0  0.14685798651E+01 -0.77128912363E+02  0.41886870260E+03  0.42591315531E+03  0.00000000000E+00 0. -1.
        -14    1    4    4    0    0 -0.63229916789E+01  0.13869048369E+02  0.19961878316E+02  0.25115877694E+02  0.00000000000E+00 0.  1.
<mgrwt>
<rscale>  2 0.25257395E+03</rscale>
<asrwt>0</asrwt>
<pdfrwt beam="1">  1       21 0.34627992E+00 0.25430820E+03</pdfrwt>
<pdfrwt beam="2">  1       21 0.51169316E-02 0.25430820E+03</pdfrwt>
<totfact> 0.44422065E+03</totfact>
</mgrwt>
</event>
<event>
12    1  0.1013215E-001  0.1880068E+03  0.7546771E-02  0.1160275E+00
         21   -1    0    0  501  502  0.00000000000E+00  0.00000000000E+00  0.34594705004E+03  0.34594705004E+03  0.00000000000E+00 0. -1.
         21   -1    0    0  502  503 -0.00000000000E+00 -0.00000000000E+00 -0.10537489319E+03  0.10537489319E+03  0.00000000000E+00 0. -1.
         -6    2    1    2    0  503  0.67810328718E+02  0.20272641350E+02  0.80910075206E+02  0.20467777030E+03  0.17417614280E+03 0.  0.
        -24    2    3    3    0    0  0.58914599670E+02 -0.75044261472E+01 -0.16240336324E+02  0.10313471572E+03  0.82739196253E+02 0.  0.
          6    2    1    2  501    0 -0.67810328718E+02 -0.20272641350E+02  0.15966208164E+03  0.24664417293E+03  0.17416126739E+03 0.  0.
         24    2    5    5    0    0 -0.22245159306E+02  0.26673481213E+02  0.11746672424E+02  0.84838173749E+02  0.76506272289E+02 0.  0.
          5    1    5    5  501    0 -0.45565169412E+02 -0.46946122563E+02  0.14791540921E+03  0.16180599918E+03  0.47000000000E+01 0. -1.
        -11    1    6    6    0    0  0.19295690377E+02 -0.39970300896E+01 -0.16748216388E+02  0.25861219400E+02  0.00000000000E+00 0.  1.
         12    1    6    6    0    0 -0.41540849683E+02  0.30670511303E+02  0.28494888812E+02  0.58976954350E+02  0.00000000000E+00 0. -1.
         -5    1    3    3    0  503  0.88957290482E+01  0.27777067497E+02  0.97150411530E+02  0.10154305458E+03  0.47000000000E+01 0.  1.
         13    1    4    4    0    0 -0.28253857295E+01 -0.28129948010E+02  0.13780790032E+02  0.31451342634E+02  0.00000000000E+00 0. -1.
        -14    1    4    4    0    0  0.61739985399E+02  0.20625521863E+02 -0.30021126356E+02  0.71683373086E+02  0.00000000000E+00 0.  1.
<mgrwt>
<rscale>  2 0.18800333E+03</rscale>
<asrwt>0</asrwt>
<pdfrwt beam="1">  1       21 0.53222623E-01 0.18800678E+03</pdfrwt>
<pdfrwt beam="2">  1       21 0.16211522E-01 0.18800678E+03</pdfrwt>
<totfact> 0.11398884E+05</totfact>
</mgrwt>
</event>
<event>
12    1  0.1013215E-001  0.1780188E+03  0.7546771E-02  0.1169783E+00
         21   -1    0    0  501  502  0.00000000000E+00  0.00000000000E+00  0.61477118146E+02  0.61477118146E+02  0.00000000000E+00 0. -1.
         21   -1    0    0  502  503 -0.00000000000E+00 -0.00000000000E+00 -0.51886553438E+03  0.51886553438E+03  0.00000000000E+00 0. -1.
         -6    2    1    2    0  503 -0.21806499199E+02  0.31770676755E+02 -0.25415767490E+03  0.31030116610E+03  0.17379813193E+03 0.  0.
        -24    2    3    3    0    0 -0.49924905965E+02  0.76834619702E+02 -0.18881980306E+03  0.22596534187E+03  0.83733880091E+02 0.  0.
          6    2    1    2  501    0  0.21806499199E+02 -0.31770676755E+02 -0.20323074133E+03  0.27004148643E+03  0.17359369476E+03 0.  0.
         24    2    5    5    0    0 -0.46697047431E+02 -0.49694661945E+02 -0.99936086686E+02  0.14471838072E+03  0.79410418908E+02 0.  0.
          5    1    5    5  501    0  0.68503546630E+02  0.17923985190E+02 -0.10329465465E+03  0.12532310571E+03  0.47000000000E+01 0. -1.
        -13    1    6    6    0    0 -0.66967658854E+02 -0.43989050396E+02 -0.92522331793E+02  0.12239316062E+03  0.00000000000E+00 0.  1.
         14    1    6    6    0    0  0.20270611424E+02 -0.57056115485E+01 -0.74137548933E+01  0.22325220094E+02  0.00000000000E+00 0. -1.
         -5    1    3    3    0  503  0.28118406766E+02 -0.45063942947E+02 -0.65337871837E+02  0.84335824234E+02  0.47000000000E+01 0.  1.
         11    1    4    4    0    0 -0.39955623709E+02  0.74101938406E+01 -0.24869355998E+02  0.47642918744E+02  0.00000000000E+00 0. -1.
        -12    1    4    4    0    0 -0.99692822565E+01  0.69424425861E+02 -0.16395044707E+03  0.17832242312E+03  0.00000000000E+00 0.  1.
<mgrwt>
<rscale>  2 0.17796887E+03</rscale>
<asrwt>0</asrwt>
<pdfrwt beam="1">  1       21 0.94580180E-02 0.17801879E+03</pdfrwt>
<pdfrwt beam="2">  1       21 0.79825468E-01 0.17801879E+03</pdfrwt>
<totfact> 0.12440216E+05</totfact>
</mgrwt>
</event>
<event>
12    1  0.1013215E-001  0.1784862E+03  0.7546771E-02  0.1169420E+00
         21   -1    0    0  501  502  0.00000000000E+00  0.00000000000E+00  0.85094499680E+02  0.85094499680E+02  0.00000000000E+00 0. -1.
         21   -1    0    0  502  503 -0.00000000000E+00 -0.00000000000E+00 -0.46317724366E+03  0.46317724366E+03  0.00000000000E+00 0. -1.
         -6    2    1    2    0  503 -0.26475140645E+02  0.29234681114E+02 -0.30965359538E+03  0.35711770930E+03  0.17347077423E+03 0.  0.
        -24    2    3    3    0    0 -0.20751185387E+02  0.53153850655E+02 -0.85726374085E+02  0.13179487252E+03  0.82249216870E+02 0.  0.
          6    2    1    2  501    0  0.26475140645E+02 -0.29234681114E+02 -0.68429148607E+02  0.19115403405E+03  0.17407388288E+03 0.  0.
         24    2    5    5    0    0  0.61138965437E+02 -0.69114532836E+02 -0.22388684963E+02  0.12091303736E+03  0.74859319033E+02 0.  0.
          5    1    5    5  501    0 -0.34663824792E+02  0.39879851722E+02 -0.46040463644E+02  0.70240996684E+02  0.47000000000E+01 0. -1.
        -11    1    6    6    0    0  0.33848458133E+02  0.52416349096E+01 -0.23775217347E+02  0.41694769628E+02  0.00000000000E+00 0.  1.
         12    1    6    6    0    0  0.27290507304E+02 -0.74356167746E+02  0.13865323837E+01  0.79218267734E+02  0.00000000000E+00 0. -1.
         -5    1    3    3    0  503 -0.57239552579E+01 -0.23919169541E+02 -0.22392722129E+03  0.22532283677E+03  0.47000000000E+01 0.  1.
         13    1    4    4    0    0  0.31719768046E+02  0.19701446811E+02 -0.38864008644E+02  0.53895286058E+02  0.00000000000E+00 0. -1.
        -14    1    4    4    0    0 -0.52470953433E+02  0.33452403844E+02 -0.46862365440E+02  0.77899586467E+02  0.00000000000E+00 0.  1.
<mgrwt>
<rscale>  2 0.17833896E+03</rscale>
<asrwt>0</asrwt>
<pdfrwt beam="1">  1       21 0.13091462E-01 0.17848618E+03</pdfrwt>
<pdfrwt beam="2">  1       21 0.71258036E-01 0.17848618E+03</pdfrwt>
<totfact> 0.89928526E+04</totfact>
</mgrwt>
</event>
<event>
12    1  0.1013215E-001  0.1911660E+03  0.7546771E-02  0.1158895E+00
         21   -1    0    0  501  502  0.00000000000E+00  0.00000000000E+00  0.26707965505E+03  0.26707965505E+03  0.00000000000E+00 0. -1.
         21   -1    0    0  502  503 -0.00000000000E+00 -0.00000000000E+00 -0.14028987751E+03  0.14028987751E+03  0.00000000000E+00 0. -1.
         -6    2    1    2    0  503 -0.63140277994E+02  0.54063819804E+02  0.11328512212E+03  0.22221155061E+03  0.17214779410E+03 0.  0.
        -24    2    3    3    0    0  0.22882789897E+02  0.71119068270E+02  0.62497913000E+02  0.12076067422E+03  0.71383523058E+02 0.  0.
          6    2    1    2  501    0  0.63140277994E+02 -0.54063819804E+02  0.13504655429E+02  0.18515798195E+03  0.16489848769E+03 0.  0.
         24    2    5    5    0    0  0.97415763560E+02 -0.19629562575E+01  0.14560072989E+02  0.12260789962E+03  0.72986417479E+02 0.  0.
          5    1    5    5  501    0 -0.34275485566E+02 -0.52100863547E+02 -0.10554175604E+01  0.62550082329E+02  0.47000000000E+01 0. -1.
        -13    1    6    6    0    0  0.56301046367E+02  0.34879162082E+02  0.36247398862E+01  0.66328745720E+02  0.00000000000E+00 0.  1.
         14    1    6    6    0    0  0.41114717193E+02 -0.36842118339E+02  0.10935333103E+02  0.56279153900E+02  0.00000000000E+00 0. -1.
         -5    1    3    3    0  503 -0.86023067891E+02 -0.17055248466E+02  0.50787209118E+02  0.10145087639E+03  0.47000000000E+01 0.  1.
         11    1    4    4    0    0 -0.57539472644E+01  0.58475649249E+02  0.99489227300E+01  0.59594383357E+02  0.00000000000E+00 0. -1.
        -12    1    4    4    0    0  0.28636737161E+02  0.12643419020E+02  0.52548990270E+02  0.61166290865E+02  0.00000000000E+00 0.  1.
<mgrwt>
<rscale>  2 0.18951959E+03</rscale>
<asrwt>0</asrwt>
<pdfrwt beam="1">  1       21 0.41089178E-01 0.19116604E+03</pdfrwt>
<pdfrwt beam="2">  1       21 0.21583058E-01 0.19116604E+03</pdfrwt>
<totfact> 0.11422399E+05</totfact>
</mgrwt>
</event>
<event>
12    1  0.1013215E-001  0.1875257E+03  0.7546771E-02  0.1160776E+00
         21   -1    0    0  503  502  0.00000000000E+00  0.00000000000E+00  0.56504510899E+02  0.56504510899E+02  0.00000000000E+00 0.  1.
         21   -1    0    0  501  503 -0.00000000000E+00 -0.00000000000E+00 -0.23565647575E+04  0.23565647575E+04  0.00000000000E+00 0.  1.
          6    2    1    2  501    0 -0.59488372885E+02  0.40703928099E+02 -0.21855544965E+04  0.21935848165E+04  0.17311907449E+03 0.  0.
         24    2    3    3    0    0 -0.64108260090E+02  0.35082253628E+02 -0.21811439752E+04  0.21838642569E+04  0.80829564516E+02 0.  0.
         -6    2    1    2    0  502  0.59488372885E+02 -0.40703928099E+02 -0.11450575016E+03  0.21948445191E+03  0.17281834839E+03 0.  0.
        -24    2    5    5    0    0  0.93718290620E+02 -0.51247923632E+02 -0.12222716505E+03  0.18254431983E+03  0.83507371856E+02 0.  0.
          5    1    3    3  501    0  0.46198872059E+01  0.56216744704E+01 -0.44105212969E+01  0.97205596421E+01  0.47000000000E+01 0. -1.
        -13    1    4    4    0    0  0.16858696033E+02  0.67202443293E+01 -0.70190146827E+03  0.70213606123E+03  0.00000000000E+00 0.  1.
         14    1    4    4    0    0 -0.80966956124E+02  0.28362009299E+02 -0.14792425069E+04  0.14817281957E+04  0.00000000000E+00 0. -1.
         -5    1    5    5    0  502 -0.34229917736E+02  0.10543995534E+02  0.77214148859E+01  0.36940132077E+02  0.47000000000E+01 0.  1.
         11    1    6    6    0    0 -0.15392172347E+02 -0.10567996398E+02 -0.22428920535E+02  0.29183179981E+02  0.00000000000E+00 0. -1.
        -12    1    6    6    0    0  0.10911046297E+03 -0.40679927235E+02 -0.99798244512E+02  0.15336113985E+03  0.00000000000E+00 0.  1.
<mgrwt>
<rscale>  2 0.18745627E+03</rscale>
<asrwt>0</asrwt>
<pdfrwt beam="1">  1       21 0.86930027E-02 0.18752571E+03</pdfrwt>
<pdfrwt beam="2">  1       21 0.36254838E+00 0.18752571E+03</pdfrwt>
<totfact> 0.15407145E+03</totfact>
</mgrwt>
</event>
<event>
12    1  0.1013215E-001  0.2019575E+03  0.7546771E-02  0.1148951E+00
         21   -1    0    0  501  502  0.00000000000E+00  0.00000000000E+00  0.77912146962E+03  0.77912146962E+03  0.00000000000E+00 0.  1.
         21   -1    0    0  502  503 -0.00000000000E+00 -0.00000000000E+00 -0.58176387287E+02  0.58176387287E+02  0.00000000000E+00 0.  1.
         -6    2    1    2    0  503 -0.70613218220E+02 -0.66945296945E+02  0.21981450813E+03  0.29850500658E+03  0.17697152765E+03 0.  0.
        -24    2    3    3    0    0  0.20277968998E+02 -0.42912284034E+02  0.17390925977E+03  0.19377594924E+03  0.71077617591E+02 0.  0.
          6    2    1    2  501    0  0.70613218220E+02  0.66945296945E+02  0.50113057420E+03  0.53879285033E+03  0.17233102969E+03 0.  0.
         24    2    5    5    0    0  0.10300780575E+03  0.67349369132E+02  0.47385421850E+03  0.49618226296E+03  0.80699889180E+02 0.  0.
          5    1    5    5  501    0 -0.32394587533E+02 -0.40407218699E+00  0.27276355699E+02  0.42610587370E+02  0.47000000000E+01 0. -1.
        -13    1    6    6    0    0  0.81874505437E+02  0.60443576575E+01  0.25096810607E+03  0.26405484120E+03  0.00000000000E+00 0.  1.
         14    1    6    6    0    0  0.21133300316E+02  0.61305011475E+02  0.22288611243E+03  0.23212742175E+03  0.00000000000E+00 0. -1.
         -5    1    3    3    0  503 -0.90891187218E+02 -0.24033012911E+02  0.45905248355E+02  0.10472905733E+03  0.47000000000E+01 0.  1.
         11    1    4    4    0    0  0.30161593782E+02 -0.25153374755E+02  0.32680703884E+02  0.51092488757E+02  0.00000000000E+00 0. -1.
        -12    1    4    4    0    0 -0.98836247837E+01 -0.17758909280E+02  0.14122855589E+03  0.14268346049E+03  0.00000000000E+00 0.  1.
<mgrwt>
<rscale>  2 0.20093632E+03</rscale>
<asrwt>0</asrwt>
<pdfrwt beam="1">  1       21 0.11986483E+00 0.20195747E+03</pdfrwt>
<pdfrwt beam="2">  1       21 0.89502140E-02 0.20195747E+03</pdfrwt>
<totfact> 0.51980670E+04</totfact>
</mgrwt>
</event>
<event>
12    1  0.1013215E-001  0.2365675E+03  0.7546771E-02  0.1122161E+00
         21   -1    0    0  501  502  0.00000000000E+00  0.00000000000E+00  0.17945616113E+04  0.17945616113E+04  0.00000000000E+00 0. -1.
         21   -1    0    0  502  503 -0.00000000000E+00 -0.00000000000E+00 -0.32781454154E+02  0.32781454154E+02  0.00000000000E+00 0. -1.
         -6    2    1    2    0  503 -0.15113292010E+03 -0.53679862763E+02  0.67572338523E+03  0.71582001731E+03  0.17341717513E+03 0.  0.
        -24    2    3    3    0    0 -0.14252927390E+03 -0.41044493672E+02  0.67871606089E+03  0.69954975647E+03  0.81945872896E+02 0.  0.
          6    2    1    2  501    0  0.15113292010E+03  0.53679862763E+02  0.10860567719E+04  0.11115230481E+04  0.17390079795E+03 0.  0.
         24    2    5    5    0    0  0.79084549245E+01 -0.75008578256E+01  0.36159211597E+03  0.37049170217E+03  0.79977725150E+02 0.  0.
          5    1    5    5  501    0  0.14322446518E+03  0.61180720589E+02  0.72446465595E+03  0.74103134597E+03  0.47000000000E+01 0. -1.
        -11    1    6    6    0    0  0.52192913062E+00 -0.30867095495E+02  0.56224677029E+02  0.64142531142E+02  0.00000000000E+00 0.  1.
         12    1    6    6    0    0  0.73865257939E+01  0.23366237669E+02  0.30536743894E+03  0.30634917103E+03  0.00000000000E+00 0. -1.
         -5    1    3    3    0  503 -0.86036462053E+01 -0.12635369091E+02 -0.29926756653E+01  0.16270260838E+02  0.47000000000E+01 0.  1.
         11    1    4    4    0    0 -0.45566729408E+02  0.12381475405E+01  0.37865985848E+03  0.38139369196E+03  0.00000000000E+00 0. -1.
        -12    1    4    4    0    0 -0.96962544487E+02 -0.42282641213E+02  0.30005620241E+03  0.31815606451E+03  0.00000000000E+00 0.  1.
<mgrwt>
<rscale>  2 0.23647861E+03</rscale>
<asrwt>0</asrwt>
<pdfrwt beam="1">  1       21 0.27608633E+00 0.23656748E+03</pdfrwt>
<pdfrwt beam="2">  1       21 0.50433020E-02 0.23656748E+03</pdfrwt>
<totfact> 0.11935168E+04</totfact>
</mgrwt>
</event>
<event>
12    1  0.1013215E-001  0.1857257E+03  0.7546771E-02  0.1164109E+00
         21   -1    0    0  503  502  0.00000000000E+00  0.00000000000E+00  0.14339680152E+03  0.14339680152E+03  0.00000000000E+00 0.  1.
         21   -1    0    0  501  503 -0.00000000000E+00 -0.00000000000E+00 -0.23356076337E+03  0.23356076337E+03  0.00000000000E+00 0.  1.
          6    2    1    2  501    0 -0.57287639244E+02 -0.25811778109E+02 -0.65034989983E+02  0.19678307015E+03  0.17477386898E+03 0.  0.
         24    2    3    3    0    0  0.54678784441E+01  0.93151657816E+01 -0.89501873800E+02  0.12067212750E+03  0.80215378410E+02 0.  0.
         -6    2    1    2    0  502  0.57287639244E+02  0.25811778109E+02 -0.25128971860E+02  0.18017449474E+03  0.16698281896E+03 0.  0.
        -24    2    5    5    0    0  0.53221459702E+02  0.18557067574E+02  0.44054587317E+02  0.11033453840E+03  0.84000090304E+02 0.  0.
          5    1    3    3  501    0 -0.62755517688E+02 -0.35126943891E+02  0.24466883818E+02  0.76110942651E+02  0.47000000000E+01 0. -1.
        -11    1    4    4    0    0 -0.37186646779E+02  0.33809668102E+01 -0.48508195788E+02  0.61215379553E+02  0.00000000000E+00 0.  1.
         12    1    4    4    0    0  0.42654525223E+02  0.59341989714E+01 -0.40993678012E+02  0.59456747947E+02  0.00000000000E+00 0. -1.
         -5    1    5    5    0  502  0.40661795418E+01  0.72547105352E+01 -0.69183559177E+02  0.69839956339E+02  0.47000000000E+01 0.  1.
         13    1    6    6    0    0 -0.12668645763E+02 -0.11971702394E+02 -0.97344316381E+01  0.19964353308E+02  0.00000000000E+00 0. -1.
        -14    1    6    6    0    0  0.65890105465E+02  0.30528769968E+02  0.53789018955E+02  0.90370185095E+02  0.00000000000E+00 0.  1.
<mgrwt>
<rscale>  2 0.18387001E+03</rscale>
<asrwt>0</asrwt>
<pdfrwt beam="1">  1       21 0.22061047E-01 0.18572568E+03</pdfrwt>
<pdfrwt beam="2">  1       21 0.35932425E-01 0.18572568E+03</pdfrwt>
<totfact> 0.14374085E+05</totfact>
</mgrwt>
</event>
<event>
12    1  0.1013215E-001  0.2307637E+03  0.7546771E-02  0.1126340E+00
         21   -1    0    0  503  502  0.00000000000E+00  0.00000000000E+00  0.42127850801E+02  0.42127850801E+02  0.00000000000E+00 0.  1.
         21   -1    0    0  501  503 -0.00000000000E+00 -0.00000000000E+00 -0.18604537078E+04  0.18604537078E+04  0.00000000000E+00 0. -1.
          6    2    1    2  501    0 -0.15116080011E+03  0.17964731289E+01 -0.14528907407E+04  0.14711027773E+04  0.17435326794E+03 0.  0.
         24    2    3    3    0    0  0.50454942022E+01  0.84782000689E+01 -0.52491989053E+03  0.53004112114E+03  0.72837914123E+02 0.  0.
         -6    2    1    2    0  502  0.15116080011E+03 -0.17964731289E+01 -0.36543511628E+03  0.43147878132E+03  0.17256390038E+03 0.  0.
        -24    2    5    5    0    0  0.17234476692E+03  0.15762904291E+02 -0.34235806500E+03  0.39526093377E+03  0.95241657183E+02 0.  0.
          5    1    3    3  501    0 -0.15620629431E+03 -0.66817269400E+01 -0.92797085018E+03  0.94106165614E+03  0.47000000000E+01 0. -1.
        -11    1    4    4    0    0  0.95834257785E+01  0.33055598360E+02 -0.44442114535E+03  0.44575180209E+03  0.00000000000E+00 0.  1.
         12    1    4    4    0    0 -0.45379315763E+01 -0.24577398291E+02 -0.80498745180E+02  0.84289319047E+02  0.00000000000E+00 0. -1.
         -5    1    5    5    0  502 -0.21183966810E+02 -0.17559377420E+02 -0.23077051281E+02  0.36217847548E+02  0.47000000000E+01 0.  1.
         11    1    6    6    0    0  0.23915875982E+02  0.39769221981E+02 -0.66571455597E+02  0.81149977457E+02  0.00000000000E+00 0. -1.
        -12    1    6    6    0    0  0.14842889094E+03 -0.24006317690E+02 -0.27578660940E+03  0.31411095632E+03  0.00000000000E+00 0.  1.
<mgrwt>
<rscale>  2 0.23042570E+03</rscale>
<asrwt>0</asrwt>
<pdfrwt beam="1">  1       21 0.64812083E-02 0.23076368E+03</pdfrwt>
<pdfrwt beam="2">  1       21 0.28622363E+00 0.23076368E+03</pdfrwt>
<totfact> 0.68096465E+03</totfact>
</mgrwt>
</event>
<event>
12    1  0.1013215E-001  0.2389279E+03  0.7546771E-02  0.1120570E+00
         21   -1    0    0  501  502  0.00000000000E+00  0.00000000000E+00  0.62948894416E+02  0.62948894416E+02  0.00000000000E+00 0. -1.
         21   -1    0    0  502  503 -0.00000000000E+00 -0.00000000000E+00 -0.90991004103E+03  0.90991004103E+03  0.00000000000E+00 0.  1.
         -6    2    1    2    0  503  0.14753860895E+03  0.74075430984E+02 -0.38989250816E+03  0.45727749951E+03  0.17271865282E+03 0.  0.
        -24    2    3    3    0    0  0.94675894875E+02  0.11146202370E+03 -0.28711635648E+03  0.33571578182E+03  0.94244236982E+02 0.  0.
          6    2    1    2  501    0 -0.14753860895E+03 -0.74075430984E+02 -0.45706863845E+03  0.51558143594E+03  0.17221401284E+03 0.  0.
         24    2    5    5    0    0 -0.49352086982E+02 -0.10066359871E+03 -0.26475494019E+03  0.29797129762E+03  0.78249135812E+02 0.  0.
          5    1    5    5  501    0 -0.98186521967E+02  0.26588167727E+02 -0.19231369827E+03  0.21761013832E+03  0.47000000000E+01 0. -1.
        -13    1    6    6    0    0 -0.49422278205E+02 -0.34729279258E+02 -0.18432335845E+03  0.19396851521E+03  0.00000000000E+00 0.  1.
         14    1    6    6    0    0  0.70191223513E-01 -0.65934319453E+02 -0.80431581734E+02  0.10400278241E+03  0.00000000000E+00 0. -1.
         -5    1    3    3    0  503  0.52862714074E+02 -0.37386592715E+02 -0.10277615168E+03  0.12156171769E+03  0.47000000000E+01 0.  1.
         11    1    4    4    0    0  0.47608000077E+02  0.82474368954E+02 -0.90121928098E+02  0.13111256664E+03  0.00000000000E+00 0. -1.
        -12    1    4    4    0    0  0.47067894798E+02  0.28987654745E+02 -0.19699442839E+03  0.20460321518E+03  0.00000000000E+00 0.  1.
<mgrwt>
<rscale>  2 0.23883672E+03</rscale>
<asrwt>0</asrwt>
<pdfrwt beam="1">  1       21 0.96844450E-02 0.23892790E+03</pdfrwt>
<pdfrwt beam="2">  1       21 0.13998616E+00 0.23892790E+03</pdfrwt>
<totfact> 0.29931665E+04</totfact>
</mgrwt>
</event>
<event>
12    1  0.1013215E-001  0.2358487E+03  0.7546771E-02  0.1126270E+00
         21   -1    0    0  501  502  0.00000000000E+00  0.00000000000E+00  0.19866255937E+03  0.19866255937E+03  0.00000000000E+00 0.  1.
         21   -1    0    0  502  503 -0.00000000000E+00 -0.00000000000E+00 -0.31404209965E+03  0.31404209965E+03  0.00000000000E+00 0.  1.
         -6    2    1    2    0  503 -0.63088356896E+02  0.13092008740E+03 -0.16556952961E+03  0.27157470411E+03  0.15880598451E+03 0.  0.
        -24    2    3    3    0    0 -0.32145139727E+02  0.11034347297E+03 -0.47242575969E+02  0.14746089461E+03  0.79396866554E+02 0.  0.
          6    2    1    2  501    0  0.63088356896E+02 -0.13092008740E+03  0.50189989337E+02  0.24112995491E+03  0.18575362733E+03 0.  0.
         24    2    5    5    0    0  0.10897946884E+03 -0.90363769355E+02  0.69242960035E+02  0.17681887670E+03  0.80176007645E+02 0.  0.
          5    1    5    5  501    0 -0.45891111943E+02 -0.40556318043E+02 -0.19052970699E+02  0.64311078213E+02  0.47000000000E+01 0. -1.
        -13    1    6    6    0    0  0.27905566034E+02 -0.75161925324E+02  0.32290834200E+02  0.86433405622E+02  0.00000000000E+00 0.  1.
         14    1    6    6    0    0  0.81073902804E+02 -0.15201844031E+02  0.36952125835E+02  0.90385471076E+02  0.00000000000E+00 0. -1.
         -5    1    3    3    0  503 -0.30943217169E+02  0.20576614423E+02 -0.11832695365E+03  0.12411380950E+03  0.47000000000E+01 0.  1.
         11    1    4    4    0    0  0.45815365181E+01  0.83551040209E+02 -0.56633628549E+02  0.10104026267E+03  0.00000000000E+00 0. -1.
        -12    1    4    4    0    0 -0.36726676245E+02  0.26792432766E+02  0.93910525802E+01  0.46420631944E+02  0.00000000000E+00 0.  1.
<mgrwt>
<rscale>  2 0.23052558E+03</rscale>
<asrwt>0</asrwt>
<pdfrwt beam="1">  1       21 0.30563471E-01 0.23584872E+03</pdfrwt>
<pdfrwt beam="2">  1       21 0.48314169E-01 0.23584872E+03</pdfrwt>
<totfact> 0.41188745E+04</totfact>
</mgrwt>
</event>
<event>
12    1  0.1013215E-001  0.1720293E+03  0.7546771E-02  0.1175974E+00
         21   -1    0    0  501  502  0.00000000000E+00  0.00000000000E+00  0.16863991053E+02  0.16863991053E+02  0.00000000000E+00 0. -1.
         21   -1    0    0  502  503 -0.00000000000E+00 -0.00000000000E+00 -0.17647332436E+04  0.17647332436E+04  0.00000000000E+00 0. -1.
         -6    2    1    2    0  503 -0.18677898188E+01  0.51485730660E+01 -0.78420619492E+03  0.80285331283E+03  0.17194211040E+03 0.  0.
        -24    2    3    3    0    0 -0.64790189706E+02  0.24100802433E+02 -0.48065237752E+03  0.49223228093E+03  0.80543733505E+02 0.  0.
          6    2    1    2  501    0  0.18677898188E+01 -0.51485730660E+01 -0.96366305765E+03  0.97874392184E+03  0.17106483983E+03 0.  0.
         24    2    5    5    0    0 -0.50282911991E+02  0.35493409466E+02 -0.66873360855E+03  0.67645773891E+03  0.81254415144E+02 0.  0.
          5    1    5    5  501    0  0.52150701810E+02 -0.40641982532E+02 -0.29492944910E+03  0.30228618293E+03  0.47000000000E+01 0. -1.
        -13    1    6    6    0    0 -0.21062577708E+02  0.97225875847E+01 -0.37996686400E+02  0.44518637293E+02  0.00000000000E+00 0.  1.
         14    1    6    6    0    0 -0.29220334283E+02  0.25770821882E+02 -0.63073692215E+03  0.63193910162E+03  0.00000000000E+00 0. -1.
         -5    1    3    3    0  503  0.62922399888E+02 -0.18952229367E+02 -0.30355381740E+03  0.31062103191E+03  0.47000000000E+01 0.  1.
         13    1    4    4    0    0 -0.10762082673E+02  0.43707825506E+02 -0.27663980276E+03  0.28027803500E+03  0.00000000000E+00 0. -1.
        -14    1    4    4    0    0 -0.54028107033E+02 -0.19607023073E+02 -0.20401257476E+03  0.21195424592E+03  0.00000000000E+00 0.  1.
<mgrwt>
<rscale>  2 0.17180969E+03</rscale>
<asrwt>0</asrwt>
<pdfrwt beam="1">  1       21 0.25944595E-02 0.17202932E+03</pdfrwt>
<pdfrwt beam="2">  1       21 0.27149749E+00 0.17202932E+03</pdfrwt>
<totfact> 0.40800493E+04</totfact>
</mgrwt>
</event>
<event>
12    1  0.1013215E-001  0.3039020E+03  0.7546771E-02  0.1083333E+00
         21   -1    0    0  501  502  0.00000000000E+00  0.00000000000E+00  0.20505864753E+04  0.20505864753E+04  0.00000000000E+00 0. -1.
         21   -1    0    0  502  503 -0.00000000000E+00 -0.00000000000E+00 -0.74619531571E+02  0.74619531571E+02  0.00000000000E+00 0. -1.
         -6    2    1    2    0  503  0.20358611805E+03  0.14483926339E+03  0.31837674123E+03  0.43998742027E+03  0.17262520371E+03 0.  0.
        -24    2    3    3    0    0  0.22769996625E+03  0.13910662570E+03  0.29181049777E+03  0.40335142566E+03  0.79630886155E+02 0.  0.
          6    2    1    2  501    0 -0.20358611805E+03 -0.14483926339E+03  0.16575902025E+04  0.16852185866E+04  0.17300487138E+03 0.  0.
         24    2    5    5    0    0 -0.56882451127E+02 -0.30621747954E+02  0.32294370537E+03  0.33767601992E+03  0.74559727036E+02 0.  0.
          5    1    5    5  501    0 -0.14670366692E+03 -0.11421751544E+03  0.13346464972E+04  0.13475425667E+04  0.47000000000E+01 0. -1.
        -13    1    6    6    0    0 -0.22161207101E+02 -0.66657132492E+01  0.26497384331E+03  0.26598249655E+03  0.00000000000E+00 0.  1.
         14    1    6    6    0    0 -0.34721244026E+02 -0.23956034705E+02  0.57969862062E+02  0.71693523369E+02  0.00000000000E+00 0. -1.
         -5    1    3    3    0  503 -0.24113848195E+02  0.57326376947E+01  0.26566243455E+02  0.36635994609E+02  0.47000000000E+01 0.  1.
         11    1    4    4    0    0  0.88797842451E+02  0.10967715343E+02  0.94984497047E+02  0.13048908875E+03  0.00000000000E+00 0. -1.
        -12    1    4    4    0    0  0.13890212380E+03  0.12813891035E+03  0.19682600073E+03  0.27286233691E+03  0.00000000000E+00 0.  1.
<mgrwt>
<rscale>  2 0.30384796E+03</rscale>
<asrwt>0</asrwt>
<pdfrwt beam="1">  1       21 0.31547480E+00 0.30390197E+03</pdfrwt>
<pdfrwt beam="2">  1       21 0.11479929E-01 0.30390197E+03</pdfrwt>
<totfact> 0.15720711E+03</totfact>
</mgrwt>
</event>
<event>
12    1  0.1013215E-001  0.2327538E+03  0.7546771E-02  0.1125447E+00
         21   -1    0    0  503  502  0.00000000000E+00  0.00000000000E+00  0.77904082140E+03  0.77904082140E+03  0.00000000000E+00 0.  1.
         21   -1    0    0  501  503 -0.00000000000E+00 -0.00000000000E+00 -0.83282815503E+02  0.83282815503E+02  0.00000000000E+00 0. -1.
          6    2    1    2  501    0 -0.50443363218E+02 -0.14573895924E+03  0.16757975621E+03  0.28680532810E+03  0.17432711895E+03 0.  0.
         24    2    3    3    0    0 -0.76219686371E+02 -0.76109760027E+02  0.16435158513E+03  0.21233952852E+03  0.80464250930E+02 0.  0.
         -6    2    1    2    0  502  0.50443363218E+02  0.14573895924E+03  0.52817824968E+03  0.57551830879E+03  0.16871479837E+03 0.  0.
        -24    2    5    5    0    0  0.23683766378E+02  0.16828233707E+03  0.48215606103E+03  0.51751475929E+03  0.80418860572E+02 0.  0.
          5    1    3    3  501    0  0.25776323153E+02 -0.69629199215E+02  0.32281710869E+01  0.74465799581E+02  0.47000000000E+01 0. -1.
        -13    1    4    4    0    0 -0.43008796844E+02 -0.79670033057E+01  0.11193365458E+03  0.12017642354E+03  0.00000000000E+00 0.  1.
         14    1    4    4    0    0 -0.33210889527E+02 -0.68142756721E+02  0.52417930544E+02  0.92163104979E+02  0.00000000000E+00 0. -1.
         -5    1    5    5    0  502  0.26759596840E+02 -0.22543377830E+02  0.46022188650E+02  0.58003549505E+02  0.47000000000E+01 0.  1.
         13    1    6    6    0    0  0.31987110649E+02  0.14451710563E+03  0.30994949654E+03  0.34347788789E+03  0.00000000000E+00 0. -1.
        -14    1    6    6    0    0 -0.83033442709E+01  0.23765231440E+02  0.17220656449E+03  0.17403687140E+03  0.00000000000E+00 0.  1.
<mgrwt>
<rscale>  2 0.23170338E+03</rscale>
<asrwt>0</asrwt>
<pdfrwt beam="1">  1       21 0.11985243E+00 0.23275378E+03</pdfrwt>
<pdfrwt beam="2">  1       21 0.12812741E-01 0.23275378E+03</pdfrwt>
<totfact> 0.27013639E+04</totfact>
</mgrwt>
</event>
<event>
12    1  0.1013215E-001  0.3557160E+03  0.7546771E-02  0.1060446E+00
         21   -1    0    0  501  502  0.00000000000E+00  0.00000000000E+00  0.10933797210E+04  0.10933797210E+04  0.00000000000E+00 0. -1.
         21   -1    0    0  502  503 -0.00000000000E+00 -0.00000000000E+00 -0.30379226949E+03  0.30379226949E+03  0.00000000000E+00 0.  1.
         -6    2    1    2    0  503  0.24447664865E+03  0.18802951171E+03 -0.15525527595E+03  0.38812124238E+03  0.17722857859E+03 0.  0.
        -24    2    3    3    0    0  0.38084329835E+02  0.85100184996E+02 -0.72128835591E+02  0.14291861056E+03  0.80812762953E+02 0.  0.
          6    2    1    2  501    0 -0.24447664865E+03 -0.18802951171E+03  0.94484272746E+03  0.10090507481E+04  0.17415999436E+03 0.  0.
         24    2    5    5    0    0 -0.82181766183E+02 -0.27679783902E+02  0.22823882510E+03  0.25699030709E+03  0.80193787321E+02 0.  0.
          5    1    5    5  501    0 -0.16229488247E+03 -0.16034972781E+03  0.71660390237E+03  0.75206044104E+03  0.47000000000E+01 0. -1.
        -11    1    6    6    0    0 -0.57515930235E+02 -0.54747237604E+02  0.13230660259E+03  0.15430612219E+03  0.00000000000E+00 0.  1.
         12    1    6    6    0    0 -0.24665835947E+02  0.27067453702E+02  0.95932222506E+02  0.10268418490E+03  0.00000000000E+00 0. -1.
         -5    1    3    3    0  503  0.20639231881E+03  0.10292932672E+03 -0.83126440357E+02  0.24520263182E+03  0.47000000000E+01 0.  1.
         11    1    4    4    0    0 -0.97616211385E+01  0.52923868999E+02 -0.44375873865E+01  0.53999234614E+02  0.00000000000E+00 0. -1.
        -12    1    4    4    0    0  0.47845950973E+02  0.32176315997E+02 -0.67691248204E+02  0.88919375949E+02  0.00000000000E+00 0.  1.
<mgrwt>
<rscale>  2 0.35533571E+03</rscale>
<asrwt>0</asrwt>
<pdfrwt beam="1">  1       21 0.16821226E+00 0.35571604E+03</pdfrwt>
<pdfrwt beam="2">  1       21 0.46737273E-01 0.35571604E+03</pdfrwt>
<totfact> 0.84632542E+02</totfact>
</mgrwt>
</event>
<event>
12    1  0.1013215E-001  0.1761271E+03  0.7546771E-02  0.1172201E+00
         21   -1    0    0  503  502  0.00000000000E+00  0.00000000000E+00  0.32144004941E+03  0.32144004941E+03  0.00000000000E+00 0. -1.
         21   -1    0    0  501  503 -0.00000000000E+00 -0.00000000000E+00 -0.38519180456E+03  0.38519180456E+03  0.00000000000E+00 0. -1.
          6    2    1    2  501    0  0.13511593948E+02 -0.29133239541E+02 -0.33837852654E+03  0.38037948682E+03  0.17075484753E+03 0.  0.
         24    2    3    3    0    0  0.73071104339E+02 -0.56618204992E+01 -0.20169224444E+03  0.22937129994E+03  0.80993760681E+02 0.  0.
         -6    2    1    2    0  502 -0.13511593948E+02  0.29133239541E+02  0.27462677140E+03  0.32625236714E+03  0.17317457861E+03 0.  0.
        -24    2    5    5    0    0  0.37462899788E+02 -0.21489397106E+02  0.21244943734E+03  0.23112528780E+03  0.80117864341E+02 0.  0.
          5    1    3    3  501    0 -0.59559510392E+02 -0.23471419042E+02 -0.13668628211E+03  0.15100818688E+03  0.47000000000E+01 0. -1.
        -11    1    4    4    0    0 -0.11766339895E+02 -0.16431282326E+02 -0.19389997979E+02  0.28007245759E+02  0.00000000000E+00 0.  1.
         12    1    4    4    0    0  0.84837444235E+02  0.10769461826E+02 -0.18230224646E+03  0.20136405418E+03  0.00000000000E+00 0. -1.
         -5    1    5    5    0  502 -0.50974493736E+02  0.50622636647E+02  0.62177334058E+02  0.95127079338E+02  0.47000000000E+01 0.  1.
         11    1    6    6    0    0  0.27827114648E+02 -0.44588023403E+02  0.76025946432E+02  0.92425021891E+02  0.00000000000E+00 0. -1.
        -12    1    6    6    0    0  0.96357851399E+01  0.23098626297E+02  0.13642349091E+03  0.13870026591E+03  0.00000000000E+00 0.  1.
<mgrwt>
<rscale>  2 0.17552938E+03</rscale>
<asrwt>0</asrwt>
<pdfrwt beam="1">  1       21 0.49452315E-01 0.17612707E+03</pdfrwt>
<pdfrwt beam="2">  1       21 0.59260277E-01 0.17612707E+03</pdfrwt>
<totfact> 0.10494683E+04</totfact>
</mgrwt>
</event>
<event>
12    1  0.1013215E-001  0.1916598E+03  0.7546771E-02  0.1157141E+00
         21   -1    0    0  501  502  0.00000000000E+00  0.00000000000E+00  0.20446392925E+03  0.20446392925E+03  0.00000000000E+00 0.  1.
         21   -1    0    0  502  503 -0.00000000000E+00 -0.00000000000E+00 -0.24620625221E+03  0.24620625221E+03  0.00000000000E+00 0.  1.
         -6    2    1    2    0  503  0.27633456437E+02 -0.76556024113E+02 -0.13867142326E+03  0.23656549603E+03  0.17351955954E+03 0.  0.
        -24    2    3    3    0    0 -0.41409534021E+02 -0.47343741639E+02 -0.12350126746E+03  0.15993315556E+03  0.79811476647E+02 0.  0.
          6    2    1    2  501    0 -0.27633456437E+02  0.76556024113E+02  0.96929100303E+02  0.21410468542E+03  0.17268796453E+03 0.  0.
         24    2    5    5    0    0 -0.70252049492E+02  0.11623454188E+02  0.83476990805E+02  0.13513866513E+03  0.78889769136E+02 0.  0.
          5    1    5    5  501    0  0.42618593056E+02  0.64932569924E+02  0.13452109498E+02  0.78966020293E+02  0.47000000000E+01 0. -1.
        -11    1    6    6    0    0 -0.53994409796E+02  0.40730312021E+02  0.34591035721E+02  0.75966402830E+02  0.00000000000E+00 0.  1.
         12    1    6    6    0    0 -0.16257639696E+02 -0.29106857833E+02  0.48885955084E+02  0.59172262302E+02  0.00000000000E+00 0. -1.
         -5    1    3    3    0  503  0.69042990458E+02 -0.29212282473E+02 -0.15170155801E+02  0.76632340469E+02  0.47000000000E+01 0.  1.
         13    1    4    4    0    0 -0.45152729379E+02  0.34843650164E+01 -0.32883411809E+02  0.55966316139E+02  0.00000000000E+00 0. -1.
        -14    1    4    4    0    0  0.37431953571E+01 -0.50828106656E+02 -0.90617855649E+02  0.10396683943E+03  0.00000000000E+00 0.  1.
<mgrwt>
<rscale>  2 0.19147136E+03</rscale>
<asrwt>0</asrwt>
<pdfrwt beam="1">  1       21 0.31455989E-01 0.19165978E+03</pdfrwt>
<pdfrwt beam="2">  1       21 0.37877885E-01 0.19165978E+03</pdfrwt>
<totfact> 0.65324204E+04</totfact>
</mgrwt>
</event>
<event>
12    1  0.1013215E-001  0.1826498E+03  0.7546771E-02  0.1165287E+00
         21   -1    0    0  501  502  0.00000000000E+00  0.00000000000E+00  0.29195711919E+03  0.29195711919E+03  0.00000000000E+00 0.  1.
         21   -1    0    0  502  503 -0.00000000000E+00 -0.00000000000E+00 -0.22641722775E+03  0.22641722775E+03  0.00000000000E+00 0.  1.
         -6    2    1    2    0  503  0.47064273168E+02  0.33545245177E+02 -0.14969226729E+03  0.23615400455E+03  0.17326456561E+03 0.  0.
        -24    2    3    3    0    0 -0.23886762330E+02  0.70766179764E+02 -0.68781033154E+02  0.12218837280E+03  0.67976012778E+02 0.  0.
          6    2    1    2  501    0 -0.47064273168E+02 -0.33545245177E+02  0.21523215872E+03  0.28222034239E+03  0.17315631732E+03 0.  0.
         24    2    5    5    0    0 -0.80125403889E+02 -0.23445097040E+02  0.78761731761E+02  0.14136112618E+03  0.82521540711E+02 0.  0.
          5    1    5    5  501    0  0.33061130721E+02 -0.10100148137E+02  0.13647042696E+03  0.14085921621E+03  0.47000000000E+01 0. -1.
        -11    1    6    6    0    0 -0.24001825606E+02 -0.34622349138E+02 -0.22358079692E+01  0.42187599238E+02  0.00000000000E+00 0.  1.
         12    1    6    6    0    0 -0.56123578283E+02  0.11177252097E+02  0.80997539730E+02  0.99173526942E+02  0.00000000000E+00 0. -1.
         -5    1    3    3    0  503  0.70951035498E+02 -0.37220934587E+02 -0.80911234136E+02  0.11396563175E+03  0.47000000000E+01 0.  1.
         11    1    4    4    0    0 -0.17308959660E+02  0.73366991819E+02 -0.79365069711E+02  0.10945834762E+03  0.00000000000E+00 0. -1.
        -12    1    4    4    0    0 -0.65778026701E+01 -0.26008120555E+01  0.10584036557E+02  0.12730025183E+02  0.00000000000E+00 0.  1.
<mgrwt>
<rscale>  2 0.18262410E+03</rscale>
<asrwt>0</asrwt>
<pdfrwt beam="1">  1       21 0.44916480E-01 0.18264977E+03</pdfrwt>
<pdfrwt beam="2">  1       21 0.34833420E-01 0.18264977E+03</pdfrwt>
<totfact> 0.37980386E+04</totfact>
</mgrwt>
</event>
<event>
12    1  0.1013215E-001  0.2278203E+03  0.7546771E-02  0.1128660E+00
         21   -1    0    0  501  502  0.00000000000E+00  0.00000000000E+00  0.29585581003E+02  0.29585581003E+02  0.00000000000E+00 0.  1.
         21   -1    0    0  502  503 -0.00000000000E+00 -0.00000000000E+00 -0.17703385250E+04  0.17703385250E+04  0.00000000000E+00 0.  1.
         -6    2    1    2    0  503  0.92550851062E+02 -0.11326842169E+03 -0.74624511731E+03  0.78024601973E+03  0.17466161800E+03 0.  0.
        -24    2    3    3    0    0  0.89212242641E+02 -0.97834346564E+02 -0.74757619304E+03  0.76371668992E+03  0.82841019180E+02 0.  0.
          6    2    1    2  501    0 -0.92550851062E+02  0.11326842169E+03 -0.99450782672E+03  0.10196780863E+04  0.17117881561E+03 0.  0.
         24    2    5    5    0    0 -0.15470539866E+01  0.32352345873E+02 -0.59940128954E+03  0.60620454649E+03  0.84575283783E+02 0.  0.
          5    1    5    5  501    0 -0.91003797076E+02  0.80916075818E+02 -0.39510653718E+03  0.41347353981E+03  0.47000000000E+01 0. -1.
        -13    1    6    6    0    0  0.35245019537E+02  0.36423859241E+02 -0.41825691836E+03  0.42131669642E+03  0.00000000000E+00 0.  1.
         14    1    6    6    0    0 -0.36792073524E+02 -0.40715133684E+01 -0.18114437118E+03  0.18488785007E+03  0.00000000000E+00 0. -1.
         -5    1    3    3    0  503  0.33386084215E+01 -0.15434075127E+02  0.13310757282E+01  0.16529329805E+02  0.47000000000E+01 0.  1.
         13    1    4    4    0    0  0.34708820552E+02 -0.93978820898E+02 -0.52992867687E+03  0.53931542122E+03  0.00000000000E+00 0. -1.
        -14    1    4    4    0    0  0.54503422089E+02 -0.38555256665E+01 -0.21764751617E+03  0.22440126870E+03  0.00000000000E+00 0.  1.
<mgrwt>
<rscale>  2 0.22715258E+03</rscale>
<asrwt>0</asrwt>
<pdfrwt beam="1">  1       21 0.45516270E-02 0.22782027E+03</pdfrwt>
<pdfrwt beam="2">  1       21 0.27235982E+00 0.22782027E+03</pdfrwt>
<totfact> 0.15046654E+04</totfact>
</mgrwt>
</event>
<event>
12    1  0.1013215E-001  0.2122613E+03  0.7546771E-02  0.1139809E+00
         21   -1    0    0  503  502  0.00000000000E+00  0.00000000000E+00  0.44044951946E+02  0.44044951946E+02  0.00000000000E+00 0. -1.
         21   -1    0    0  501  503 -0.00000000000E+00 -0.00000000000E+00 -0.10972662167E+04  0.10972662167E+04  0.00000000000E+00 0. -1.
          6    2    1    2  501    0 -0.70081214413E+02  0.10089850944E+03 -0.67580698335E+03  0.70835720986E+03  0.17309815765E+03 0.  0.
         24    2    3    3    0    0 -0.19413605657E+02  0.12294301961E+03 -0.39327434172E+03  0.42043369467E+03  0.81289049737E+02 0.  0.
         -6    2    1    2    0  502  0.70081214413E+02 -0.10089850944E+03 -0.37741428139E+03  0.43295395878E+03  0.17296157032E+03 0.  0.
        -24    2    5    5    0    0  0.10145678266E+02 -0.32153274523E+02 -0.69481518655E+02  0.11176421395E+03  0.80788552630E+02 0.  0.
          5    1    3    3  501    0 -0.50667608755E+02 -0.22044510170E+02 -0.28253264164E+03  0.28792351518E+03  0.47000000000E+01 0. -1.
        -11    1    4    4    0    0 -0.77875308030E+01  0.20267491819E+02 -0.10805921810E+02  0.24252521659E+02  0.00000000000E+00 0.  1.
         12    1    4    4    0    0 -0.11626074854E+02  0.10267552779E+03 -0.38246841991E+03  0.39618117301E+03  0.00000000000E+00 0. -1.
         -5    1    5    5    0  502  0.59935536147E+02 -0.68745234913E+02 -0.30793276273E+03  0.32118974483E+03  0.47000000000E+01 0.  1.
         11    1    6    6    0    0  0.16255246330E+02  0.78141222794E+01  0.11402325027E+02  0.21337913588E+02  0.00000000000E+00 0. -1.
        -12    1    6    6    0    0 -0.61095680640E+01 -0.39967396802E+02 -0.80883843682E+02  0.90426300366E+02  0.00000000000E+00 0.  1.
<mgrwt>
<rscale>  2 0.21223345E+03</rscale>
<asrwt>0</asrwt>
<pdfrwt beam="1">  1       21 0.67761466E-02 0.21226130E+03</pdfrwt>
<pdfrwt beam="2">  1       21 0.16881018E+00 0.21226130E+03</pdfrwt>
<totfact> 0.34377264E+04</totfact>
</mgrwt>
</event>
<event>
12    1  0.1013215E-001  0.1860539E+03  0.7546771E-02  0.1162196E+00
         21   -1    0    0  503  502  0.00000000000E+00  0.00000000000E+00  0.86449180595E+02  0.86449180595E+02  0.00000000000E+00 0.  1.
         21   -1    0    0  501  503 -0.00000000000E+00 -0.00000000000E+00 -0.45807091698E+03  0.45807091698E+03  0.00000000000E+00 0.  1.
          6    2    1    2  501    0  0.64853887864E+02  0.19694594439E+02 -0.28313734308E+03  0.33849695692E+03  0.17268332570E+03 0.  0.
         24    2    3    3    0    0  0.84988793111E+02 -0.37807669772E+02 -0.16983323403E+03  0.20976531386E+03  0.80657576625E+02 0.  0.
         -6    2    1    2    0  502 -0.64853887864E+02 -0.19694594439E+02 -0.88484393304E+02  0.20602314066E+03  0.17326898974E+03 0.  0.
        -24    2    5    5    0    0 -0.90828276470E+01  0.36590692936E+02  0.55437574121E+00  0.86740127927E+02  0.78116361236E+02 0.  0.
          5    1    3    3  501    0 -0.20134905247E+02  0.57502264211E+02 -0.11330410905E+03  0.12873164306E+03  0.47000000000E+01 0. -1.
        -11    1    4    4    0    0  0.74971429342E+02  0.51536247495E+01 -0.13085494281E+03  0.15089828072E+03  0.00000000000E+00 0.  1.
         12    1    4    4    0    0  0.10017363768E+02 -0.42961294521E+02 -0.38978291222E+02  0.58867033138E+02  0.00000000000E+00 0. -1.
         -5    1    5    5    0  502 -0.55771060217E+02 -0.56285287375E+02 -0.89038769045E+02  0.11928301273E+03  0.47000000000E+01 0.  1.
         13    1    6    6    0    0  0.14230209998E+02  0.13289014098E+02  0.34379980443E+02  0.39510502750E+02  0.00000000000E+00 0. -1.
        -14    1    6    6    0    0 -0.23313037645E+02  0.23301678839E+02 -0.33825604702E+02  0.47229625177E+02  0.00000000000E+00 0.  1.
<mgrwt>
<rscale>  2 0.18591741E+03</rscale>
<asrwt>0</asrwt>
<pdfrwt beam="1">  1       21 0.13299874E-01 0.18605388E+03</pdfrwt>
<pdfrwt beam="2">  1       21 0.70472448E-01 0.18605388E+03</pdfrwt>
<totfact> 0.89297128E+04</totfact>
</mgrwt>
</event>
<event>
12    1  0.1013215E-001  0.3178059E+03  0.7546771E-02  0.1076792E+00
         21   -1    0    0  503  502  0.00000000000E+00  0.00000000000E+00  0.97490082950E+03  0.97490082950E+03  0.00000000000E+00 0. -1.
         21   -1    0    0  501  503 -0.00000000000E+00 -0.00000000000E+00 -0.14074934115E+03  0.14074934115E+03  0.00000000000E+00 0.  1.
          6    2    1    2  501    0  0.10374451405E+03 -0.24450815354E+03  0.12964289643E+03  0.34323155680E+03  0.17450919645E+03 0.  0.
         24    2    3    3    0    0  0.88844335997E+02 -0.26441843363E+03  0.10704098442E+03  0.30929969882E+03  0.79988169545E+02 0.  0.
         -6    2    1    2    0  502 -0.10374451405E+03  0.24450815354E+03  0.70450859193E+03  0.77241861385E+03  0.17248477491E+03 0.  0.
        -24    2    5    5    0    0 -0.95905392701E+02  0.10389660216E+03  0.48462444068E+03  0.51125929432E+03  0.80826166781E+02 0.  0.
          5    1    3    3  501    0  0.14900178057E+02  0.19910280085E+02  0.22601912011E+02  0.33931857977E+02  0.47000000000E+01 0. -1.
        -13    1    4    4    0    0  0.80597209840E+01 -0.55209586046E+01 -0.99406680658E+01  0.13937609833E+02  0.00000000000E+00 0.  1.
         14    1    4    4    0    0  0.80784615013E+02 -0.25889747502E+03  0.11698165248E+03  0.29536208899E+03  0.00000000000E+00 0. -1.
         -5    1    5    5    0  502 -0.78391213526E+01  0.14061155138E+03  0.21988415125E+03  0.26115931953E+03  0.47000000000E+01 0.  1.
         13    1    6    6    0    0 -0.94967233401E+02  0.59116506042E+02  0.27457836211E+03  0.29649083232E+03  0.00000000000E+00 0. -1.
        -14    1    6    6    0    0 -0.93815930011E+00  0.44780096119E+02  0.21004607857E+03  0.21476846201E+03  0.00000000000E+00 0.  1.
<mgrwt>
<rscale>  2 0.31752881E+03</rscale>
<asrwt>0</asrwt>
<pdfrwt beam="1">  1       21 0.14998474E+00 0.31780595E+03</pdfrwt>
<pdfrwt beam="2">  1       21 0.21653745E-01 0.31780595E+03</pdfrwt>
<totfact> 0.54805179E+03</totfact>
</mgrwt>
</event>
<event>
12    1  0.1013215E-001  0.2397834E+03  0.7546771E-02  0.1119999E+00
         21   -1    0    0  501  502  0.00000000000E+00  0.00000000000E+00  0.29477945794E+02  0.29477945794E+02  0.00000000000E+00 0. -1.
         21   -1    0    0  502  503 -0.00000000000E+00 -0.00000000000E+00 -0.19803837655E+04  0.19803837655E+04  0.00000000000E+00 0. -1.
         -6    2    1    2    0  503 -0.65330722250E+02 -0.15238745223E+03 -0.11057826962E+04  0.11314819787E+04  0.17322256788E+03 0.  0.
        -24    2    3    3    0    0 -0.72980000374E+02 -0.17279536079E+03 -0.10726469276E+04  0.10915437345E+04  0.75577615074E+02 0.  0.
          6    2    1    2  501    0  0.65330722250E+02  0.15238745223E+03 -0.84512312345E+03  0.87837973254E+03  0.17270733016E+03 0.  0.
         24    2    5    5    0    0  0.67388981713E+02  0.22562686673E+02 -0.33077039245E+03  0.34787098797E+03  0.80961855612E+02 0.  0.
          5    1    5    5  501    0 -0.20582594635E+01  0.12982476556E+03 -0.51435273100E+03  0.53050874457E+03  0.47000000000E+01 0. -1.
        -13    1    6    6    0    0  0.54744356498E+02  0.28601281654E+02 -0.32777258192E+03  0.33354136675E+03  0.00000000000E+00 0.  1.
         14    1    6    6    0    0  0.12644625215E+02 -0.60385949808E+01 -0.29978105325E+01  0.14329621215E+02  0.00000000000E+00 0. -1.
         -5    1    3    3    0  503  0.76492781239E+01  0.20407908557E+02 -0.33135768609E+02  0.39938244188E+02  0.47000000000E+01 0.  1.
         13    1    4    4    0    0 -0.25914566616E+02 -0.31569142690E+02 -0.10774988715E+03  0.11523113170E+03  0.00000000000E+00 0. -1.
        -14    1    4    4    0    0 -0.47065433758E+02 -0.14122621810E+03 -0.96489704046E+03  0.97631260282E+03  0.00000000000E+00 0.  1.
<mgrwt>
<rscale>  2 0.23969040E+03</rscale>
<asrwt>0</asrwt>
<pdfrwt beam="1">  1       21 0.45350688E-02 0.23978344E+03</pdfrwt>
<pdfrwt beam="2">  1       21 0.30467441E+00 0.23978344E+03</pdfrwt>
<totfact> 0.97147352E+03</totfact>
</mgrwt>
</event>
<event>
12    1  0.1013215E-001  0.2442719E+03  0.7546771E-02  0.1117149E+00
         21   -1    0    0  503  502  0.00000000000E+00  0.00000000000E+00  0.55382043903E+03  0.55382043903E+03  0.00000000000E+00 0.  1.
         21   -1    0    0  501  503 -0.00000000000E+00 -0.00000000000E+00 -0.11508098483E+03  0.11508098483E+03  0.00000000000E+00 0. -1.
          6    2    1    2  501    0 -0.16578985801E+03 -0.47709719939E+02  0.13274147888E+03  0.27800909535E+03  0.17293427216E+03 0.  0.
         24    2    3    3    0    0 -0.14230566099E+03 -0.45089120537E+02  0.16607930851E+03  0.23687667584E+03  0.79020838408E+02 0.  0.
         -6    2    1    2    0  502  0.16578985801E+03  0.47709719939E+02  0.30599797531E+03  0.39089232850E+03  0.17146299073E+03 0.  0.
        -24    2    5    5    0    0  0.17818105984E+03  0.35982378667E+02  0.19578677478E+03  0.27926943148E+03  0.81337153394E+02 0.  0.
          5    1    3    3  501    0 -0.23484197016E+02 -0.26205994026E+01 -0.33337829623E+02  0.41132419509E+02  0.47000000000E+01 0. -1.
        -13    1    4    4    0    0 -0.14130598399E+03 -0.50138896155E+02  0.12424187928E+03  0.19472373914E+03  0.00000000000E+00 0.  1.
         14    1    4    4    0    0 -0.99967700270E+00  0.50497756179E+01  0.41837429230E+02  0.42152936701E+02  0.00000000000E+00 0. -1.
         -5    1    5    5    0  502 -0.12391201828E+02  0.11727341273E+02  0.11021120054E+03  0.11162289702E+03  0.47000000000E+01 0.  1.
         11    1    6    6    0    0  0.41918954201E+02 -0.24010500033E+02  0.65775309547E+02  0.81609400066E+02  0.00000000000E+00 0. -1.
        -12    1    6    6    0    0  0.13626210564E+03  0.59992878700E+02  0.13001146523E+03  0.19766003142E+03  0.00000000000E+00 0.  1.
<mgrwt>
<rscale>  2 0.24401163E+03</rscale>
<asrwt>0</asrwt>
<pdfrwt beam="1">  1       21 0.85203143E-01 0.24427189E+03</pdfrwt>
<pdfrwt beam="2">  1       21 0.17704767E-01 0.24427189E+03</pdfrwt>
<totfact> 0.33607192E+04</totfact>
</mgrwt>
</event>
<event>
12    1  0.1013215E-001  0.1894891E+03  0.7546771E-02  0.1159269E+00
         21   -1    0    0  501  502  0.00000000000E+00  0.00000000000E+00  0.32981526114E+03  0.32981526114E+03  0.00000000000E+00 0.  1.
         21   -1    0    0  502  503 -0.00000000000E+00 -0.00000000000E+00 -0.12227124129E+03  0.12227124129E+03  0.00000000000E+00 0.  1.
         -6    2    1    2    0  503  0.62864210265E+02 -0.39825576891E+02  0.26898735072E+02  0.19138874519E+03  0.17426452402E+03 0.  0.
        -24    2    3    3    0    0  0.40876528133E+02 -0.14036871963E+02  0.84396562768E+02  0.12448130423E+03  0.80652904275E+02 0.  0.
          6    2    1    2  501    0 -0.62864210265E+02  0.39825576891E+02  0.18064528477E+03  0.26069775723E+03  0.17260537711E+03 0.  0.
         24    2    5    5    0    0 -0.87545197896E+02  0.41558182828E+02  0.68922564824E+02  0.14617173737E+03  0.84997721311E+02 0.  0.
          5    1    5    5  501    0  0.24680987631E+02 -0.17326059370E+01  0.11172271995E+03  0.11452601987E+03  0.47000000000E+01 0. -1.
        -11    1    6    6    0    0 -0.81088824053E+02  0.21898739945E+02  0.85352506342E+02  0.11974974963E+03  0.00000000000E+00 0.  1.
         12    1    6    6    0    0 -0.64563738432E+01  0.19659442883E+02 -0.16429941518E+02  0.26421987737E+02  0.00000000000E+00 0. -1.
         -5    1    3    3    0  503  0.21987682132E+02 -0.25788704928E+02 -0.57497827696E+02  0.66907440969E+02  0.47000000000E+01 0.  1.
         11    1    4    4    0    0  0.36368198858E+02 -0.46324304786E+02  0.55097215504E+02  0.80649180147E+02  0.00000000000E+00 0. -1.
        -12    1    4    4    0    0  0.45083292750E+01  0.32287432823E+02  0.29299347263E+02  0.43832124078E+02  0.00000000000E+00 0.  1.
<mgrwt>
<rscale>  2 0.18910674E+03</rscale>
<asrwt>0</asrwt>
<pdfrwt beam="1">  1       21 0.50740809E-01 0.18948908E+03</pdfrwt>
<pdfrwt beam="2">  1       21 0.18810960E-01 0.18948908E+03</pdfrwt>
<totfact> 0.95730655E+04</totfact>
</mgrwt>
</event>
<event>
12    1  0.1013215E-001  0.1907469E+03  0.7546771E-02  0.1157924E+00
         21   -1    0    0  503  502  0.00000000000E+00  0.00000000000E+00  0.24295707351E+02  0.24295707351E+02  0.00000000000E+00 0.  1.
         21   -1    0    0  501  503 -0.00000000000E+00 -0.00000000000E+00 -0.15184376319E+04  0.15184376319E+04  0.00000000000E+00 0.  1.
          6    2    1    2  501    0 -0.80073921354E+02 -0.36556807234E+00 -0.64580634660E+03  0.67321758950E+03  0.17246483401E+03 0.  0.
         24    2    3    3    0    0  0.27926801960E+02 -0.88956327956E+01 -0.30248868632E+03  0.31318144672E+03  0.75658275608E+02 0.  0.
         -6    2    1    2    0  502  0.80073921354E+02  0.36556807234E+00 -0.84833557797E+03  0.86951574978E+03  0.17312544511E+03 0.  0.
        -24    2    5    5    0    0  0.66355055284E+02  0.46373557612E+02 -0.32965845696E+03  0.34860022088E+03  0.79334201621E+02 0.  0.
          5    1    3    3  501    0 -0.10800072331E+03  0.85300647232E+01 -0.34331766029E+03  0.36003614278E+03  0.47000000000E+01 0. -1.
        -13    1    4    4    0    0  0.20003270133E+02 -0.19183491182E+02 -0.29823060866E+03  0.29951566419E+03  0.00000000000E+00 0.  1.
         14    1    4    4    0    0  0.79235318275E+01  0.10287858387E+02 -0.42580776504E+01  0.13665782527E+02  0.00000000000E+00 0. -1.
         -5    1    5    5    0  502  0.13718866070E+02 -0.46007989539E+02 -0.51867712100E+03  0.52091552889E+03  0.47000000000E+01 0.  1.
         11    1    6    6    0    0  0.74413440141E+02  0.10019307130E+02 -0.19732716381E+03  0.21112971408E+03  0.00000000000E+00 0. -1.
        -12    1    6    6    0    0 -0.80583848570E+01  0.36354250481E+02 -0.13233129315E+03  0.13747050681E+03  0.00000000000E+00 0.  1.
<mgrwt>
<rscale>  2 0.19059689E+03</rscale>
<asrwt>0</asrwt>
<pdfrwt beam="1">  1       21 0.37378000E-02 0.19074692E+03</pdfrwt>
<pdfrwt beam="2">  1       21 0.23360586E+00 0.19074692E+03</pdfrwt>
<totfact> 0.36569586E+04</totfact>
</mgrwt>
</event>
<event>
12    1  0.1013215E-001  0.1984838E+03  0.7546771E-02  0.1151068E+00
         21   -1    0    0  503  502  0.00000000000E+00  0.00000000000E+00  0.74392125354E+03  0.74392125354E+03  0.00000000000E+00 0. -1.
         21   -1    0    0  501  503 -0.00000000000E+00 -0.00000000000E+00 -0.54835929917E+02  0.54835929917E+02  0.00000000000E+00 0. -1.
          6    2    1    2  501    0 -0.75648803470E+02  0.61458941152E+02  0.41935296611E+03  0.46386710492E+03  0.17267263225E+03 0.  0.
         24    2    3    3    0    0 -0.10009398930E+03  0.84251302046E+02  0.26867722254E+03  0.30945749212E+03  0.80370398331E+02 0.  0.
         -6    2    1    2    0  502  0.75648803470E+02 -0.61458941152E+02  0.26973235752E+03  0.33489007854E+03  0.17290424257E+03 0.  0.
        -24    2    5    5    0    0  0.20925406386E+02 -0.65065434867E+02  0.25775253853E+03  0.27855835526E+03  0.80541931410E+02 0.  0.
          5    1    3    3  501    0  0.24445185826E+02 -0.22792360894E+02  0.15067574357E+03  0.15440961281E+03  0.47000000000E+01 0. -1.
        -13    1    4    4    0    0 -0.12136316002E+02  0.36623945650E+02  0.24801360138E+02  0.45866229688E+02  0.00000000000E+00 0.  1.
         14    1    4    4    0    0 -0.87957673294E+02  0.47627356396E+02  0.24387586240E+03  0.26359126243E+03  0.00000000000E+00 0. -1.
         -5    1    5    5    0  502  0.54723397083E+02  0.36064937151E+01  0.11979818983E+02  0.56331723284E+02  0.47000000000E+01 0.  1.
         11    1    6    6    0    0  0.30661127349E+02 -0.76017397021E+02  0.24737692941E+03  0.26060332804E+03  0.00000000000E+00 0. -1.
        -12    1    6    6    0    0 -0.97357209625E+01  0.10951962154E+02  0.10375609122E+02  0.17955027216E+02  0.00000000000E+00 0.  1.
<mgrwt>
<rscale>  2 0.19843335E+03</rscale>
<asrwt>0</asrwt>
<pdfrwt beam="1">  1       21 0.11444942E+00 0.19848380E+03</pdfrwt>
<pdfrwt beam="2">  1       21 0.84362975E-02 0.19848380E+03</pdfrwt>
<totfact> 0.64698265E+04</totfact>
</mgrwt>
</event>
<event>
12    1  0.1013215E-001  0.1926419E+03  0.7546771E-02  0.1156622E+00
         21   -1    0    0  501  502  0.00000000000E+00  0.00000000000E+00  0.56933114815E+02  0.56933114815E+02  0.00000000000E+00 0. -1.
         21   -1    0    0  502  503 -0.00000000000E+00 -0.00000000000E+00 -0.15423981982E+04  0.15423981982E+04  0.00000000000E+00 0. -1.
         -6    2    1    2    0  503 -0.71327061705E+02  0.20633860371E+02 -0.13511558316E+04  0.13644912060E+04  0.17521662049E+03 0.  0.
        -24    2    3    3    0    0 -0.10855256394E+03  0.12524404774E+02 -0.12313992262E+04  0.12387325649E+04  0.78573488641E+02 0.  0.
          6    2    1    2  501    0  0.71327061705E+02 -0.20633860371E+02 -0.13430925177E+03  0.23484010698E+03  0.17775712310E+03 0.  0.
         24    2    5    5    0    0  0.73611143681E+02 -0.36402211179E+02 -0.17047668472E+02  0.11640773458E+03  0.80724322332E+02 0.  0.
          5    1    5    5  501    0 -0.22840819761E+01  0.15768350808E+02 -0.11726158330E+03  0.11843237241E+03  0.47000000000E+01 0. -1.
        -13    1    6    6    0    0  0.83043954673E+02 -0.46613783992E+02 -0.27376569274E+02  0.99088948985E+02  0.00000000000E+00 0.  1.
         14    1    6    6    0    0 -0.94328109924E+01  0.10211572813E+02  0.10328900802E+02  0.17318785590E+02  0.00000000000E+00 0. -1.
         -5    1    3    3    0  503  0.37225502233E+02  0.81094555970E+01 -0.11975660539E+03  0.12575864114E+03  0.47000000000E+01 0.  1.
         11    1    4    4    0    0 -0.85089728223E+02 -0.18530267908E+02 -0.10252103369E+04  0.10289022634E+04  0.00000000000E+00 0. -1.
        -12    1    4    4    0    0 -0.23462835714E+02  0.31054672681E+02 -0.20618888929E+03  0.20983030149E+03  0.00000000000E+00 0.  1.
<mgrwt>
<rscale>  2 0.19205379E+03</rscale>
<asrwt>0</asrwt>
<pdfrwt beam="1">  1       21 0.87589417E-02 0.19264190E+03</pdfrwt>
<pdfrwt beam="2">  1       21 0.23729201E+00 0.19264190E+03</pdfrwt>
<totfact> 0.81003790E+03</totfact>
</mgrwt>
</event>
<event>
12    1  0.1013215E-001  0.1851129E+03  0.7546771E-02  0.1164733E+00
         21   -1    0    0  501  502  0.00000000000E+00  0.00000000000E+00  0.33566533264E+03  0.33566533264E+03  0.00000000000E+00 0.  1.
         21   -1    0    0  502  503 -0.00000000000E+00 -0.00000000000E+00 -0.22343953497E+03  0.22343953497E+03  0.00000000000E+00 0.  1.
         -6    2    1    2    0  503  0.23684678182E+02  0.34224820651E+02 -0.15282475846E+03  0.24004625158E+03  0.18037320690E+03 0.  0.
        -24    2    3    3    0    0 -0.12538851166E+02  0.49354123435E+02 -0.15384949559E+02  0.97032857266E+02  0.81151872608E+02 0.  0.
          6    2    1    2  501    0 -0.23684678182E+02 -0.34224820651E+02  0.26505055613E+03  0.31905861604E+03  0.17266818131E+03 0.  0.
         24    2    5    5    0    0 -0.32736343839E+02 -0.66242898222E+02  0.90701448760E+02  0.14150076298E+03  0.79598513456E+02 0.  0.
          5    1    5    5  501    0  0.90516656566E+01  0.32018077571E+02  0.17434910737E+03  0.17755785306E+03  0.47000000000E+01 0. -1.
        -13    1    6    6    0    0 -0.42958292617E+02 -0.80233231440E+02  0.79713858925E+02  0.12098382386E+03  0.00000000000E+00 0.  1.
         14    1    6    6    0    0  0.10221948778E+02  0.13990333218E+02  0.10987589835E+02  0.20516939118E+02  0.00000000000E+00 0. -1.
         -5    1    3    3    0  503  0.36223529349E+02 -0.15129302784E+02 -0.13743980890E+03  0.14301339431E+03  0.47000000000E+01 0.  1.
         11    1    4    4    0    0 -0.52065326280E+01 -0.60419638754E+01 -0.36451928688E+02  0.37314292363E+02  0.00000000000E+00 0. -1.
        -12    1    4    4    0    0 -0.73323185384E+01  0.55396087311E+02  0.21066979129E+02  0.59718564903E+02  0.00000000000E+00 0.  1.
<mgrwt>
<rscale>  2 0.18320893E+03</rscale>
<asrwt>0</asrwt>
<pdfrwt beam="1">  1       21 0.51640820E-01 0.18511293E+03</pdfrwt>
<pdfrwt beam="2">  1       21 0.34375313E-01 0.18511293E+03</pdfrwt>
<totfact> 0.29166321E+04</totfact>
</mgrwt>
</event>
<event>
12    1  0.1013215E-001  0.2282596E+03  0.7546771E-02  0.1127893E+00
         21   -1    0    0  503  502  0.00000000000E+00  0.00000000000E+00  0.19837535886E+04  0.19837535886E+04  0.00000000000E+00 0. -1.
         21   -1    0    0  501  503 -0.00000000000E+00 -0.00000000000E+00 -0.43188169529E+02  0.43188169529E+02  0.00000000000E+00 0. -1.
          6    2    1    2  501    0 -0.10763245560E+03 -0.10328111732E+03  0.33542994963E+03  0.40565760161E+03  0.17260678995E+03 0.  0.
         24    2    3    3    0    0 -0.57020750032E+02 -0.10480759228E+03  0.32254979044E+03  0.35319939570E+03  0.80470171345E+02 0.  0.
         -6    2    1    2    0  502  0.10763245560E+03  0.10328111732E+03  0.16051354695E+04  0.16212841566E+04  0.17277356929E+03 0.  0.
        -24    2    5    5    0    0  0.60169403374E+02  0.10323968759E+03  0.14855927656E+04  0.14925779365E+04  0.80772773874E+02 0.  0.
          5    1    3    3  501    0 -0.50611705566E+02  0.15264749573E+01  0.12880159191E+02  0.52458205906E+02  0.47000000000E+01 0. -1.
        -11    1    4    4    0    0  0.81439287345E+01 -0.92580913582E+01  0.11451650651E+03  0.11517840985E+03  0.00000000000E+00 0.  1.
         12    1    4    4    0    0 -0.65164678767E+02 -0.95549500922E+02  0.20803328393E+03  0.23802098585E+03  0.00000000000E+00 0. -1.
         -5    1    5    5    0  502  0.47463052224E+02  0.41429732556E-01  0.11954270387E+03  0.12870622009E+03  0.47000000000E+01 0.  1.
         13    1    6    6    0    0  0.36300752281E+02  0.76885650353E+02  0.57112494547E+03  0.57741912956E+03  0.00000000000E+00 0. -1.
        -14    1    6    6    0    0  0.23868651093E+02  0.26354037238E+02  0.91446782014E+03  0.91515880690E+03  0.00000000000E+00 0.  1.
<mgrwt>
<rscale>  2 0.22822803E+03</rscale>
<asrwt>0</asrwt>
<pdfrwt beam="1">  1       21 0.30519279E+00 0.22825959E+03</pdfrwt>
<pdfrwt beam="2">  1       21 0.66443353E-02 0.22825959E+03</pdfrwt>
<totfact> 0.50729841E+03</totfact>
</mgrwt>
</event>
<event>
12    1  0.1013215E-001  0.1914422E+03  0.7546771E-02  0.1158141E+00
         21   -1    0    0  501  502  0.00000000000E+00  0.00000000000E+00  0.14885041705E+03  0.14885041705E+03  0.00000000000E+00 0. -1.
         21   -1    0    0  502  503 -0.00000000000E+00 -0.00000000000E+00 -0.24614913208E+03  0.24614913208E+03  0.00000000000E+00 0.  1.
         -6    2    1    2    0  503  0.47120059551E+02 -0.49240989067E+02 -0.18752341726E+02  0.18807043599E+03  0.17428099023E+03 0.  0.
        -24    2    3    3    0    0 -0.39835227056E+02 -0.23036708658E+01 -0.50139394790E+01  0.88194676139E+02  0.78492095756E+02 0.  0.
          6    2    1    2  501    0 -0.47120059551E+02  0.49240989067E+02 -0.78546373303E+02  0.20692911314E+03  0.17889983256E+03 0.  0.
         24    2    5    5    0    0 -0.53872392602E+02  0.59470203839E+02 -0.11850075512E+03  0.16487351348E+03  0.81865173624E+02 0.  0.
          5    1    5    5  501    0  0.67523330514E+01 -0.10229214772E+02  0.39954381822E+02  0.42055599666E+02  0.47000000000E+01 0. -1.
        -11    1    6    6    0    0  0.13996165071E+02  0.37999693543E+02 -0.61713987168E+02  0.73813857495E+02  0.00000000000E+00 0.  1.
         12    1    6    6    0    0 -0.67868557673E+02  0.21470510296E+02 -0.56786767957E+02  0.91059655984E+02  0.00000000000E+00 0. -1.
         -5    1    3    3    0  503  0.86955286606E+02 -0.46937318201E+02 -0.13738402247E+02  0.99875759847E+02  0.47000000000E+01 0.  1.
         11    1    4    4    0    0  0.11697970236E+02  0.23228378792E+02  0.11385778425E+02  0.28390773841E+02  0.00000000000E+00 0. -1.
        -12    1    4    4    0    0 -0.51533197292E+02 -0.25532049657E+02 -0.16399717904E+02  0.59803902299E+02  0.00000000000E+00 0.  1.
<mgrwt>
<rscale>  2 0.19035576E+03</rscale>
<asrwt>0</asrwt>
<pdfrwt beam="1">  1       21 0.22900065E-01 0.19144222E+03</pdfrwt>
<pdfrwt beam="2">  1       21 0.37869097E-01 0.19144222E+03</pdfrwt>
<totfact> 0.12040221E+05</totfact>
</mgrwt>
</event>
<event>
12    1  0.1013215E-001  0.2520379E+03  0.7546771E-02  0.1112390E+00
         21   -1    0    0  501  502  0.00000000000E+00  0.00000000000E+00  0.67464752558E+03  0.67464752558E+03  0.00000000000E+00 0. -1.
         21   -1    0    0  502  503 -0.00000000000E+00 -0.00000000000E+00 -0.13798565267E+03  0.13798565267E+03  0.00000000000E+00 0. -1.
         -6    2    1    2    0  503  0.15448880861E+03  0.10092195100E+03  0.36236753567E+02  0.25232217464E+03  0.16823003693E+03 0.  0.
        -24    2    3    3    0    0  0.11494018152E+03  0.11767223261E+03  0.71016181943E+02  0.19685719040E+03  0.81556456877E+02 0.  0.
          6    2    1    2  501    0 -0.15448880861E+03 -0.10092195100E+03  0.50042511934E+03  0.56031100361E+03  0.17167145517E+03 0.  0.
         24    2    5    5    0    0 -0.54573406979E+02 -0.28092118282E+02  0.35944788953E+03  0.37273717457E+03  0.77219117823E+02 0.  0.
          5    1    5    5  501    0 -0.99915401635E+02 -0.72829832719E+02  0.14097722981E+03  0.18757382904E+03  0.47000000000E+01 0. -1.
        -13    1    6    6    0    0 -0.43214580117E+02  0.21122030235E+02  0.17047829162E+03  0.17713409612E+03  0.00000000000E+00 0.  1.
         14    1    6    6    0    0 -0.11358826861E+02 -0.49214148517E+02  0.18896959792E+03  0.19560307845E+03  0.00000000000E+00 0. -1.
         -5    1    3    3    0  503  0.39548627088E+02 -0.16750281610E+02 -0.34779428376E+02  0.55464984240E+02  0.47000000000E+01 0.  1.
         13    1    4    4    0    0  0.83007419752E+01  0.26405875905E+02 -0.15745413293E+02  0.31844789832E+02  0.00000000000E+00 0. -1.
        -14    1    4    4    0    0  0.10663943955E+03  0.91266356707E+02  0.86761595237E+02  0.16501240057E+03  0.00000000000E+00 0.  1.
<mgrwt>
<rscale>  2 0.25145306E+03</rscale>
<asrwt>0</asrwt>
<pdfrwt beam="1">  1       21 0.10379192E+00 0.25203794E+03</pdfrwt>
<pdfrwt beam="2">  1       21 0.21228562E-01 0.25203794E+03</pdfrwt>
<totfact> 0.14969351E+04</totfact>
</mgrwt>
</event>
<event>
12    1  0.1013215E-001  0.1858741E+03  0.7546771E-02  0.1162549E+00
         21   -1    0    0  503  502  0.00000000000E+00  0.00000000000E+00  0.44866516279E+02  0.44866516279E+02  0.00000000000E+00 0. -1.
         21   -1    0    0  501  503 -0.00000000000E+00 -0.00000000000E+00 -0.77345347290E+03  0.77345347290E+03  0.00000000000E+00 0. -1.
          6    2    1    2  501    0 -0.19852192772E+02 -0.64368677993E+02 -0.32155967739E+03  0.37141592559E+03  0.17323893153E+03 0.  0.
         24    2    3    3    0    0  0.36654814175E+02 -0.88824689345E+02 -0.22119263807E+03  0.25357378157E+03  0.78358654440E+02 0.  0.
         -6    2    1    2    0  502  0.19852192772E+02  0.64368677993E+02 -0.40702727923E+03  0.44690406358E+03  0.17179813662E+03 0.  0.
        -24    2    5    5    0    0  0.56560633313E+02  0.90843775183E+02 -0.25343905266E+03  0.28671706749E+03  0.80768970798E+02 0.  0.
          5    1    3    3  501    0 -0.56507006947E+02  0.24456011353E+02 -0.10036703932E+03  0.11784214402E+03  0.47000000000E+01 0. -1.
        -13    1    4    4    0    0  0.14661505153E+02 -0.22597124018E+02 -0.63406462590E+01  0.27672974944E+02  0.00000000000E+00 0.  1.
         14    1    4    4    0    0  0.21993309022E+02 -0.66227565327E+02 -0.21485199181E+03  0.22590080663E+03  0.00000000000E+00 0. -1.
         -5    1    5    5    0  502 -0.36708440541E+02 -0.26475097191E+02 -0.15358822657E+03  0.16018699610E+03  0.47000000000E+01 0.  1.
         11    1    6    6    0    0  0.64095632272E+02  0.46725545402E+02 -0.20943123265E+03  0.22394858311E+03  0.00000000000E+00 0. -1.
        -12    1    6    6    0    0 -0.75349989589E+01  0.44118229781E+02 -0.44007820014E+02  0.62768484375E+02  0.00000000000E+00 0.  1.
<mgrwt>
<rscale>  2 0.18553761E+03</rscale>
<asrwt>0</asrwt>
<pdfrwt beam="1">  1       21 0.69025409E-02 0.18587405E+03</pdfrwt>
<pdfrwt beam="2">  1       21 0.11899284E+00 0.18587405E+03</pdfrwt>
<totfact> 0.83823946E+04</totfact>
</mgrwt>
</event>
<event>
12    1  0.1013215E-001  0.1791503E+03  0.7546771E-02  0.1168769E+00
         21   -1    0    0  501  502  0.00000000000E+00  0.00000000000E+00  0.17753898754E+03  0.17753898754E+03  0.00000000000E+00 0. -1.
         21   -1    0    0  502  503 -0.00000000000E+00 -0.00000000000E+00 -0.27001607897E+03  0.27001607897E+03  0.00000000000E+00 0. -1.
         -6    2    1    2    0  503 -0.42033495435E+02 -0.20976303137E+01 -0.17525445027E+03  0.25020532508E+03  0.17354356102E+03 0.  0.
        -24    2    3    3    0    0 -0.33415486585E+02 -0.59606212104E+02 -0.15740601176E+03  0.18919578638E+03  0.79679971014E+02 0.  0.
          6    2    1    2  501    0  0.42033495435E+02  0.20976303137E+01  0.82777358840E+02  0.19734974142E+03  0.17413676956E+03 0.  0.
         24    2    5    5    0    0  0.28190190412E+02 -0.66752504890E+02  0.63288223888E+02  0.12431622451E+03  0.78730811307E+02 0.  0.
          5    1    5    5  501    0  0.13843305022E+02  0.68850135204E+02  0.19489134952E+02  0.73033516913E+02  0.47000000000E+01 0. -1.
        -11    1    6    6    0    0 -0.12520613223E+02  0.10855894113E+02  0.21719225272E+02  0.27319241184E+02  0.00000000000E+00 0.  1.
         12    1    6    6    0    0  0.40710803635E+02 -0.77608399003E+02  0.41568998616E+02  0.96996983326E+02  0.00000000000E+00 0. -1.
         -5    1    3    3    0  503 -0.86180088498E+01  0.57508581790E+02 -0.17848438512E+02  0.61009538708E+02  0.47000000000E+01 0.  1.
         13    1    4    4    0    0 -0.37138334946E-01  0.16701627871E+02 -0.53398761796E+02  0.55949740965E+02  0.00000000000E+00 0. -1.
        -14    1    4    4    0    0 -0.33378348250E+02 -0.76307839974E+02 -0.10400724996E+03  0.13324604541E+03  0.00000000000E+00 0.  1.
<mgrwt>
<rscale>  2 0.17900599E+03</rscale>
<asrwt>0</asrwt>
<pdfrwt beam="1">  1       21 0.27313690E-01 0.17915030E+03</pdfrwt>
<pdfrwt beam="2">  1       21 0.41540935E-01 0.17915030E+03</pdfrwt>
<totfact> 0.71722167E+04</totfact>
</mgrwt>
</event>
<event>
12    1  0.1013215E-001  0.1756855E+03  0.7546771E-02  0.1172160E+00
         21   -1    0    0  503  502  0.00000000000E+00  0.00000000000E+00  0.13241362256E+03  0.13241362256E+03  0.00000000000E+00 0.  1.
         21   -1    0    0  501  503 -0.00000000000E+00 -0.00000000000E+00 -0.47835957738E+03  0.47835957738E+03  0.00000000000E+00 0.  1.
          6    2    1    2  501    0 -0.26458005372E+02  0.23108001131E+02 -0.39202239609E+03  0.42958930444E+03  0.17213775207E+03 0.  0.
         24    2    3    3    0    0  0.26354574355E+02  0.63164616247E+02 -0.25375384345E+03  0.27618140490E+03  0.84857663248E+02 0.  0.
         -6    2    1    2    0  502  0.26458005372E+02 -0.23108001131E+02  0.46076441275E+02  0.18118389550E+03  0.17166991520E+03 0.  0.
        -24    2    5    5    0    0  0.47738948364E+01  0.52046277693E+02  0.34191168051E+02  0.10192661826E+03  0.80550570726E+02 0.  0.
          5    1    3    3  501    0 -0.52812579726E+02 -0.40056615116E+02 -0.13826855264E+03  0.15340789954E+03  0.47000000000E+01 0. -1.
        -13    1    4    4    0    0  0.21710228005E+02 -0.16264425716E+02 -0.92035544177E+02  0.95950023116E+02  0.00000000000E+00 0.  1.
         14    1    4    4    0    0  0.46443463491E+01  0.79429041963E+02 -0.16171829927E+03  0.18023138178E+03  0.00000000000E+00 0. -1.
         -5    1    5    5    0  502  0.21684110536E+02 -0.75154278824E+02  0.11885273224E+02  0.79257277236E+02  0.47000000000E+01 0.  1.
         13    1    6    6    0    0 -0.24596930044E+02  0.54563373396E+02  0.43948139269E+01  0.60012374335E+02  0.00000000000E+00 0. -1.
        -14    1    6    6    0    0  0.29370824881E+02 -0.25170957025E+01  0.29796354124E+02  0.41914243928E+02  0.00000000000E+00 0.  1.
<mgrwt>
<rscale>  2 0.17557084E+03</rscale>
<asrwt>0</asrwt>
<pdfrwt beam="1">  1       21 0.20371327E-01 0.17568555E+03</pdfrwt>
<pdfrwt beam="2">  1       21 0.73593781E-01 0.17568555E+03</pdfrwt>
<totfact> 0.37317716E+04</totfact>
</mgrwt>
</event>
<event>
12    1  0.1013215E-001  0.1851752E+03  0.7546771E-02  0.1163164E+00
         21   -1    0    0  503  502  0.00000000000E+00  0.00000000000E+00  0.11864912859E+03  0.11864912859E+03  0.00000000000E+00 0. -1.
         21   -1    0    0  501  503 -0.00000000000E+00 -0.00000000000E+00 -0.29697222639E+03  0.29697222639E+03  0.00000000000E+00 0. -1.
          6    2    1    2  501    0 -0.11170428972E+02 -0.65735628802E+02 -0.12666969586E+03  0.22337690152E+03  0.17148200170E+03 0.  0.
         24    2    3    3    0    0 -0.20149887769E+02  0.18466655107E+02 -0.10596599011E+03  0.13607633607E+03  0.80876095674E+02 0.  0.
         -6    2    1    2    0  502  0.11170428972E+02  0.65735628802E+02 -0.51653401931E+02  0.19224445346E+03  0.17275388441E+03 0.  0.
        -24    2    5    5    0    0  0.33382062270E+02  0.52823687822E+02  0.30014764205E+02  0.10650149903E+03  0.80851587181E+02 0.  0.
          5    1    3    3  501    0  0.89794587962E+01 -0.84202283909E+02 -0.20703705754E+02  0.87300565449E+02  0.47000000000E+01 0. -1.
        -11    1    4    4    0    0  0.20546957391E+02 -0.17935321422E+02 -0.18463708375E+02  0.32935721330E+02  0.00000000000E+00 0.  1.
         12    1    4    4    0    0 -0.40696845160E+02  0.36401976529E+02 -0.87502281735E+02  0.10314061474E+03  0.00000000000E+00 0. -1.
         -5    1    5    5    0  502 -0.22211633298E+02  0.12911940980E+02 -0.81668166136E+02  0.85742954425E+02  0.47000000000E+01 0.  1.
         11    1    6    6    0    0  0.42685622192E+02 -0.31899607511E+01  0.11857556828E+01  0.42821072009E+02  0.00000000000E+00 0. -1.
        -12    1    6    6    0    0 -0.93035599218E+01  0.56013648573E+02  0.28829008522E+02  0.63680427025E+02  0.00000000000E+00 0.  1.
<mgrwt>
<rscale>  2 0.18487799E+03</rscale>
<asrwt>0</asrwt>
<pdfrwt beam="1">  1       21 0.18253712E-01 0.18517520E+03</pdfrwt>
<pdfrwt beam="2">  1       21 0.45688034E-01 0.18517520E+03</pdfrwt>
<totfact> 0.12598367E+05</totfact>
</mgrwt>
</event>
<event>
12    1  0.1013215E-001  0.2323193E+03  0.7546771E-02  0.1125234E+00
         21   -1    0    0  501  502  0.00000000000E+00  0.00000000000E+00  0.12083303078E+03  0.12083303078E+03  0.00000000000E+00 0. -1.
         21   -1    0    0  502  503 -0.00000000000E+00 -0.00000000000E+00 -0.20388441314E+04  0.20388441314E+04  0.00000000000E+00 0. -1.
         -6    2    1    2    0  503  0.12724385881E+03 -0.88440708759E+02 -0.19134092946E+04  0.19273122535E+04  0.17141947240E+03 0.  0.
        -24    2    3    3    0    0  0.10821676656E+03 -0.45220887417E+02 -0.77729944072E+03  0.79021169808E+03  0.80525213588E+02 0.  0.
          6    2    1    2  501    0 -0.12724385881E+03  0.88440708759E+02 -0.46018060789E+01  0.23236490867E+03  0.17308817288E+03 0.  0.
         24    2    5    5    0    0 -0.13528101076E+03  0.26791511218E+02  0.27345698200E+02  0.16230812885E+03  0.81101199355E+02 0.  0.
          5    1    5    5  501    0  0.80371519440E+01  0.61649197541E+02 -0.31947504278E+02  0.70056779818E+02  0.47000000000E+01 0. -1.
        -11    1    6    6    0    0  0.32003151526E+01  0.79106236760E+01 -0.14142648532E+02  0.16517702368E+02  0.00000000000E+00 0.  1.
         12    1    6    6    0    0 -0.13848132591E+03  0.18880887542E+02  0.41488346732E+02  0.14579042648E+03  0.00000000000E+00 0. -1.
         -5    1    3    3    0  503  0.19027092253E+02 -0.43219821343E+02 -0.11361098539E+04  0.11371005555E+04  0.47000000000E+01 0.  1.
         13    1    4    4    0    0  0.56742178074E+02 -0.23845057566E+02 -0.62518653707E+03  0.62820893633E+03  0.00000000000E+00 0. -1.
        -14    1    4    4    0    0  0.51474588484E+02 -0.21375829851E+02 -0.15211290364E+03  0.16200276175E+03  0.00000000000E+00 0.  1.
<mgrwt>
<rscale>  2 0.23200857E+03</rscale>
<asrwt>0</asrwt>
<pdfrwt beam="1">  1       21 0.18589696E-01 0.23231934E+03</pdfrwt>
<pdfrwt beam="2">  1       21 0.31366834E+00 0.23231934E+03</pdfrwt>
<totfact> 0.71491684E+02</totfact>
</mgrwt>
</event>
<event>
12    1  0.1013215E-001  0.2073646E+03  0.7546771E-02  0.1144020E+00
         21   -1    0    0  503  502  0.00000000000E+00  0.00000000000E+00  0.94741287142E+03  0.94741287142E+03  0.00000000000E+00 0.  1.
         21   -1    0    0  501  503 -0.00000000000E+00 -0.00000000000E+00 -0.16122461780E+03  0.16122461780E+03  0.00000000000E+00 0.  1.
          6    2    1    2  501    0 -0.62363352619E+02  0.94726056272E+02 -0.77071622719E+02  0.22122416636E+03  0.17360265916E+03 0.  0.
         24    2    3    3    0    0 -0.10851354260E+03  0.81202374355E+02 -0.35529517576E+02  0.15750159181E+03  0.71940185383E+02 0.  0.
         -6    2    1    2    0  502  0.62363352619E+02 -0.94726056272E+02  0.86325987634E+03  0.88741332285E+03  0.17153010813E+03 0.  0.
        -24    2    5    5    0    0  0.10432126344E+03 -0.70981624856E+02  0.54185262793E+03  0.56237644243E+03  0.82107706927E+02 0.  0.
          5    1    3    3  501    0  0.46150189984E+02  0.13523681917E+02 -0.41542105143E+02  0.63722574555E+02  0.47000000000E+01 0. -1.
        -11    1    4    4    0    0 -0.78591675975E+01  0.46093095687E+02 -0.84747476330E+01  0.47520115033E+02  0.00000000000E+00 0.  1.
         12    1    4    4    0    0 -0.10065437501E+03  0.35109278668E+02 -0.27054769943E+02  0.10998147677E+03  0.00000000000E+00 0. -1.
         -5    1    5    5    0  502 -0.41957910822E+02 -0.23744431416E+02  0.32140724841E+03  0.32503688042E+03  0.47000000000E+01 0.  1.
         11    1    6    6    0    0  0.25644577199E+01  0.21114509201E+01 -0.22651481831E+01  0.40206423214E+01  0.00000000000E+00 0. -1.
        -12    1    6    6    0    0  0.10175680572E+03 -0.73093075776E+02  0.54411777611E+03  0.55835580011E+03  0.00000000000E+00 0.  1.
<mgrwt>
<rscale>  2 0.20693029E+03</rscale>
<asrwt>0</asrwt>
<pdfrwt beam="1">  1       21 0.14575582E+00 0.20736465E+03</pdfrwt>
<pdfrwt beam="2">  1       21 0.24803788E-01 0.20736465E+03</pdfrwt>
<totfact> 0.48951660E+03</totfact>
</mgrwt>
</event>
<event>
12    1  0.1013215E-001  0.2052547E+03  0.7546771E-02  0.1145789E+00
         21   -1    0    0  501  502  0.00000000000E+00  0.00000000000E+00  0.74900807383E+02  0.74900807383E+02  0.00000000000E+00 0.  1.
         21   -1    0    0  502  503 -0.00000000000E+00 -0.00000000000E+00 -0.76183386129E+03  0.76183386129E+03  0.00000000000E+00 0.  1.
         -6    2    1    2    0  503  0.81361856745E+02 -0.64614602624E+02 -0.55916342814E+03  0.59496087768E+03  0.17469947912E+03 0.  0.
        -24    2    3    3    0    0  0.62480405787E+02 -0.36271490286E+02 -0.12889230744E+03  0.16331846954E+03  0.69572073848E+02 0.  0.
          6    2    1    2  501    0 -0.81361856745E+02  0.64614602624E+02 -0.12776962577E+03  0.24177379099E+03  0.17701607310E+03 0.  0.
         24    2    5    5    0    0 -0.10088789489E+03  0.81237047056E+02 -0.50496835230E+02  0.16022168505E+03  0.79644415009E+02 0.  0.
          5    1    5    5  501    0  0.19526038149E+02 -0.16622444432E+02 -0.77272790541E+02  0.81552105937E+02  0.47000000000E+01 0. -1.
        -11    1    6    6    0    0 -0.38167908586E+02  0.12284730975E+02 -0.53625974921E+02  0.66958562165E+02  0.00000000000E+00 0.  1.
         12    1    6    6    0    0 -0.62719986309E+02  0.68952316081E+02  0.31291396907E+01  0.93263122887E+02  0.00000000000E+00 0. -1.
         -5    1    3    3    0  503  0.18881450958E+02 -0.28343112338E+02 -0.43027112069E+03  0.43164240815E+03  0.47000000000E+01 0.  1.
         11    1    4    4    0    0  0.48565798260E+02 -0.53815416712E+02 -0.71964570801E+02  0.10214516771E+03  0.00000000000E+00 0. -1.
        -12    1    4    4    0    0  0.13914607527E+02  0.17543926426E+02 -0.56927736642E+02  0.61173301826E+02  0.00000000000E+00 0.  1.
<mgrwt>
<rscale>  2 0.20475424E+03</rscale>
<asrwt>0</asrwt>
<pdfrwt beam="1">  1       21 0.11523200E-01 0.20525469E+03</pdfrwt>
<pdfrwt beam="2">  1       21 0.11720522E+00 0.20525469E+03</pdfrwt>
<totfact> 0.35058641E+04</totfact>
</mgrwt>
</event>
<event>
12    1  0.1013215E-001  0.2030502E+03  0.7546771E-02  0.1147994E+00
         21   -1    0    0  501  502  0.00000000000E+00  0.00000000000E+00  0.15693515497E+03  0.15693515497E+03  0.00000000000E+00 0.  1.
         21   -1    0    0  502  503 -0.00000000000E+00 -0.00000000000E+00 -0.41069560243E+03  0.41069560243E+03  0.00000000000E+00 0.  1.
         -6    2    1    2    0  503 -0.68038077748E+02  0.71993143946E+02 -0.29930317813E+03  0.35953575776E+03  0.17283337605E+03 0.  0.
        -24    2    3    3    0    0  0.23117549455E+02  0.65710946063E+02 -0.18104373320E+03  0.21001585710E+03  0.80482776893E+02 0.  0.
          6    2    1    2  501    0  0.68038077748E+02 -0.71993143946E+02  0.45542730668E+02  0.20809499964E+03  0.17724896547E+03 0.  0.
         24    2    5    5    0    0  0.96897372549E+02 -0.10096109284E+03  0.44459375585E+02  0.16692140837E+03  0.79396961027E+02 0.  0.
          5    1    5    5  501    0 -0.28859294801E+02  0.28967948897E+02  0.10833550825E+01  0.41173591269E+02  0.47000000000E+01 0. -1.
        -11    1    6    6    0    0  0.61863377725E+02 -0.85009014889E+02 -0.37814035492E+01  0.10520413076E+03  0.00000000000E+00 0.  1.
         12    1    6    6    0    0  0.35033994825E+02 -0.15952077954E+02  0.48240779135E+02  0.61717277613E+02  0.00000000000E+00 0. -1.
         -5    1    3    3    0  503 -0.91155627203E+02  0.62821978825E+01 -0.11825944493E+03  0.14951990067E+03  0.47000000000E+01 0.  1.
         11    1    4    4    0    0  0.44217137670E+02  0.43115443163E+02 -0.16279660268E+03  0.17411728963E+03  0.00000000000E+00 0. -1.
        -12    1    4    4    0    0 -0.21099588215E+02  0.22595502901E+02 -0.18247130515E+02  0.35898567467E+02  0.00000000000E+00 0.  1.
<mgrwt>
<rscale>  2 0.20208260E+03</rscale>
<asrwt>0</asrwt>
<pdfrwt beam="1">  1       21 0.24143871E-01 0.20305021E+03</pdfrwt>
<pdfrwt beam="2">  1       21 0.63183937E-01 0.20305021E+03</pdfrwt>
<totfact> 0.37312274E+04</totfact>
</mgrwt>
</event>
<event>
12    1  0.1013215E-001  0.2885614E+03  0.7546771E-02  0.1091263E+00
         21   -1    0    0  501  502  0.00000000000E+00  0.00000000000E+00  0.11341240442E+03  0.11341240442E+03  0.00000000000E+00 0.  1.
         21   -1    0    0  502  503 -0.00000000000E+00 -0.00000000000E+00 -0.79528030313E+03  0.79528030313E+03  0.00000000000E+00 0.  1.
         -6    2    1    2    0  503 -0.19802237323E+03 -0.11665579111E+03 -0.47067155563E+03  0.55208642018E+03  0.17448859036E+03 0.  0.
        -24    2    3    3    0    0 -0.99150272596E+02 -0.45424187943E+02 -0.35189931504E+03  0.38185549259E+03  0.10043085127E+03 0.  0.
          6    2    1    2  501    0  0.19802237323E+03  0.11665579111E+03 -0.21119634309E+03  0.35660628737E+03  0.17246076354E+03 0.  0.
         24    2    5    5    0    0  0.82801235787E+02  0.51658535801E+02 -0.27104336392E+02  0.12986301704E+03  0.81271822760E+02 0.  0.
          5    1    5    5  501    0  0.11522113745E+03  0.64997255306E+02 -0.18409200670E+03  0.22674327033E+03  0.47000000000E+01 0. -1.
        -13    1    6    6    0    0  0.40509788921E+02  0.63676891183E+02 -0.38100890781E+02  0.84542695411E+02  0.00000000000E+00 0.  1.
         14    1    6    6    0    0  0.42291446866E+02 -0.12018355382E+02  0.10996554389E+02  0.45320321629E+02  0.00000000000E+00 0. -1.
         -5    1    3    3    0  503 -0.98872100638E+02 -0.71231603164E+02 -0.11877224059E+03  0.17023092759E+03  0.47000000000E+01 0.  1.
         13    1    4    4    0    0 -0.44903988642E+01 -0.51969989276E+02 -0.10236346380E+03  0.11488830309E+03  0.00000000000E+00 0. -1.
        -14    1    4    4    0    0 -0.94659873732E+02  0.65458013324E+01 -0.24953585124E+03  0.26696718949E+03  0.00000000000E+00 0.  1.
<mgrwt>
<rscale>  2 0.28825554E+03</rscale>
<asrwt>0</asrwt>
<pdfrwt beam="1">  1       21 0.17448062E-01 0.28856144E+03</pdfrwt>
<pdfrwt beam="2">  1       21 0.12235082E+00 0.28856144E+03</pdfrwt>
<totfact> 0.14167625E+04</totfact>
</mgrwt>
</event>
<event>
12    1  0.1013215E-001  0.2803009E+03  0.7546771E-02  0.1096000E+00
         21   -1    0    0  501  502  0.00000000000E+00  0.00000000000E+00  0.48379956396E+03  0.48379956396E+03  0.00000000000E+00 0. -1.
         21   -1    0    0  502  503 -0.00000000000E+00 -0.00000000000E+00 -0.87888822564E+03  0.87888822564E+03  0.00000000000E+00 0.  1.
         -6    2    1    2    0  503  0.38956107366E+02  0.21254184314E+03 -0.81380814766E+03  0.86072778001E+03  0.17854130251E+03 0.  0.
        -24    2    3    3    0    0 -0.19311438065E+02  0.84181029254E+02 -0.21353921240E+03  0.24411080811E+03  0.80819020536E+02 0.  0.
          6    2    1    2  501    0 -0.38956107366E+02 -0.21254184314E+03  0.41871948598E+03  0.50196000959E+03  0.17304979022E+03 0.  0.
         24    2    5    5    0    0 -0.42515706504E+02 -0.39799945913E+02  0.10931845479E+03  0.14755413787E+03  0.80187767463E+02 0.  0.
          5    1    5    5  501    0  0.35595991381E+01 -0.17274189723E+03  0.30940103119E+03  0.35440587171E+03  0.47000000000E+01 0. -1.
        -13    1    6    6    0    0 -0.59462344295E+02 -0.45238396964E+01  0.59999004326E+02  0.84593829768E+02  0.00000000000E+00 0.  1.
         14    1    6    6    0    0  0.16946637791E+02 -0.35276106217E+02  0.49319450469E+02  0.62960308106E+02  0.00000000000E+00 0. -1.
         -5    1    3    3    0  503  0.58267545431E+02  0.12836081389E+03 -0.60026893526E+03  0.61661697190E+03  0.47000000000E+01 0.  1.
         11    1    4    4    0    0 -0.14450429734E+00  0.79203935014E+02 -0.93898015475E+02  0.12284185571E+03  0.00000000000E+00 0. -1.
        -12    1    4    4    0    0 -0.19166933768E+02  0.49770942407E+01 -0.11964119692E+03  0.12126895241E+03  0.00000000000E+00 0.  1.
<mgrwt>
<rscale>  2 0.27943050E+03</rscale>
<asrwt>0</asrwt>
<pdfrwt beam="1">  1       21 0.74430702E-01 0.28030093E+03</pdfrwt>
<pdfrwt beam="2">  1       21 0.13521357E+00 0.28030093E+03</pdfrwt>
<totfact> 0.58369807E+02</totfact>
</mgrwt>
</event>
<event>
12    1  0.1013215E-001  0.2272820E+03  0.7546771E-02  0.1129071E+00
         21   -1    0    0  503  502  0.00000000000E+00  0.00000000000E+00  0.12832536468E+03  0.12832536468E+03  0.00000000000E+00 0.  1.
         21   -1    0    0  501  503 -0.00000000000E+00 -0.00000000000E+00 -0.58542020941E+03  0.58542020941E+03  0.00000000000E+00 0. -1.
          6    2    1    2  501    0 -0.14316459986E+03  0.42443153560E+01 -0.43164425487E+03  0.48782566207E+03  0.17647378544E+03 0.  0.
         24    2    3    3    0    0 -0.41200905110E+02  0.59033835691E+02 -0.24658316362E+03  0.26949521509E+03  0.81497889762E+02 0.  0.
         -6    2    1    2    0  502  0.14316459986E+03 -0.42443153560E+01 -0.25450589854E+02  0.22591991202E+03  0.17285241467E+03 0.  0.
        -24    2    5    5    0    0  0.12627503578E+02 -0.21791921243E+01 -0.48054000608E+02  0.93340869870E+02  0.78988152838E+02 0.  0.
          5    1    3    3  501    0 -0.10196369475E+03 -0.54789520335E+02 -0.18506109125E+03  0.21833044698E+03  0.47000000000E+01 0. -1.
        -11    1    4    4    0    0 -0.13216778009E+02  0.29679123125E+02 -0.17603242098E+02  0.36951423555E+02  0.00000000000E+00 0.  1.
         12    1    4    4    0    0 -0.27984127101E+02  0.29354712566E+02 -0.22897992153E+03  0.23254379154E+03  0.00000000000E+00 0. -1.
         -5    1    5    5    0  502  0.13053709628E+03 -0.20651232316E+01  0.22603410754E+02  0.13257904215E+03  0.47000000000E+01 0.  1.
         13    1    6    6    0    0 -0.58629453838E+01  0.36474041634E+02 -0.25787815354E+02  0.45052649894E+02  0.00000000000E+00 0. -1.
        -14    1    6    6    0    0  0.18490448961E+02 -0.38653233758E+02 -0.22266185254E+02  0.48288219977E+02  0.00000000000E+00 0.  1.
<mgrwt>
<rscale>  2 0.22657870E+03</rscale>
<asrwt>0</asrwt>
<pdfrwt beam="1">  1       21 0.19742364E-01 0.22728201E+03</pdfrwt>
<pdfrwt beam="2">  1       21 0.90064649E-01 0.22728201E+03</pdfrwt>
<totfact> 0.24323203E+04</totfact>
</mgrwt>
</event>
<event>
12    1  0.1013215E-001  0.2492469E+03  0.7546771E-02  0.1113804E+00
         21   -1    0    0  501  502  0.00000000000E+00  0.00000000000E+00  0.66920681569E+02  0.66920681569E+02  0.00000000000E+00 0.  1.
         21   -1    0    0  502  503 -0.00000000000E+00 -0.00000000000E+00 -0.93217469313E+03  0.93217469313E+03  0.00000000000E+00 0.  1.
         -6    2    1    2    0  503  0.65355107070E+02 -0.16686078380E+03 -0.39849746958E+03  0.47002581599E+03  0.17323459021E+03 0.  0.
        -24    2    3    3    0    0  0.99035005824E+02 -0.10910269173E+03 -0.19776202807E+03  0.25839609158E+03  0.77119327482E+02 0.  0.
          6    2    1    2  501    0 -0.65355107070E+02  0.16686078380E+03 -0.46675654199E+03  0.52906955871E+03  0.17302923822E+03 0.  0.
         24    2    5    5    0    0 -0.95969767486E+02  0.16334377974E+03 -0.33093340500E+03  0.38971518565E+03  0.80433952620E+02 0.  0.
          5    1    5    5  501    0  0.30614660416E+02  0.35170040623E+01 -0.13582313699E+03  0.13935437306E+03  0.47000000000E+01 0. -1.
        -11    1    6    6    0    0 -0.90396702758E+02  0.12015100072E+03 -0.19053185275E+03  0.24271426360E+03  0.00000000000E+00 0.  1.
         12    1    6    6    0    0 -0.55730647278E+01  0.43192779018E+02 -0.14040155225E+03  0.14700092205E+03  0.00000000000E+00 0. -1.
         -5    1    3    3    0  503 -0.33679898755E+02 -0.57758092069E+02 -0.20073544150E+03  0.21162972441E+03  0.47000000000E+01 0.  1.
         13    1    4    4    0    0  0.20048289695E+02  0.29279554437E+01 -0.33770334774E+01  0.20540477060E+02  0.00000000000E+00 0. -1.
        -14    1    4    4    0    0  0.78986716130E+02 -0.11203064718E+03 -0.19438499460E+03  0.23785561451E+03  0.00000000000E+00 0.  1.
<mgrwt>
<rscale>  2 0.24921126E+03</rscale>
<asrwt>0</asrwt>
<pdfrwt beam="1">  1       21 0.10295490E-01 0.24924693E+03</pdfrwt>
<pdfrwt beam="2">  1       21 0.14341149E+00 0.24924693E+03</pdfrwt>
<totfact> 0.25071907E+04</totfact>
</mgrwt>
</event>
<event>
12    1  0.1013215E-001  0.2015259E+03  0.7546771E-02  0.1148823E+00
         21   -1    0    0  503  502  0.00000000000E+00  0.00000000000E+00  0.57130462184E+02  0.57130462184E+02  0.00000000000E+00 0.  1.
         21   -1    0    0  501  503 -0.00000000000E+00 -0.00000000000E+00 -0.89512704254E+03  0.89512704254E+03  0.00000000000E+00 0.  1.
          6    2    1    2  501    0 -0.10179720126E+03 -0.45585846055E+01 -0.64000708449E+03  0.67098566487E+03  0.17386559002E+03 0.  0.
         24    2    3    3    0    0 -0.87356735187E+02 -0.37996881006E+02 -0.24359849760E+03  0.27287951762E+03  0.77769151674E+02 0.  0.
         -6    2    1    2    0  502  0.10179720126E+03  0.45585846055E+01 -0.19798949587E+03  0.28127183985E+03  0.17184457088E+03 0.  0.
        -24    2    5    5    0    0  0.20979153366E+02 -0.18389827171E+02 -0.17427340492E+03  0.19384913434E+03  0.80174538382E+02 0.  0.
          5    1    3    3  501    0 -0.14440466072E+02  0.33438296400E+02 -0.39640858689E+03  0.39810614726E+03  0.47000000000E+01 0. -1.
        -13    1    4    4    0    0 -0.48775345770E+01 -0.35760152121E+02 -0.11086108425E+03  0.11658798748E+03  0.00000000000E+00 0.  1.
         14    1    4    4    0    0 -0.82479200610E+02 -0.22367288844E+01 -0.13273741335E+03  0.15629153013E+03  0.00000000000E+00 0. -1.
         -5    1    5    5    0  502  0.80818047893E+02  0.22948411777E+02 -0.23716090950E+02  0.87422705508E+02  0.47000000000E+01 0.  1.
         13    1    6    6    0    0 -0.24342611596E+01  0.30311888281E+02 -0.72506196309E+02  0.78624962332E+02  0.00000000000E+00 0. -1.
        -14    1    6    6    0    0  0.23413414526E+02 -0.48701715452E+02 -0.10176720861E+03  0.11522417201E+03  0.00000000000E+00 0.  1.
<mgrwt>
<rscale>  2 0.20108924E+03</rscale>
<asrwt>0</asrwt>
<pdfrwt beam="1">  1       21 0.87893025E-02 0.20152591E+03</pdfrwt>
<pdfrwt beam="2">  1       21 0.13771184E+00 0.20152591E+03</pdfrwt>
<totfact> 0.37820553E+04</totfact>
</mgrwt>
</event>
<event>
12    1  0.1013215E-001  0.2090713E+03  0.7546771E-02  0.1142849E+00
         21   -1    0    0  501  502  0.00000000000E+00  0.00000000000E+00  0.46459602340E+03  0.46459602340E+03  0.00000000000E+00 0. -1.
         21   -1    0    0  502  503 -0.00000000000E+00 -0.00000000000E+00 -0.98773549501E+02  0.98773549501E+02  0.00000000000E+00 0.  1.
         -6    2    1    2    0  503  0.95041235060E+02 -0.66263155344E+02  0.11288276192E+03  0.23520909301E+03  0.17075467015E+03 0.  0.
        -24    2    3    3    0    0  0.87326664522E+02  0.19791628092E+02  0.68082737281E+02  0.13777156144E+03  0.79549287538E+02 0.  0.
          6    2    1    2  501    0 -0.95041235060E+02  0.66263155344E+02  0.25293971198E+03  0.32816047989E+03  0.17403206758E+03 0.  0.
         24    2    5    5    0    0 -0.11061151849E+03  0.98075161638E+02  0.18247384997E+03  0.24915437139E+03  0.83231901974E+02 0.  0.
          5    1    5    5  501    0  0.15570283435E+02 -0.31812006295E+02  0.70465862013E+02  0.79006108498E+02  0.47000000000E+01 0. -1.
        -11    1    6    6    0    0 -0.11856380547E+02  0.60256170173E+02  0.47217418999E+02  0.77465246792E+02  0.00000000000E+00 0.  1.
         12    1    6    6    0    0 -0.98755137948E+02  0.37818991465E+02  0.13525643097E+03  0.17168912460E+03  0.00000000000E+00 0. -1.
         -5    1    3    3    0  503  0.77145705377E+01 -0.86054783435E+02  0.44800024636E+02  0.97437531568E+02  0.47000000000E+01 0.  1.
         13    1    4    4    0    0  0.61758973946E+02 -0.14345169448E+02  0.70793894892E+02  0.95035416048E+02  0.00000000000E+00 0. -1.
        -14    1    4    4    0    0  0.25567690576E+02  0.34136797540E+02 -0.27111576115E+01  0.42736145396E+02  0.00000000000E+00 0.  1.
<mgrwt>
<rscale>  2 0.20838791E+03</rscale>
<asrwt>0</asrwt>
<pdfrwt beam="1">  1       21 0.71476310E-01 0.20907129E+03</pdfrwt>
<pdfrwt beam="2">  1       21 0.15195931E-01 0.20907129E+03</pdfrwt>
<totfact> 0.67283047E+04</totfact>
</mgrwt>
</event>
<event>
12    1  0.1013215E-001  0.1991156E+03  0.7546771E-02  0.1151173E+00
         21   -1    0    0  503  502  0.00000000000E+00  0.00000000000E+00  0.10773868842E+03  0.10773868842E+03  0.00000000000E+00 0. -1.
         21   -1    0    0  501  503 -0.00000000000E+00 -0.00000000000E+00 -0.36209879785E+03  0.36209879785E+03  0.00000000000E+00 0. -1.
          6    2    1    2  501    0  0.18990943206E+02  0.96903724612E+02 -0.12526080983E+03  0.23253248514E+03  0.16920430964E+03 0.  0.
         24    2    3    3    0    0  0.74467112107E+02  0.83099949359E+02 -0.75852122611E+02  0.15682609242E+03  0.79937015137E+02 0.  0.
         -6    2    1    2    0  502 -0.18990943206E+02 -0.96903724612E+02 -0.12909929961E+03  0.23730500113E+03  0.17290473283E+03 0.  0.
        -24    2    5    5    0    0 -0.54609078344E+02 -0.10203957393E+03 -0.47447611424E+02  0.14795111659E+03  0.79019181123E+02 0.  0.
          5    1    3    3  501    0 -0.55476168901E+02  0.13803775253E+02 -0.49408687215E+02  0.75706392725E+02  0.47000000000E+01 0. -1.
        -11    1    4    4    0    0  0.26336829985E+02  0.17039287895E+02  0.14870875644E+02  0.34714678280E+02  0.00000000000E+00 0.  1.
         12    1    4    4    0    0  0.48130282121E+02  0.66060661464E+02 -0.90722998255E+02  0.12211141414E+03  0.00000000000E+00 0. -1.
         -5    1    5    5    0  502  0.35618135138E+02  0.51358493181E+01 -0.81651688181E+02  0.89353884536E+02  0.47000000000E+01 0.  1.
         11    1    6    6    0    0 -0.10830392128E+02 -0.95202572824E+02 -0.31597142490E+02  0.10089205459E+03  0.00000000000E+00 0. -1.
        -12    1    6    6    0    0 -0.43778686217E+02 -0.68370011064E+01 -0.15850468934E+02  0.47059062001E+02  0.00000000000E+00 0.  1.
<mgrwt>
<rscale>  2 0.19830957E+03</rscale>
<asrwt>0</asrwt>
<pdfrwt beam="1">  1       21 0.16575182E-01 0.19911563E+03</pdfrwt>
<pdfrwt beam="2">  1       21 0.55707509E-01 0.19911563E+03</pdfrwt>
<totfact> 0.98958438E+04</totfact>
</mgrwt>
</event>
<event>
12    1  0.1013215E-001  0.2483528E+03  0.7546771E-02  0.1114774E+00
         21   -1    0    0  503  502  0.00000000000E+00  0.00000000000E+00  0.63116178613E+02  0.63116178613E+02  0.00000000000E+00 0. -1.
         21   -1    0    0  501  503 -0.00000000000E+00 -0.00000000000E+00 -0.13655270333E+04  0.13655270333E+04  0.00000000000E+00 0.  1.
          6    2    1    2  501    0  0.17743349097E+03 -0.43568323699E+01 -0.10396419335E+04  0.10688940337E+04  0.17371666511E+03 0.  0.
         24    2    3    3    0    0  0.18395087845E+03  0.37723579951E+02 -0.86183850387E+03  0.88600229791E+03  0.83507310992E+02 0.  0.
         -6    2    1    2    0  502 -0.17743349097E+03  0.43568323699E+01 -0.26276892127E+03  0.35974917826E+03  0.16991274105E+03 0.  0.
        -24    2    5    5    0    0 -0.18899537876E+03  0.38554361466E+02 -0.23274845047E+03  0.31256372593E+03  0.79489304849E+02 0.  0.
          5    1    3    3  501    0 -0.65173874763E+01 -0.42080412321E+02 -0.17780342959E+03  0.18289173578E+03  0.47000000000E+01 0. -1.
        -11    1    4    4    0    0  0.14180805605E+02 -0.20461401547E+02 -0.77773719627E+02  0.81660980067E+02  0.00000000000E+00 0.  1.
         12    1    4    4    0    0  0.16977007284E+03  0.58184981499E+02 -0.78406478424E+03  0.80434131784E+03  0.00000000000E+00 0. -1.
         -5    1    5    5    0  502  0.11561887794E+02 -0.34197529096E+02 -0.30020470793E+02  0.47185452337E+02  0.47000000000E+01 0.  1.
         13    1    6    6    0    0 -0.35827583907E+02  0.20820225483E+02 -0.11713298497E+02  0.43061571261E+02  0.00000000000E+00 0. -1.
        -14    1    6    6    0    0 -0.15316779486E+03  0.17734135982E+02 -0.22103515198E+03  0.26950215467E+03  0.00000000000E+00 0.  1.
<mgrwt>
<rscale>  2 0.24768870E+03</rscale>
<asrwt>0</asrwt>
<pdfrwt beam="1">  1       21 0.97101818E-02 0.24835278E+03</pdfrwt>
<pdfrwt beam="2">  1       21 0.21008107E+00 0.24835278E+03</pdfrwt>
<totfact> 0.94837674E+03</totfact>
</mgrwt>
</event>
<event>
12    1  0.1013215E-001  0.2382349E+03  0.7546771E-02  0.1121005E+00
         21   -1    0    0  501  502  0.00000000000E+00  0.00000000000E+00  0.17287603892E+04  0.17287603892E+04  0.00000000000E+00 0. -1.
         21   -1    0    0  502  503 -0.00000000000E+00 -0.00000000000E+00 -0.78785384422E+02  0.78785384422E+02  0.00000000000E+00 0.  1.
         -6    2    1    2    0  503 -0.13830848726E+03  0.87975954693E+02  0.13441790334E+03  0.27337850509E+03  0.17262279124E+03 0.  0.
        -24    2    3    3    0    0 -0.25179309742E+02  0.82436801878E+02  0.10320156585E+03  0.15579686220E+03  0.78691010495E+02 0.  0.
          6    2    1    2  501    0  0.13830848726E+03 -0.87975954693E+02  0.15155571014E+04  0.15341672685E+04  0.17287820532E+03 0.  0.
         24    2    5    5    0    0  0.15203472952E+03 -0.10805583837E+03  0.11525152163E+04  0.11702811437E+04  0.80473650354E+02 0.  0.
          5    1    5    5  501    0 -0.13726242267E+02  0.20079883675E+02  0.36304188510E+03  0.36388612476E+03  0.47000000000E+01 0. -1.
        -13    1    6    6    0    0  0.32301229144E+01 -0.53595915205E+00  0.39131605801E-01  0.32745194361E+01  0.00000000000E+00 0.  1.
         14    1    6    6    0    0  0.14880460661E+03 -0.10751987922E+03  0.11524760847E+04  0.11670066243E+04  0.00000000000E+00 0. -1.
         -5    1    3    3    0  503 -0.11312917752E+03  0.55391528150E+01  0.31216337491E+02  0.11758164289E+03  0.47000000000E+01 0.  1.
         11    1    4    4    0    0 -0.18327568562E+01  0.82654326671E+02  0.47378719662E+02  0.95288193350E+02  0.00000000000E+00 0. -1.
        -12    1    4    4    0    0 -0.23346552886E+02 -0.21752479265E+00  0.55822846191E+02  0.60508668846E+02  0.00000000000E+00 0.  1.
<mgrwt>
<rscale>  2 0.23818859E+03</rscale>
<asrwt>0</asrwt>
<pdfrwt beam="1">  1       21 0.26596311E+00 0.23823493E+03</pdfrwt>
<pdfrwt beam="2">  1       21 0.12120830E-01 0.23823493E+03</pdfrwt>
<totfact> 0.29493838E+03</totfact>
</mgrwt>
</event>
<event>
12    1  0.1013215E-001  0.1961677E+03  0.7546771E-02  0.1153761E+00
         21   -1    0    0  501  502  0.00000000000E+00  0.00000000000E+00  0.42923284417E+02  0.42923284417E+02  0.00000000000E+00 0.  1.
         21   -1    0    0  502  503 -0.00000000000E+00 -0.00000000000E+00 -0.91784317881E+03  0.91784317881E+03  0.00000000000E+00 0.  1.
         -6    2    1    2    0  503  0.39304464270E+02  0.83359924577E+02 -0.53008219591E+03  0.56403631689E+03  0.16928116971E+03 0.  0.
        -24    2    3    3    0    0  0.71646194370E+02  0.38252152786E+02 -0.42161437737E+03  0.44210167768E+03  0.10535087015E+03 0.  0.
          6    2    1    2  501    0 -0.39304464270E+02 -0.83359924577E+02 -0.34483769849E+03  0.39673014634E+03  0.17317058866E+03 0.  0.
         24    2    5    5    0    0 -0.26888711683E+02 -0.41526440282E+02 -0.68609545648E+02  0.11703696848E+03  0.80888405707E+02 0.  0.
          5    1    5    5  501    0 -0.12415752587E+02 -0.41833484295E+02 -0.27622815284E+03  0.27969317786E+03  0.47000000000E+01 0. -1.
        -13    1    6    6    0    0  0.28621946052E+02 -0.73046605282E+01 -0.19376112153E+02  0.35327150796E+02  0.00000000000E+00 0.  1.
         14    1    6    6    0    0 -0.55510657735E+02 -0.34221779753E+02 -0.49233433495E+02  0.81709817681E+02  0.00000000000E+00 0. -1.
         -5    1    3    3    0  503 -0.32341730100E+02  0.45107771791E+02 -0.10846781854E+03  0.12193463922E+03  0.47000000000E+01 0.  1.
         13    1    4    4    0    0  0.56606037690E+02  0.74618481837E+02 -0.29931064727E+03  0.31362242411E+03  0.00000000000E+00 0. -1.
        -14    1    4    4    0    0  0.15040156680E+02 -0.36366329051E+02 -0.12230373010E+03  0.12847925357E+03  0.00000000000E+00 0.  1.
<mgrwt>
<rscale>  2 0.19530585E+03</rscale>
<asrwt>0</asrwt>
<pdfrwt beam="1">  1       21 0.66035827E-02 0.19616771E+03</pdfrwt>
<pdfrwt beam="2">  1       21 0.14120663E+00 0.19616771E+03</pdfrwt>
<totfact> 0.58427091E+04</totfact>
</mgrwt>
</event>
<event>
12    1  0.1013215E-001  0.2018449E+03  0.7546771E-02  0.1150043E+00
         21   -1    0    0  503  502  0.00000000000E+00  0.00000000000E+00  0.80909202934E+02  0.80909202934E+02  0.00000000000E+00 0.  1.
         21   -1    0    0  501  503 -0.00000000000E+00 -0.00000000000E+00 -0.12649759272E+04  0.12649759272E+04  0.00000000000E+00 0. -1.
          6    2    1    2  501    0 -0.28988017926E+02  0.98194974610E+02 -0.11164172181E+04  0.11330052919E+04  0.16380179639E+03 0.  0.
         24    2    3    3    0    0  0.41174179953E+02  0.61210692130E+02 -0.50506142416E+03  0.51650827822E+03  0.79067675859E+02 0.  0.
         -6    2    1    2    0  502  0.28988017926E+02 -0.98194974610E+02 -0.67649506211E+02  0.21287983823E+03  0.17395060107E+03 0.  0.
        -24    2    5    5    0    0  0.45947125010E+02 -0.18311707803E+01 -0.68972779018E+02  0.11491333858E+03  0.79582282298E+02 0.  0.
          5    1    3    3  501    0 -0.70162197879E+02  0.36984282480E+02 -0.61135579392E+03  0.61649701372E+03  0.47000000000E+01 0. -1.
        -13    1    4    4    0    0 -0.12464182672E+02  0.61075630740E+01 -0.14946956398E+02  0.20397786202E+02  0.00000000000E+00 0.  1.
         14    1    4    4    0    0  0.53638362625E+02  0.55103129056E+02 -0.49011446777E+03  0.49611049202E+03  0.00000000000E+00 0. -1.
         -5    1    5    5    0  502 -0.16959107084E+02 -0.96363803830E+02  0.13232728062E+01  0.97966499644E+02  0.47000000000E+01 0.  1.
         13    1    6    6    0    0  0.53786425033E+02 -0.18827841663E+02 -0.16688841952E+02  0.59380001559E+02  0.00000000000E+00 0. -1.
        -14    1    6    6    0    0 -0.78393000224E+01  0.16996670883E+02 -0.52283937066E+02  0.55533337024E+02  0.00000000000E+00 0.  1.
<mgrwt>
<rscale>  2 0.19963962E+03</rscale>
<asrwt>0</asrwt>
<pdfrwt beam="1">  1       21 0.12447570E-01 0.20184492E+03</pdfrwt>
<pdfrwt beam="2">  1       21 0.19461168E+00 0.20184492E+03</pdfrwt>
<totfact> 0.79327658E+03</totfact>
</mgrwt>
</event>
<event>
12    1  0.1013215E-001  0.1786628E+03  0.7546771E-02  0.1169239E+00
         21   -1    0    0  503  502  0.00000000000E+00  0.00000000000E+00  0.14201135748E+03  0.14201135748E+03  0.00000000000E+00 0.  1.
         21   -1    0    0  501  503 -0.00000000000E+00 -0.00000000000E+00 -0.32768694102E+03  0.32768694102E+03  0.00000000000E+00 0.  1.
          6    2    1    2  501    0  0.10009532394E+02 -0.38771648715E+02 -0.22499072490E+03  0.28729987122E+03  0.17411765629E+03 0.  0.
         24    2    3    3    0    0 -0.12722628564E+02 -0.66142462406E+02 -0.22867434118E+03  0.25122257070E+03  0.79272536912E+02 0.  0.
         -6    2    1    2    0  502 -0.10009532394E+02  0.38771648715E+02  0.39315141359E+02  0.18239842727E+03  0.17355135968E+03 0.  0.
        -24    2    5    5    0    0  0.21791522638E+02  0.77741633932E+02 -0.92106374245E+01  0.11234981518E+03  0.77582298394E+02 0.  0.
          5    1    3    3  501    0  0.22732160958E+02  0.27370813691E+02  0.36836162765E+01  0.36077300520E+02  0.47000000000E+01 0. -1.
        -13    1    4    4    0    0  0.31767828203E+02 -0.25690500052E+02 -0.64164084355E+02  0.76067249344E+02  0.00000000000E+00 0.  1.
         14    1    4    4    0    0 -0.44490456767E+02 -0.40451962355E+02 -0.16451025682E+03  0.17515532136E+03  0.00000000000E+00 0. -1.
         -5    1    5    5    0  502 -0.31801055032E+02 -0.38969985217E+02  0.48525778784E+02  0.70048612089E+02  0.47000000000E+01 0.  1.
         11    1    6    6    0    0 -0.19343668375E+02  0.65782580166E+02 -0.16990159848E+00  0.68567880426E+02  0.00000000000E+00 0. -1.
        -12    1    6    6    0    0  0.41135191013E+02  0.11959053766E+02 -0.90407358261E+01  0.43781934756E+02  0.00000000000E+00 0.  1.
<mgrwt>
<rscale>  2 0.17852466E+03</rscale>
<asrwt>0</asrwt>
<pdfrwt beam="1">  1       21 0.21847902E-01 0.17866278E+03</pdfrwt>
<pdfrwt beam="2">  1       21 0.50413374E-01 0.17866278E+03</pdfrwt>
<totfact> 0.73683979E+04</totfact>
</mgrwt>
</event>
<event>
12    1  0.1013215E-001  0.1901578E+03  0.7546771E-02  0.1158403E+00
         21   -1    0    0  503  502  0.00000000000E+00  0.00000000000E+00  0.19410167806E+02  0.19410167806E+02  0.00000000000E+00 0.  1.
         21   -1    0    0  501  503 -0.00000000000E+00 -0.00000000000E+00 -0.18835566839E+04  0.18835566839E+04  0.00000000000E+00 0.  1.
          6    2    1    2  501    0  0.76933619879E+02  0.16268143614E+02 -0.10391199337E+04  0.10563093864E+04  0.17273056700E+03 0.  0.
         24    2    3    3    0    0 -0.22895953820E+01  0.21601709556E+02 -0.25064975306E+03  0.26383725405E+03  0.79453897400E+02 0.  0.
         -6    2    1    2    0  502 -0.76933619879E+02 -0.16268143614E+02 -0.82502658241E+03  0.84665746534E+03  0.17313742395E+03 0.  0.
        -24    2    5    5    0    0 -0.90527933796E+02  0.36186828320E+02 -0.68163243399E+03  0.69329416708E+03  0.80803673836E+02 0.  0.
          5    1    3    3  501    0  0.79223215261E+02 -0.53335659420E+01 -0.78847018064E+03  0.79247213233E+03  0.47000000000E+01 0. -1.
        -13    1    4    4    0    0  0.34138823854E+02  0.10402605160E+01 -0.16525327310E+03  0.16874592056E+03  0.00000000000E+00 0.  1.
         14    1    4    4    0    0 -0.36428419236E+02  0.20561449040E+02 -0.85396479961E+02  0.95091333487E+02  0.00000000000E+00 0. -1.
         -5    1    5    5    0  502  0.13594313917E+02 -0.52454971934E+02 -0.14339414843E+03  0.15336329826E+03  0.47000000000E+01 0.  1.
         13    1    6    6    0    0 -0.61258082705E+01 -0.21981869940E+02 -0.90026313364E+02  0.92873382791E+02  0.00000000000E+00 0. -1.
        -14    1    6    6    0    0 -0.84402125525E+02  0.58168698260E+02 -0.59160612062E+03  0.60042078429E+03  0.00000000000E+00 0.  1.
<mgrwt>
<rscale>  2 0.19006518E+03</rscale>
<asrwt>0</asrwt>
<pdfrwt beam="1">  1       21 0.29861792E-02 0.19015783E+03</pdfrwt>
<pdfrwt beam="2">  1       21 0.28977800E+00 0.19015783E+03</pdfrwt>
<totfact> 0.24981262E+04</totfact>
</mgrwt>
</event>
<event>
12    1  0.1013215E-001  0.2236538E+03  0.7546771E-02  0.1131318E+00
         21   -1    0    0  501  502  0.00000000000E+00  0.00000000000E+00  0.87112358008E+02  0.87112358008E+02  0.00000000000E+00 0. -1.
         21   -1    0    0  502  503 -0.00000000000E+00 -0.00000000000E+00 -0.59615004878E+03  0.59615004878E+03  0.00000000000E+00 0.  1.
         -6    2    1    2    0  503  0.12058501805E+03 -0.71402211318E+02 -0.32311725234E+03  0.39297047354E+03  0.17430436585E+03 0.  0.
        -24    2    3    3    0    0  0.16759145087E+02 -0.74344949963E+02 -0.11211631325E+03  0.15774301361E+03  0.80652031078E+02 0.  0.
          6    2    1    2  501    0 -0.12058501805E+03  0.71402211318E+02 -0.18592043843E+03  0.29029193325E+03  0.17338966152E+03 0.  0.
         24    2    5    5    0    0 -0.52688193434E+01  0.84525113643E+01 -0.11255019262E+03  0.13974036939E+03  0.82222986896E+02 0.  0.
          5    1    5    5  501    0 -0.11531619871E+03  0.62949699954E+02 -0.73370245817E+02  0.15055156386E+03  0.47000000000E+01 0. -1.
        -13    1    6    6    0    0  0.27872200501E+02 -0.77764437260E+01 -0.97780299787E+01  0.30544107583E+02  0.00000000000E+00 0.  1.
         14    1    6    6    0    0 -0.33141019844E+02  0.16228955090E+02 -0.10277216264E+03  0.10919626181E+03  0.00000000000E+00 0. -1.
         -5    1    3    3    0  503  0.10382587297E+03  0.29427386447E+01 -0.21100093909E+03  0.23522745993E+03  0.47000000000E+01 0.  1.
         13    1    4    4    0    0  0.46895228894E+02 -0.28046414334E+02 -0.66726573225E+02  0.86244996518E+02  0.00000000000E+00 0. -1.
        -14    1    4    4    0    0 -0.30136083807E+02 -0.46298535629E+02 -0.45389740021E+02  0.71498017090E+02  0.00000000000E+00 0.  1.
<mgrwt>
<rscale>  2 0.22347558E+03</rscale>
<asrwt>0</asrwt>
<pdfrwt beam="1">  1       21 0.13401901E-01 0.22365383E+03</pdfrwt>
<pdfrwt beam="2">  1       21 0.91715392E-01 0.22365383E+03</pdfrwt>
<totfact> 0.47648712E+04</totfact>
</mgrwt>
</event>
<event>
12    1  0.1013215E-001  0.1751202E+03  0.7546771E-02  0.1172715E+00
         21   -1    0    0  501  502  0.00000000000E+00  0.00000000000E+00  0.91852303146E+02  0.91852303146E+02  0.00000000000E+00 0. -1.
         21   -1    0    0  502  503 -0.00000000000E+00 -0.00000000000E+00 -0.44483790189E+03  0.44483790189E+03  0.00000000000E+00 0. -1.
         -6    2    1    2    0  503  0.57270566374E+01  0.15968043555E+02 -0.31114883557E+03  0.35704437404E+03  0.17429661374E+03 0.  0.
        -24    2    3    3    0    0 -0.52480670673E+02 -0.35045977298E+02 -0.20052422201E+03  0.22195009226E+03  0.71199989630E+02 0.  0.
          6    2    1    2  501    0 -0.57270566374E+01 -0.15968043555E+02 -0.41836763173E+02  0.17964583100E+03  0.17388079897E+03 0.  0.
         24    2    5    5    0    0  0.61571048210E+02 -0.92480968383E+01 -0.45009525616E+02  0.11177574170E+03  0.81187670025E+02 0.  0.
          5    1    5    5  501    0 -0.67298104847E+02 -0.67199467167E+01  0.31727624433E+01  0.67870089299E+02  0.47000000000E+01 0. -1.
        -11    1    6    6    0    0  0.45906333360E+02  0.30166212765E+01 -0.67539201814E+02  0.81719246375E+02  0.00000000000E+00 0.  1.
         12    1    6    6    0    0  0.15664714850E+02 -0.12264718115E+02  0.22529676198E+02  0.30056495327E+02  0.00000000000E+00 0. -1.
         -5    1    3    3    0  503  0.58207727310E+02  0.51014020853E+02 -0.11062461356E+03  0.13509428177E+03  0.47000000000E+01 0.  1.
         11    1    4    4    0    0  0.10437137530E+02 -0.15600762226E+02 -0.10020018274E+03  0.10194309316E+03  0.00000000000E+00 0. -1.
        -12    1    4    4    0    0 -0.62917808203E+02 -0.19445215072E+02 -0.10032403928E+03  0.12000699911E+03  0.00000000000E+00 0.  1.
<mgrwt>
<rscale>  2 0.17501665E+03</rscale>
<asrwt>0</asrwt>
<pdfrwt beam="1">  1       21 0.14131124E-01 0.17512021E+03</pdfrwt>
<pdfrwt beam="2">  1       21 0.68436598E-01 0.17512021E+03</pdfrwt>
<totfact> 0.85752054E+04</totfact>
</mgrwt>
</event>
<event>
12    1  0.1013215E-001  0.2078363E+03  0.7546771E-02  0.1143738E+00
         21   -1    0    0  503  502  0.00000000000E+00  0.00000000000E+00  0.18284032096E+03  0.18284032096E+03  0.00000000000E+00 0. -1.
         21   -1    0    0  501  503 -0.00000000000E+00 -0.00000000000E+00 -0.41842105267E+03  0.41842105267E+03  0.00000000000E+00 0.  1.
          6    2    1    2  501    0  0.10116475472E+03  0.46413858387E+02 -0.31716451209E+03  0.37798610561E+03  0.17289191552E+03 0.  0.
         24    2    3    3    0    0  0.61794989874E+02 -0.16418582134E+02 -0.27165685007E+03  0.29086015500E+03  0.81938970991E+02 0.  0.
         -6    2    1    2    0  502 -0.10116475472E+03 -0.46413858387E+02  0.81583780386E+02  0.22327526803E+03  0.17552030721E+03 0.  0.
        -24    2    5    5    0    0 -0.91491866030E+02 -0.58968384686E+02  0.11769279666E+03  0.18356214725E+03  0.89417199549E+02 0.  0.
          5    1    3    3  501    0  0.39369764843E+02  0.62832440521E+02 -0.45507662026E+02  0.87125950604E+02  0.47000000000E+01 0. -1.
        -13    1    4    4    0    0 -0.10656223558E+01 -0.24222922598E+02 -0.16530502181E+03  0.16707374350E+03  0.00000000000E+00 0.  1.
         14    1    4    4    0    0  0.62860612230E+02  0.78043404642E+01 -0.10635182826E+03  0.12378641151E+03  0.00000000000E+00 0. -1.
         -5    1    5    5    0  502 -0.96728886877E+01  0.12554526299E+02 -0.36109016269E+02  0.39713120780E+02  0.47000000000E+01 0.  1.
         11    1    6    6    0    0 -0.57079459550E+02 -0.70285102497E+02  0.42339350749E+02  0.99953393926E+02  0.00000000000E+00 0. -1.
        -12    1    6    6    0    0 -0.34412406480E+02  0.11316717812E+02  0.75353445906E+02  0.83608753320E+02  0.00000000000E+00 0.  1.
<mgrwt>
<rscale>  2 0.20728036E+03</rscale>
<asrwt>0</asrwt>
<pdfrwt beam="1">  1       21 0.28129280E-01 0.20783631E+03</pdfrwt>
<pdfrwt beam="2">  1       21 0.64372469E-01 0.20783631E+03</pdfrwt>
<totfact> 0.26649983E+04</totfact>
</mgrwt>
</event>
<event>
12    1  0.1013215E-001  0.3699051E+03  0.7546771E-02  0.1054809E+00
         21   -1    0    0  501  502  0.00000000000E+00  0.00000000000E+00  0.77429319525E+03  0.77429319525E+03  0.00000000000E+00 0.  1.
         21   -1    0    0  502  503 -0.00000000000E+00 -0.00000000000E+00 -0.23553195034E+03  0.23553195034E+03  0.00000000000E+00 0.  1.
         -6    2    1    2    0  503  0.12989076194E+03  0.29889672147E+03  0.16445853466E+02  0.37027051690E+03  0.17498265470E+03 0.  0.
        -24    2    3    3    0    0  0.34498241165E+02  0.21566845550E+03  0.53050038059E+02  0.23840454856E+03  0.79494722433E+02 0.  0.
          6    2    1    2  501    0 -0.12989076194E+03 -0.29889672147E+03  0.52231539145E+03  0.63955462868E+03  0.17322209670E+03 0.  0.
         24    2    5    5    0    0 -0.14777510037E+03 -0.24656315678E+03  0.35802970229E+03  0.46614606714E+03  0.80473707625E+02 0.  0.
          5    1    5    5  501    0  0.17884338432E+02 -0.52333564691E+02  0.16428568916E+03  0.17340856154E+03  0.47000000000E+01 0. -1.
        -11    1    6    6    0    0 -0.88696782592E+02 -0.20852959801E+03  0.25150189602E+03  0.33853347869E+03  0.00000000000E+00 0.  1.
         12    1    6    6    0    0 -0.59078317783E+02 -0.38033558772E+02  0.10652780626E+03  0.12761258845E+03  0.00000000000E+00 0. -1.
         -5    1    3    3    0  503  0.95392520778E+02  0.83228265975E+02 -0.36604184594E+02  0.13186596834E+03  0.47000000000E+01 0.  1.
         13    1    4    4    0    0 -0.20488321877E+02  0.18476306473E+02  0.88354395808E+01  0.28969125406E+02  0.00000000000E+00 0. -1.
        -14    1    4    4    0    0  0.54986563042E+02  0.19719214902E+03  0.44214598479E+02  0.20943542315E+03  0.00000000000E+00 0.  1.
<mgrwt>
<rscale>  2 0.36969754E+03</rscale>
<asrwt>0</asrwt>
<pdfrwt beam="1">  1       21 0.11912203E+00 0.36990511E+03</pdfrwt>
<pdfrwt beam="2">  1       21 0.36235685E-01 0.36990511E+03</pdfrwt>
<totfact> 0.35463093E+03</totfact>
</mgrwt>
</event>
<event>
12    1  0.1013215E-001  0.1951091E+03  0.7546771E-02  0.1153959E+00
         21   -1    0    0  501  502  0.00000000000E+00  0.00000000000E+00  0.28118004780E+03  0.28118004780E+03  0.00000000000E+00 0.  1.
         21   -1    0    0  502  503 -0.00000000000E+00 -0.00000000000E+00 -0.19607717408E+03  0.19607717408E+03  0.00000000000E+00 0.  1.
         -6    2    1    2    0  503 -0.59112530096E+02  0.67997163145E+02 -0.90312266873E+02  0.21488718991E+03  0.17292279616E+03 0.  0.
        -24    2    3    3    0    0 -0.45678233171E+02  0.48453075761E+02  0.16006624016E+02  0.10585394615E+03  0.80713346893E+02 0.  0.
          6    2    1    2  501    0  0.59112530096E+02 -0.67997163145E+02  0.17541514060E+03  0.26237003197E+03  0.17305969120E+03 0.  0.
         24    2    5    5    0    0 -0.72274928244E+01  0.31741264117E+02  0.69125622714E+02  0.10215672377E+03  0.67807816625E+02 0.  0.
          5    1    5    5  501    0  0.66340022920E+02 -0.99738427262E+02  0.10628951788E+03  0.16021330820E+03  0.47000000000E+01 0. -1.
        -13    1    6    6    0    0 -0.15169889312E+02 -0.18688323822E+02  0.19774801398E+02  0.31151593207E+02  0.00000000000E+00 0.  1.
         14    1    6    6    0    0  0.79423964879E+01  0.50429587938E+02  0.49350821316E+02  0.71005130562E+02  0.00000000000E+00 0. -1.
         -5    1    3    3    0  503 -0.13434296925E+02  0.19544087384E+02 -0.10631889089E+03  0.10903324376E+03  0.47000000000E+01 0.  1.
         11    1    4    4    0    0 -0.52201173795E+02  0.58679879937E+02  0.32821281909E+02  0.85120663773E+02  0.00000000000E+00 0. -1.
        -12    1    4    4    0    0  0.65229406244E+01 -0.10226804176E+02 -0.16814657893E+02  0.20733282376E+02  0.00000000000E+00 0.  1.
<mgrwt>
<rscale>  2 0.19507874E+03</rscale>
<asrwt>0</asrwt>
<pdfrwt beam="1">  1       21 0.43258469E-01 0.19510910E+03</pdfrwt>
<pdfrwt beam="2">  1       21 0.30165719E-01 0.19510910E+03</pdfrwt>
<totfact> 0.54101236E+04</totfact>
</mgrwt>
</event>
<event>
12    1  0.1013215E-001  0.2239135E+03  0.7546771E-02  0.1131366E+00
         21   -1    0    0  501  502  0.00000000000E+00  0.00000000000E+00  0.18770480670E+04  0.18770480670E+04  0.00000000000E+00 0.  1.
         21   -1    0    0  502  503 -0.00000000000E+00 -0.00000000000E+00 -0.78422922468E+02  0.78422922468E+02  0.00000000000E+00 0.  1.
         -6    2    1    2    0  503 -0.47797614764E+02 -0.13196115694E+03  0.10489463327E+03  0.24726535751E+03  0.17446751566E+03 0.  0.
        -24    2    3    3    0    0 -0.25998570204E+02 -0.15488598732E+03  0.11895341397E+03  0.21232990980E+03  0.79173740469E+02 0.  0.
          6    2    1    2  501    0  0.47797614764E+02  0.13196115694E+03  0.16937305112E+04  0.17082056319E+04  0.17188681556E+03 0.  0.
         24    2    5    5    0    0  0.72741323310E+02  0.14517228218E+03  0.15985465668E+04  0.16088135009E+04  0.81015201900E+02 0.  0.
          5    1    5    5  501    0 -0.24943708545E+02 -0.13211125243E+02  0.95183944478E+02  0.99392131039E+02  0.47000000000E+01 0. -1.
        -11    1    6    6    0    0  0.49906859465E+02  0.22687357339E+02  0.38415493268E+03  0.38804693416E+03  0.00000000000E+00 0.  1.
         12    1    6    6    0    0  0.22834463845E+02  0.12248492484E+03  0.12143916341E+04  0.12207665667E+04  0.00000000000E+00 0. -1.
         -5    1    3    3    0  503 -0.21799044560E+02  0.22924830386E+02 -0.14058780699E+02  0.34935447710E+02  0.47000000000E+01 0.  1.
         11    1    4    4    0    0  0.15453797670E+02 -0.60037204597E+02  0.11356373358E+02  0.63025812285E+02  0.00000000000E+00 0. -1.
        -12    1    4    4    0    0 -0.41452367874E+02 -0.94848782723E+02  0.10759704061E+03  0.14930409752E+03  0.00000000000E+00 0.  1.
<mgrwt>
<rscale>  2 0.22341062E+03</rscale>
<asrwt>0</asrwt>
<pdfrwt beam="1">  1       21 0.28877659E+00 0.22391354E+03</pdfrwt>
<pdfrwt beam="2">  1       21 0.12065066E-01 0.22391354E+03</pdfrwt>
<totfact> 0.22205228E+03</totfact>
</mgrwt>
</event>
<event>
12    1  0.1013215E-001  0.1891012E+03  0.7546771E-02  0.1159489E+00
         21   -1    0    0  501  502  0.00000000000E+00  0.00000000000E+00  0.56324768313E+02  0.56324768313E+02  0.00000000000E+00 0.  1.
         21   -1    0    0  502  503 -0.00000000000E+00 -0.00000000000E+00 -0.10765322258E+04  0.10765322258E+04  0.00000000000E+00 0. -1.
         -6    2    1    2    0  503  0.36505325810E+02 -0.68905511946E+02 -0.87345649347E+03  0.89349302277E+03  0.17123938611E+03 0.  0.
        -24    2    3    3    0    0 -0.17669017754E+02 -0.39411505373E+01 -0.49511562753E+03  0.50578291380E+03  0.10173074467E+03 0.  0.
          6    2    1    2  501    0 -0.36505325810E+02  0.68905511946E+02 -0.14675096401E+03  0.23936397134E+03  0.17227494579E+03 0.  0.
         24    2    5    5    0    0  0.25876052872E+02  0.84081099971E+02 -0.67787325572E+02  0.13748619617E+03  0.81044007455E+02 0.  0.
          5    1    5    5  501    0 -0.62381378682E+02 -0.15175588025E+02 -0.78963638433E+02  0.10187777517E+03  0.47000000000E+01 0. -1.
        -13    1    6    6    0    0  0.20527263546E+02  0.88449916830E+02 -0.25047527392E+02  0.94192011150E+02  0.00000000000E+00 0.  1.
         14    1    6    6    0    0  0.53487893260E+01 -0.43688168592E+01 -0.42739798181E+02  0.43294185020E+02  0.00000000000E+00 0. -1.
         -5    1    3    3    0  503  0.54174343563E+02 -0.64964361409E+02 -0.37834086595E+03  0.38771010897E+03  0.47000000000E+01 0.  1.
         11    1    4    4    0    0 -0.16224587531E+02 -0.34843225338E+02 -0.44655142637E+03  0.44820248101E+03  0.00000000000E+00 0. -1.
        -12    1    4    4    0    0 -0.14444302229E+01  0.30902074801E+02 -0.48564201160E+02  0.57580432788E+02  0.00000000000E+00 0.  1.
<mgrwt>
<rscale>  2 0.18886503E+03</rscale>
<asrwt>0</asrwt>
<pdfrwt beam="1">  1       21 0.86653496E-02 0.18910120E+03</pdfrwt>
<pdfrwt beam="2">  1       21 0.16562033E+00 0.18910120E+03</pdfrwt>
<totfact> 0.23982319E+04</totfact>
</mgrwt>
</event>
<event>
12    1  0.1013215E-001  0.1837220E+03  0.7546771E-02  0.1165377E+00
         21   -1    0    0  503  502  0.00000000000E+00  0.00000000000E+00  0.11117921055E+03  0.11117921055E+03  0.00000000000E+00 0.  1.
         21   -1    0    0  501  503 -0.00000000000E+00 -0.00000000000E+00 -0.29777573769E+03  0.29777573769E+03  0.00000000000E+00 0.  1.
          6    2    1    2  501    0  0.37057310060E+02  0.38503227450E+02 -0.11096194551E+03  0.21463066914E+03  0.17577834915E+03 0.  0.
         24    2    3    3    0    0  0.55961738330E+01 -0.45470680351E+01  0.93462260034E+01  0.82951980022E+02  0.82107771007E+02 0.  0.
         -6    2    1    2    0  502 -0.37057310060E+02 -0.38503227450E+02 -0.75634581618E+02  0.19432427910E+03  0.17083791370E+03 0.  0.
        -24    2    5    5    0    0 -0.88871151337E+02 -0.31753298696E+02 -0.69565480658E+02  0.14151178368E+03  0.79245664254E+02 0.  0.
          5    1    3    3  501    0  0.31461136227E+02  0.43050295485E+02 -0.12030817152E+03  0.13167868912E+03  0.47000000000E+01 0. -1.
        -11    1    4    4    0    0  0.16782185668E+00  0.38750413600E+02  0.56292730791E+01  0.39157520781E+02  0.00000000000E+00 0.  1.
         12    1    4    4    0    0  0.54283519763E+01 -0.43297481635E+02  0.37169529243E+01  0.43794459240E+02  0.00000000000E+00 0. -1.
         -5    1    5    5    0  502  0.51813841277E+02 -0.67499287545E+01 -0.60691009600E+01  0.52812495420E+02  0.47000000000E+01 0.  1.
         13    1    6    6    0    0 -0.34812125237E+02  0.25277656153E+02 -0.13895287304E+02  0.45209766350E+02  0.00000000000E+00 0. -1.
        -14    1    6    6    0    0 -0.54059026100E+02 -0.57030954849E+02 -0.55670193354E+02  0.96302017330E+02  0.00000000000E+00 0.  1.
<mgrwt>
<rscale>  2 0.18253018E+03</rscale>
<asrwt>0</asrwt>
<pdfrwt beam="1">  1       21 0.17104494E-01 0.18372199E+03</pdfrwt>
<pdfrwt beam="2">  1       21 0.45811652E-01 0.18372199E+03</pdfrwt>
<totfact> 0.14131535E+05</totfact>
</mgrwt>
</event>
<event>
12    1  0.1013215E-001  0.1808715E+03  0.7546771E-02  0.1167293E+00
         21   -1    0    0  501  502  0.00000000000E+00  0.00000000000E+00  0.37468007441E+03  0.37468007441E+03  0.00000000000E+00 0.  1.
         21   -1    0    0  502  503 -0.00000000000E+00 -0.00000000000E+00 -0.11028496394E+03  0.11028496394E+03  0.00000000000E+00 0.  1.
         -6    2    1    2    0  503  0.19895164032E+02  0.37170704514E+02  0.20347066032E+02  0.18201236901E+03  0.17588922807E+03 0.  0.
        -24    2    3    3    0    0  0.37388633895E+02  0.27337734445E+01  0.72979471431E+02  0.11655869220E+03  0.82792161560E+02 0.  0.
          6    2    1    2  501    0 -0.19895164032E+02 -0.37170704514E+02  0.24404804443E+03  0.30295266934E+03  0.17448035145E+03 0.  0.
         24    2    5    5    0    0  0.29594818680E+01 -0.87366751883E+02  0.13594701136E+03  0.18150349742E+03  0.82584634213E+02 0.  0.
          5    1    5    5  501    0 -0.22854645900E+02  0.50196047368E+02  0.10810103307E+03  0.12144917193E+03  0.47000000000E+01 0. -1.
        -13    1    6    6    0    0 -0.29929600292E+02 -0.39974328904E+02  0.10446118380E+03  0.11578370726E+03  0.00000000000E+00 0.  1.
         14    1    6    6    0    0  0.32889082160E+02 -0.47392422979E+02  0.31485827560E+02  0.65719790157E+02  0.00000000000E+00 0. -1.
         -5    1    3    3    0  503 -0.17493469863E+02  0.34436931070E+02 -0.52632405399E+02  0.65453676806E+02  0.47000000000E+01 0.  1.
         13    1    4    4    0    0  0.43798227162E+02  0.29383677265E+02  0.19074092723E+02  0.56084812609E+02  0.00000000000E+00 0. -1.
        -14    1    4    4    0    0 -0.64095932672E+01 -0.26649903820E+02  0.53905378707E+02  0.60473879593E+02  0.00000000000E+00 0.  1.
<mgrwt>
<rscale>  2 0.18052808E+03</rscale>
<asrwt>0</asrwt>
<pdfrwt beam="1">  1       21 0.57643088E-01 0.18087150E+03</pdfrwt>
<pdfrwt beam="2">  1       21 0.16966918E-01 0.18087150E+03</pdfrwt>
<totfact> 0.88807167E+04</totfact>
</mgrwt>
</event>
<event>
12    1  0.1013215E-001  0.1874164E+03  0.7546771E-02  0.1161175E+00
         21   -1    0    0  503  502  0.00000000000E+00  0.00000000000E+00  0.64865781264E+03  0.64865781264E+03  0.00000000000E+00 0.  1.
         21   -1    0    0  501  503 -0.00000000000E+00 -0.00000000000E+00 -0.66040899208E+02  0.66040899208E+02  0.00000000000E+00 0.  1.
          6    2    1    2  501    0 -0.69893036862E+02 -0.13729491313E+02  0.44480427675E+03  0.48206761199E+03  0.17165314556E+03 0.  0.
         24    2    3    3    0    0 -0.33265859656E+02  0.56485775650E+02  0.21473492476E+03  0.23870424057E+03  0.81063964153E+02 0.  0.
         -6    2    1    2    0  502  0.69893036862E+02  0.13729491313E+02  0.13781263668E+03  0.23263109985E+03  0.17335331049E+03 0.  0.
        -24    2    5    5    0    0  0.98852131563E+02  0.42465389998E+02  0.64883176534E+02  0.14893416326E+03  0.79978154051E+02 0.  0.
          5    1    3    3  501    0 -0.36627177206E+02 -0.70215266963E+02  0.23006935199E+03  0.24336337143E+03  0.47000000000E+01 0. -1.
        -13    1    4    4    0    0 -0.35815047460E+02  0.27310245710E+02  0.20166526021E+03  0.20663359921E+03  0.00000000000E+00 0.  1.
         14    1    4    4    0    0  0.25491878036E+01  0.29175529940E+02  0.13069664544E+02  0.32070641357E+02  0.00000000000E+00 0. -1.
         -5    1    5    5    0  502 -0.28959094700E+02 -0.28735898685E+02  0.72929460144E+02  0.83696936599E+02  0.47000000000E+01 0.  1.
         11    1    6    6    0    0  0.48188146204E+02  0.62654873603E+02  0.32180493152E+02  0.85342338615E+02  0.00000000000E+00 0. -1.
        -12    1    6    6    0    0  0.50663985359E+02 -0.20189483606E+02  0.32702683382E+02  0.63591824640E+02  0.00000000000E+00 0.  1.
<mgrwt>
<rscale>  2 0.18702229E+03</rscale>
<asrwt>0</asrwt>
<pdfrwt beam="1">  1       21 0.99793505E-01 0.18741640E+03</pdfrwt>
<pdfrwt beam="2">  1       21 0.10160139E-01 0.18741640E+03</pdfrwt>
<totfact> 0.65248853E+04</totfact>
</mgrwt>
</event>
<event>
12    1  0.1013215E-001  0.2506122E+03  0.7546771E-02  0.1112940E+00
         21   -1    0    0  501  502  0.00000000000E+00  0.00000000000E+00  0.74896153346E+03  0.74896153346E+03  0.00000000000E+00 0. -1.
         21   -1    0    0  502  503 -0.00000000000E+00 -0.00000000000E+00 -0.98670222827E+02  0.98670222827E+02  0.00000000000E+00 0. -1.
         -6    2    1    2    0  503  0.64387035475E+02  0.17002635500E+03  0.48968655267E+03  0.55009032999E+03  0.17248709967E+03 0.  0.
        -24    2    3    3    0    0  0.99975327716E+01  0.29250622744E+02  0.10504761852E+03  0.13687703826E+03  0.82126559983E+02 0.  0.
          6    2    1    2  501    0 -0.64387035475E+02 -0.17002635500E+03  0.16060475796E+03  0.29754142629E+03  0.17228569398E+03 0.  0.
         24    2    5    5    0    0 -0.76084043734E+02 -0.43887203946E+02  0.41666192657E+02  0.12371283904E+03  0.76510957070E+02 0.  0.
          5    1    5    5  501    0  0.11697008259E+02 -0.12613915105E+03  0.11893856530E+03  0.17382858725E+03  0.47000000000E+01 0. -1.
        -11    1    6    6    0    0 -0.13731846469E+02  0.16263737624E+01  0.44364271742E+02  0.46469315750E+02  0.00000000000E+00 0.  1.
         12    1    6    6    0    0 -0.62352197264E+02 -0.45513577709E+02 -0.26980790850E+01  0.77243523290E+02  0.00000000000E+00 0. -1.
         -5    1    3    3    0  503  0.54389502703E+02  0.14077573225E+03  0.38463893415E+03  0.41321329172E+03  0.47000000000E+01 0.  1.
         11    1    4    4    0    0  0.98897446273E+01  0.56261294716E+02  0.51540323685E+02  0.76938581333E+02  0.00000000000E+00 0. -1.
        -12    1    4    4    0    0  0.10778814424E+00 -0.27010671972E+02  0.53507294835E+02  0.59938456931E+02  0.00000000000E+00 0.  1.
<mgrwt>
<rscale>  2 0.25057750E+03</rscale>
<asrwt>0</asrwt>
<pdfrwt beam="1">  1       21 0.11522485E+00 0.25061215E+03</pdfrwt>
<pdfrwt beam="2">  1       21 0.15180035E-01 0.25061215E+03</pdfrwt>
<totfact> 0.21673857E+04</totfact>
</mgrwt>
</event>
<event>
12    1  0.1013215E-001  0.2229465E+03  0.7546771E-02  0.1131715E+00
         21   -1    0    0  501  502  0.00000000000E+00  0.00000000000E+00  0.20772892609E+03  0.20772892609E+03  0.00000000000E+00 0. -1.
         21   -1    0    0  502  503 -0.00000000000E+00 -0.00000000000E+00 -0.28231802495E+03  0.28231802495E+03  0.00000000000E+00 0.  1.
         -6    2    1    2    0  503 -0.93949084002E+02 -0.10618714259E+03  0.58437081153E+02  0.23047784541E+03  0.17205523861E+03 0.  0.
        -24    2    3    3    0    0 -0.97640562403E+02 -0.13863928953E+03  0.63724337606E+02  0.19705907920E+03  0.77569049671E+02 0.  0.
          6    2    1    2  501    0  0.93949084002E+02  0.10618714259E+03 -0.13302618001E+03  0.25956910563E+03  0.17198260491E+03 0.  0.
         24    2    5    5    0    0  0.97846115967E+02  0.11970981149E+03 -0.58859284723E+02  0.18393268722E+03  0.80389779531E+02 0.  0.
          5    1    5    5  501    0 -0.38970319653E+01 -0.13522668900E+02 -0.74166895291E+02  0.75636418406E+02  0.47000000000E+01 0. -1.
        -11    1    6    6    0    0  0.94143920562E+02  0.65861283428E+02 -0.18134472511E+02  0.11631700446E+03  0.00000000000E+00 0.  1.
         12    1    6    6    0    0  0.37021954054E+01  0.53848528062E+02 -0.40724812212E+02  0.67615682759E+02  0.00000000000E+00 0. -1.
         -5    1    3    3    0  503  0.36914784012E+01  0.32452146938E+02 -0.52872564530E+01  0.33418766202E+02  0.47000000000E+01 0.  1.
         11    1    4    4    0    0 -0.55084685989E+02 -0.18314460078E+02  0.11602013549E+02  0.59197540463E+02  0.00000000000E+00 0. -1.
        -12    1    4    4    0    0 -0.42555876414E+02 -0.12032482945E+03  0.52122324057E+02  0.13786153874E+03  0.00000000000E+00 0.  1.
<mgrwt>
<rscale>  2 0.22293249E+03</rscale>
<asrwt>0</asrwt>
<pdfrwt beam="1">  1       21 0.31958296E-01 0.22294651E+03</pdfrwt>
<pdfrwt beam="2">  1       21 0.43433542E-01 0.22294651E+03</pdfrwt>
<totfact> 0.47291552E+04</totfact>
</mgrwt>
</event>
<event>
12    1  0.1013215E-001  0.1818560E+03  0.7546771E-02  0.1166023E+00
         21   -1    0    0  503  502  0.00000000000E+00  0.00000000000E+00  0.87978545694E+03  0.87978545694E+03  0.00000000000E+00 0.  1.
         21   -1    0    0  501  503 -0.00000000000E+00 -0.00000000000E+00 -0.71973448652E+02  0.71973448652E+02  0.00000000000E+00 0.  1.
          6    2    1    2  501    0  0.35043592954E+02 -0.41300826445E+02  0.74965067853E+02  0.19668524690E+03  0.17358431173E+03 0.  0.
         24    2    3    3    0    0  0.23416500919E+02 -0.58439624928E+02  0.11364374520E+03  0.15255976941E+03  0.79975372108E+02 0.  0.
         -6    2    1    2    0  502 -0.35043592954E+02  0.41300826445E+02  0.73284694043E+03  0.75507365869E+03  0.17360236252E+03 0.  0.
        -24    2    5    5    0    0 -0.15924398995E+02 -0.36822255922E+02  0.51687477050E+03  0.52456372883E+03  0.79988200469E+02 0.  0.
          5    1    3    3  501    0  0.11627092035E+02  0.17138798483E+02 -0.38678677343E+02  0.44125477489E+02  0.47000000000E+01 0. -1.
        -11    1    4    4    0    0 -0.77899547212E+01 -0.15727667745E+02 -0.84648964446E+01  0.19485825593E+02  0.00000000000E+00 0.  1.
         12    1    4    4    0    0  0.31206455640E+02 -0.42711957183E+02  0.12210864164E+03  0.13307394382E+03  0.00000000000E+00 0. -1.
         -5    1    5    5    0  502 -0.19119193959E+02  0.78123082367E+02  0.21597216993E+03  0.23050992985E+03  0.47000000000E+01 0.  1.
         11    1    6    6    0    0 -0.13460536392E+02  0.24368304318E+02  0.13925526008E+03  0.14201066071E+03  0.00000000000E+00 0. -1.
        -12    1    6    6    0    0 -0.24638626027E+01 -0.61190560240E+02  0.37761951042E+03  0.38255306812E+03  0.00000000000E+00 0.  1.
<mgrwt>
<rscale>  2 0.18185166E+03</rscale>
<asrwt>0</asrwt>
<pdfrwt beam="1">  1       21 0.13535160E+00 0.18185596E+03</pdfrwt>
<pdfrwt beam="2">  1       21 0.11072839E-01 0.18185596E+03</pdfrwt>
<totfact> 0.26609527E+04</totfact>
</mgrwt>
</event>
<event>
12    1  0.1013215E-001  0.2183066E+03  0.7546771E-02  0.1135391E+00
         21   -1    0    0  503  502  0.00000000000E+00  0.00000000000E+00  0.49973437464E+03  0.49973437464E+03  0.00000000000E+00 0. -1.
         21   -1    0    0  501  503 -0.00000000000E+00 -0.00000000000E+00 -0.95274815734E+02  0.95274815734E+02  0.00000000000E+00 0.  1.
          6    2    1    2  501    0 -0.12382690329E+03  0.48095684590E+02  0.18210419434E+03  0.28428808691E+03  0.17323822300E+03 0.  0.
         24    2    3    3    0    0 -0.72382841238E+02 -0.17786288000E+02  0.17694227994E+02  0.99789705164E+02  0.63947414381E+02 0.  0.
         -6    2    1    2    0  502  0.12382690329E+03 -0.48095684590E+02  0.22235536456E+03  0.31072110346E+03  0.17163740597E+03 0.  0.
        -24    2    5    5    0    0  0.54984353058E+02  0.33205897869E+02  0.14733690152E+03  0.18034049206E+03  0.81783982475E+02 0.  0.
          5    1    3    3  501    0 -0.51444062057E+02  0.65881972590E+02  0.16440996635E+03  0.18449838175E+03  0.47000000000E+01 0. -1.
        -13    1    4    4    0    0 -0.41842202432E+02  0.86977913054E+00  0.39775768804E+02  0.57737667116E+02  0.00000000000E+00 0.  1.
         14    1    4    4    0    0 -0.30540638806E+02 -0.18656067130E+02 -0.22081540810E+02  0.42052038048E+02  0.00000000000E+00 0. -1.
         -5    1    5    5    0  502  0.68842550237E+02 -0.81301582460E+02  0.75018463039E+02  0.13038061140E+03  0.47000000000E+01 0.  1.
         11    1    6    6    0    0 -0.20005776172E+02 -0.29473485844E+01  0.36414174919E+02  0.41652251787E+02  0.00000000000E+00 0. -1.
        -12    1    6    6    0    0  0.74990129230E+02  0.36153246454E+02  0.11092272661E+03  0.13868824027E+03  0.00000000000E+00 0.  1.
<mgrwt>
<rscale>  2 0.21798889E+03</rscale>
<asrwt>0</asrwt>
<pdfrwt beam="1">  1       21 0.76882210E-01 0.21830662E+03</pdfrwt>
<pdfrwt beam="2">  1       21 0.14657664E-01 0.21830662E+03</pdfrwt>
<totfact> 0.60808779E+04</totfact>
</mgrwt>
</event>
<event>
12    1  0.1013215E-001  0.2016964E+03  0.7546771E-02  0.1148910E+00
         21   -1    0    0  503  502  0.00000000000E+00  0.00000000000E+00  0.13076355765E+04  0.13076355765E+04  0.00000000000E+00 0.  1.
         21   -1    0    0  501  503 -0.00000000000E+00 -0.00000000000E+00 -0.57433985723E+02  0.57433985723E+02  0.00000000000E+00 0.  1.
          6    2    1    2  501    0  0.79408261250E+02  0.59066963538E+02  0.16159219493E+03  0.25844430556E+03  0.17574653191E+03 0.  0.
         24    2    3    3    0    0  0.11353143606E+03  0.13263957616E+02  0.13983593681E+03  0.19714396969E+03  0.79033765052E+02 0.  0.
         -6    2    1    2    0  502 -0.79408261250E+02 -0.59066963538E+02  0.10886093959E+04  0.11066252567E+04  0.17249482257E+03 0.  0.
        -24    2    5    5    0    0 -0.10575375618E+03 -0.14531036632E+02  0.57269173232E+03  0.58809786159E+03  0.80549777015E+02 0.  0.
          5    1    3    3  501    0 -0.34123174806E+02  0.45803005923E+02  0.21756258119E+02  0.61300335869E+02  0.47000000000E+01 0. -1.
        -13    1    4    4    0    0 -0.99159654608E+01 -0.89986777466E+01  0.11008441009E+02  0.17334599668E+02  0.00000000000E+00 0.  1.
         14    1    4    4    0    0  0.12344740152E+03  0.22262635362E+02  0.12882749580E+03  0.17980937002E+03  0.00000000000E+00 0. -1.
         -5    1    5    5    0  502  0.26345494931E+02 -0.44535926907E+02  0.51591766355E+03  0.51852739508E+03  0.47000000000E+01 0.  1.
         11    1    6    6    0    0 -0.74906554333E+02 -0.46333745699E+02  0.41843485959E+03  0.42760441952E+03  0.00000000000E+00 0. -1.
        -12    1    6    6    0    0 -0.30847201848E+02  0.31802709068E+02  0.15425687273E+03  0.16049344208E+03  0.00000000000E+00 0.  1.
<mgrwt>
<rscale>  2 0.20098588E+03</rscale>
<asrwt>0</asrwt>
<pdfrwt beam="1">  1       21 0.20117468E+00 0.20169636E+03</pdfrwt>
<pdfrwt beam="2">  1       21 0.88359988E-02 0.20169636E+03</pdfrwt>
<totfact> 0.13215761E+04</totfact>
</mgrwt>
</event>
<event>
12    1  0.1013215E-001  0.2019392E+03  0.7546771E-02  0.1148350E+00
         21   -1    0    0  503  502  0.00000000000E+00  0.00000000000E+00  0.78110897574E+03  0.78110897574E+03  0.00000000000E+00 0.  1.
         21   -1    0    0  501  503 -0.00000000000E+00 -0.00000000000E+00 -0.52588853445E+02  0.52588853445E+02  0.00000000000E+00 0. -1.
          6    2    1    2  501    0  0.98359221075E+02 -0.24688190828E+02  0.41045535628E+03  0.45694241033E+03  0.17331683045E+03 0.  0.
         24    2    3    3    0    0  0.49166576493E+02 -0.81154804759E+02  0.27119923598E+03  0.29875659614E+03  0.81871994953E+02 0.  0.
         -6    2    1    2    0  502 -0.98359221075E+02  0.24688190828E+02  0.31806476601E+03  0.37675541886E+03  0.17462934211E+03 0.  0.
        -24    2    5    5    0    0 -0.10551119720E+03 -0.14197793057E+02  0.30007700740E+03  0.33306423022E+03  0.97731167074E+02 0.  0.
          5    1    3    3  501    0  0.49192644583E+02  0.56466613932E+02  0.13925612030E+03  0.15818581419E+03  0.47000000000E+01 0. -1.
        -11    1    4    4    0    0 -0.22976067082E+02 -0.24157002771E+02  0.75754081030E+02  0.82765580008E+02  0.00000000000E+00 0.  1.
         12    1    4    4    0    0  0.72142643574E+02 -0.56997801988E+02  0.19544515495E+03  0.21599101613E+03  0.00000000000E+00 0. -1.
         -5    1    5    5    0  502  0.71519761258E+01  0.38885983884E+02  0.17987758615E+02  0.43691188644E+02  0.47000000000E+01 0.  1.
         13    1    6    6    0    0 -0.86610696335E+02 -0.19018437616E+01  0.10250591776E+03  0.13421062888E+03  0.00000000000E+00 0. -1.
        -14    1    6    6    0    0 -0.18900500866E+02 -0.12295949295E+02  0.19757108964E+03  0.19885360133E+03  0.00000000000E+00 0.  1.
<mgrwt>
<rscale>  2 0.20165514E+03</rscale>
<asrwt>0</asrwt>
<pdfrwt beam="1">  1       21 0.12017060E+00 0.20193922E+03</pdfrwt>
<pdfrwt beam="2">  1       21 0.80905934E-02 0.20193922E+03</pdfrwt>
<totfact> 0.61632460E+04</totfact>
</mgrwt>
</event>
<event>
12    1  0.1013215E-001  0.2050284E+03  0.7546771E-02  0.1149264E+00
         21   -1    0    0  503  502  0.00000000000E+00  0.00000000000E+00  0.45164334430E+03  0.45164334430E+03  0.00000000000E+00 0.  1.
         21   -1    0    0  501  503 -0.00000000000E+00 -0.00000000000E+00 -0.11489490557E+04  0.11489490557E+04  0.00000000000E+00 0.  1.
          6    2    1    2  501    0  0.48091833346E+02 -0.56976307011E+02 -0.11174385481E+04  0.11331009578E+04  0.17230713247E+03 0.  0.
         24    2    3    3    0    0 -0.29633296483E+02 -0.34060022067E+02 -0.79714311525E+03  0.80268061007E+03  0.82588123980E+02 0.  0.
         -6    2    1    2    0  502 -0.48091833346E+02  0.56976307011E+02  0.42013283672E+03  0.46749144214E+03  0.19099090026E+03 0.  0.
        -24    2    5    5    0    0 -0.90271608464E+02  0.78856623292E+02  0.23075164857E+03  0.27218346458E+03  0.80437458579E+02 0.  0.
          5    1    3    3  501    0  0.77725129829E+02 -0.22916284944E+02 -0.32029543282E+03  0.33042034775E+03  0.47000000000E+01 0. -1.
        -11    1    4    4    0    0 -0.12195341122E+01 -0.43794948326E+02 -0.69050264905E+03  0.69189117143E+03  0.00000000000E+00 0.  1.
         12    1    4    4    0    0 -0.28413762370E+02  0.97349262588E+01 -0.10664046620E+03  0.11078943864E+03  0.00000000000E+00 0. -1.
         -5    1    5    5    0  502  0.42179775118E+02 -0.21880316281E+02  0.18938118816E+03  0.19530797756E+03  0.47000000000E+01 0.  1.
         11    1    6    6    0    0  0.17627612543E+01  0.19056105918E+02  0.30084538252E+01  0.19372488080E+02  0.00000000000E+00 0. -1.
        -12    1    6    6    0    0 -0.92034369718E+02  0.59800517375E+02  0.22774319474E+03  0.25281097650E+03  0.00000000000E+00 0.  1.
<mgrwt>
<rscale>  2 0.20056432E+03</rscale>
<asrwt>0</asrwt>
<pdfrwt beam="1">  1       21 0.69483591E-01 0.20502841E+03</pdfrwt>
<pdfrwt beam="2">  1       21 0.17676139E+00 0.20502841E+03</pdfrwt>
<totfact> 0.35532870E+02</totfact>
</mgrwt>
</event>
<event>
12    1  0.1013215E-001  0.2037429E+03  0.7546771E-02  0.1146892E+00
         21   -1    0    0  501  502  0.00000000000E+00  0.00000000000E+00  0.82136498015E+03  0.82136498015E+03  0.00000000000E+00 0. -1.
         21   -1    0    0  502  503 -0.00000000000E+00 -0.00000000000E+00 -0.71984364517E+02  0.71984364517E+02  0.00000000000E+00 0. -1.
         -6    2    1    2    0  503 -0.43307806271E+02  0.97627291373E+02  0.12818837245E+03  0.23959788335E+03  0.17195415892E+03 0.  0.
        -24    2    3    3    0    0 -0.36085875530E+02  0.13486627612E+03  0.11849582370E+03  0.20016523483E+03  0.80831665536E+02 0.  0.
          6    2    1    2  501    0  0.43307806271E+02 -0.97627291373E+02  0.62119224318E+03  0.65375146132E+03  0.17350653035E+03 0.  0.
         24    2    5    5    0    0 -0.25977611906E+01  0.70217254345E+01  0.18230637532E+03  0.20020804238E+03  0.82411120382E+02 0.  0.
          5    1    5    5  501    0  0.45905567462E+02 -0.10464901681E+03  0.43888586787E+03  0.45354341893E+03  0.47000000000E+01 0. -1.
        -11    1    6    6    0    0  0.28474424513E+02 -0.10041367977E+02  0.25731041898E+02  0.39669994194E+02  0.00000000000E+00 0.  1.
         12    1    6    6    0    0 -0.31072185704E+02  0.17063093412E+02  0.15657533342E+03  0.16053804819E+03  0.00000000000E+00 0. -1.
         -5    1    3    3    0  503 -0.72219307415E+01 -0.37238984743E+02  0.96925487504E+01  0.39432648524E+02  0.47000000000E+01 0.  1.
         11    1    4    4    0    0  0.13193740505E+02  0.23503006845E+02 -0.42179603651E+01  0.27281079688E+02  0.00000000000E+00 0. -1.
        -12    1    4    4    0    0 -0.49279616035E+02  0.11136326927E+03  0.12271378406E+03  0.17288415514E+03  0.00000000000E+00 0.  1.
<mgrwt>
<rscale>  2 0.20341201E+03</rscale>
<asrwt>0</asrwt>
<pdfrwt beam="1">  1       21 0.12636384E+00 0.20374290E+03</pdfrwt>
<pdfrwt beam="2">  1       21 0.11074518E-01 0.20374290E+03</pdfrwt>
<totfact> 0.31229654E+04</totfact>
</mgrwt>
</event>
<event>
12    1  0.1013215E-001  0.1823638E+03  0.7546771E-02  0.1166498E+00
         21   -1    0    0  503  502  0.00000000000E+00  0.00000000000E+00  0.19094201814E+03  0.19094201814E+03  0.00000000000E+00 0.  1.
         21   -1    0    0  501  503 -0.00000000000E+00 -0.00000000000E+00 -0.27185954066E+03  0.27185954066E+03  0.00000000000E+00 0.  1.
          6    2    1    2  501    0  0.63272282693E+01  0.41009677411E+02 -0.18155579508E+03  0.25451183177E+03  0.17347028082E+03 0.  0.
         24    2    3    3    0    0 -0.15406983147E+02  0.31064268276E+02 -0.20366966857E+03  0.22161197601E+03  0.80175869951E+02 0.  0.
         -6    2    1    2    0  502 -0.63272282693E+01 -0.41009677411E+02  0.10063827256E+03  0.20828972702E+03  0.17758018195E+03 0.  0.
        -24    2    5    5    0    0 -0.50312598093E+02 -0.32489409352E+02  0.10573024615E+03  0.16295402452E+03  0.10857352306E+03 0.  0.
          5    1    3    3  501    0  0.21734211417E+02  0.99454091349E+01  0.22113873489E+02  0.32899855767E+02  0.47000000000E+01 0. -1.
        -11    1    4    4    0    0  0.20012215448E+02 -0.63589190108E+01 -0.13015341978E+03  0.13183640354E+03  0.00000000000E+00 0.  1.
         12    1    4    4    0    0 -0.35419198595E+02  0.37423187287E+02 -0.73516248782E+02  0.89775572462E+02  0.00000000000E+00 0. -1.
         -5    1    5    5    0  502  0.43985369824E+02 -0.85202680586E+01 -0.50919735902E+01  0.45335702502E+02  0.47000000000E+01 0.  1.
         13    1    6    6    0    0  0.32791534551E+02  0.43488082827E+01  0.27099030060E+02  0.42761598449E+02  0.00000000000E+00 0. -1.
        -14    1    6    6    0    0 -0.83104132644E+02 -0.36838217635E+02  0.78631216093E+02  0.12019242607E+03  0.00000000000E+00 0.  1.
<mgrwt>
<rscale>  2 0.18135554E+03</rscale>
<asrwt>0</asrwt>
<pdfrwt beam="1">  1       21 0.29375695E-01 0.18236378E+03</pdfrwt>
<pdfrwt beam="2">  1       21 0.41824544E-01 0.18236378E+03</pdfrwt>
<totfact> 0.61367618E+04</totfact>
</mgrwt>
</event>
<event>
12    1  0.1013215E-001  0.1961077E+03  0.7546771E-02  0.1155729E+00
         21   -1    0    0  501  502  0.00000000000E+00  0.00000000000E+00  0.27315623865E+02  0.27315623865E+02  0.00000000000E+00 0. -1.
         21   -1    0    0  502  503 -0.00000000000E+00 -0.00000000000E+00 -0.13296664796E+04  0.13296664796E+04  0.00000000000E+00 0. -1.
         -6    2    1    2    0  503 -0.28483035058E+02  0.75688090833E+02 -0.71668700581E+03  0.74303331639E+03  0.17865686271E+03 0.  0.
        -24    2    3    3    0    0 -0.79837692165E+02  0.36453432096E+02 -0.57604012681E+03  0.58817759701E+03  0.80173238228E+02 0.  0.
          6    2    1    2  501    0  0.28483035058E+02 -0.75688090833E+02 -0.58566384997E+03  0.61394878711E+03  0.16550225878E+03 0.  0.
         24    2    5    5    0    0  0.76179663703E+02 -0.78925957809E+02 -0.42729999643E+03  0.44845965673E+03  0.80610971911E+02 0.  0.
          5    1    5    5  501    0 -0.47696628645E+02  0.32378669758E+01 -0.15836385354E+03  0.16548913038E+03  0.47000000000E+01 0. -1.
        -13    1    6    6    0    0 -0.86008529624E+01 -0.36816229814E+02 -0.79902748483E+02  0.88396033081E+02  0.00000000000E+00 0.  1.
         14    1    6    6    0    0  0.84780516665E+02 -0.42109727994E+02 -0.34739724794E+03  0.36006362365E+03  0.00000000000E+00 0. -1.
         -5    1    3    3    0  503  0.51354657108E+02  0.39234658737E+02 -0.14064687900E+03  0.15485571938E+03  0.47000000000E+01 0.  1.
         13    1    4    4    0    0  0.11026268682E+02  0.82664969895E+00 -0.14584270293E+02  0.18301991442E+02  0.00000000000E+00 0. -1.
        -14    1    4    4    0    0 -0.90863960847E+02  0.35626782397E+02 -0.56145585652E+03  0.56987560557E+03  0.00000000000E+00 0.  1.
<mgrwt>
<rscale>  2 0.19306146E+03</rscale>
<asrwt>0</asrwt>
<pdfrwt beam="1">  1       21 0.42024051E-02 0.19610774E+03</pdfrwt>
<pdfrwt beam="2">  1       21 0.20456400E+00 0.19610774E+03</pdfrwt>
<totfact> 0.45183725E+04</totfact>
</mgrwt>
</event>
<event>
12    1  0.1013215E-001  0.2157446E+03  0.7546771E-02  0.1137269E+00
         21   -1    0    0  501  502  0.00000000000E+00  0.00000000000E+00  0.18970007602E+04  0.18970007602E+04  0.00000000000E+00 0. -1.
         21   -1    0    0  502  503 -0.00000000000E+00 -0.00000000000E+00 -0.24532764119E+02  0.24532764119E+02  0.00000000000E+00 0. -1.
         -6    2    1    2    0  503  0.12325704063E+03 -0.38610696492E+02  0.99524620333E+03  0.10181710301E+04  0.17168039319E+03 0.  0.
        -24    2    3    3    0    0  0.76149389160E+01 -0.40554642397E+02  0.58040106617E+03  0.58747920012E+03  0.81016952824E+02 0.  0.
          6    2    1    2  501    0 -0.12325704063E+03  0.38610696492E+02  0.87722179275E+03  0.90336249418E+03  0.17280809668E+03 0.  0.
         24    2    5    5    0    0 -0.12848133334E+03  0.79783752702E+02  0.64652549659E+03  0.66891551755E+03  0.81116284849E+02 0.  0.
          5    1    5    5  501    0  0.52242927067E+01 -0.41173056210E+02  0.23069629616E+03  0.23444697663E+03  0.47000000000E+01 0. -1.
        -13    1    6    6    0    0 -0.49769053024E+02  0.73742117720E+02  0.41076970446E+03  0.42029347921E+03  0.00000000000E+00 0.  1.
         14    1    6    6    0    0 -0.78712280315E+02  0.60416349825E+01  0.23575579213E+03  0.24862203834E+03  0.00000000000E+00 0. -1.
         -5    1    3    3    0  503  0.11564210172E+03  0.19439459046E+01  0.41484513715E+03  0.43069183001E+03  0.47000000000E+01 0.  1.
         11    1    4    4    0    0  0.28328541022E+02 -0.27522364030E+02  0.11807304338E+03  0.12450393701E+03  0.00000000000E+00 0. -1.
        -12    1    4    4    0    0 -0.20713602106E+02 -0.13032278367E+02  0.46232802279E+03  0.46297526311E+03  0.00000000000E+00 0.  1.
<mgrwt>
<rscale>  2 0.21551867E+03</rscale>
<asrwt>0</asrwt>
<pdfrwt beam="1">  1       21 0.29184616E+00 0.21574458E+03</pdfrwt>
<pdfrwt beam="2">  1       21 0.37742729E-02 0.21574458E+03</pdfrwt>
<totfact> 0.16064159E+04</totfact>
</mgrwt>
</event>
<event>
12    1  0.1013215E-001  0.1747028E+03  0.7546771E-02  0.1173390E+00
         21   -1    0    0  503  502  0.00000000000E+00  0.00000000000E+00  0.64375521730E+03  0.64375521730E+03  0.00000000000E+00 0.  1.
         21   -1    0    0  501  503 -0.00000000000E+00 -0.00000000000E+00 -0.81143100022E+02  0.81143100022E+02  0.00000000000E+00 0.  1.
          6    2    1    2  501    0 -0.21035816702E+01 -0.24698334660E+02  0.46951390792E+02  0.18090195626E+03  0.17293539803E+03 0.  0.
         24    2    3    3    0    0  0.53260007278E+02  0.22788923587E+02  0.38651643708E+02  0.10734148809E+03  0.81684038156E+02 0.  0.
         -6    2    1    2    0  502  0.21035816702E+01  0.24698334660E+02  0.51566072649E+03  0.54399636106E+03  0.17149817262E+03 0.  0.
        -24    2    5    5    0    0  0.23149202335E+02 -0.43168000089E+02  0.37068378907E+03  0.38247496952E+03  0.80506329129E+02 0.  0.
          5    1    3    3  501    0 -0.55363588948E+02 -0.47487258247E+02  0.82997470836E+01  0.73560468179E+02  0.47000000000E+01 0. -1.
        -11    1    4    4    0    0 -0.14339118955E+02  0.18319925871E+02  0.31583797837E+02  0.39227111825E+02  0.00000000000E+00 0.  1.
         12    1    4    4    0    0  0.67599126234E+02  0.44689977162E+01  0.70678458714E+01  0.68114376261E+02  0.00000000000E+00 0. -1.
         -5    1    5    5    0  502 -0.21045620665E+02  0.67866334749E+02  0.14497693741E+03  0.16152139154E+03  0.47000000000E+01 0.  1.
         11    1    6    6    0    0  0.84534793791E+01  0.21121374684E+02  0.47964601449E+02  0.53086502751E+02  0.00000000000E+00 0. -1.
        -12    1    6    6    0    0  0.14695722956E+02 -0.64289374773E+02  0.32271918762E+03  0.32938846677E+03  0.00000000000E+00 0.  1.
<mgrwt>
<rscale>  2 0.17434611E+03</rscale>
<asrwt>0</asrwt>
<pdfrwt beam="1">  1       21 0.99039261E-01 0.17470285E+03</pdfrwt>
<pdfrwt beam="2">  1       21 0.12483554E-01 0.17470285E+03</pdfrwt>
<totfact> 0.46346649E+04</totfact>
</mgrwt>
</event>
<event>
12    1  0.1013215E-001  0.1799143E+03  0.7546771E-02  0.1168103E+00
         21   -1    0    0  501  502  0.00000000000E+00  0.00000000000E+00  0.13042953791E+03  0.13042953791E+03  0.00000000000E+00 0. -1.
         21   -1    0    0  502  503 -0.00000000000E+00 -0.00000000000E+00 -0.27162699555E+03  0.27162699555E+03  0.00000000000E+00 0.  1.
         -6    2    1    2    0  503 -0.27672416649E+02 -0.37887695586E+02 -0.98368973441E+01  0.17929040614E+03  0.17276297365E+03 0.  0.
        -24    2    3    3    0    0  0.10933995872E+02 -0.47361837571E+02  0.50208162726E+02  0.10712591562E+03  0.81193634410E+02 0.  0.
          6    2    1    2  501    0  0.27672416649E+02  0.37887695586E+02 -0.13136056030E+03  0.22276612731E+03  0.17368912043E+03 0.  0.
         24    2    5    5    0    0  0.48866638330E+02 -0.29665761656E+01 -0.14546578382E+03  0.17439967320E+03  0.82814267103E+02 0.  0.
          5    1    5    5  501    0 -0.21194221681E+02  0.40854271752E+02  0.14105223516E+02  0.48366454113E+02  0.47000000000E+01 0. -1.
        -11    1    6    6    0    0  0.43739063519E+02  0.36122871567E+02 -0.83009121474E+02  0.10054094577E+03  0.00000000000E+00 0.  1.
         12    1    6    6    0    0  0.51275748106E+01 -0.39089447732E+02 -0.62456662342E+02  0.73858727435E+02  0.00000000000E+00 0. -1.
         -5    1    3    3    0  503 -0.38606412521E+02  0.94741419854E+01 -0.60045060070E+02  0.72164490526E+02  0.47000000000E+01 0.  1.
         11    1    4    4    0    0  0.18171337487E+02 -0.68579562702E+02  0.30305333372E+02  0.77147697031E+02  0.00000000000E+00 0. -1.
        -12    1    4    4    0    0 -0.72373416144E+01  0.21217725130E+02  0.19902829354E+02  0.29978218587E+02  0.00000000000E+00 0.  1.
<mgrwt>
<rscale>  2 0.17969038E+03</rscale>
<asrwt>0</asrwt>
<pdfrwt beam="1">  1       21 0.20066083E-01 0.17991429E+03</pdfrwt>
<pdfrwt beam="2">  1       21 0.41788768E-01 0.17991429E+03</pdfrwt>
<totfact> 0.12701934E+05</totfact>
</mgrwt>
</event>
<event>
12    1  0.1013215E-001  0.1877557E+03  0.7546771E-02  0.1160698E+00
         21   -1    0    0  501  502  0.00000000000E+00  0.00000000000E+00  0.46054891065E+03  0.46054891065E+03  0.00000000000E+00 0. -1.
         21   -1    0    0  502  503 -0.00000000000E+00 -0.00000000000E+00 -0.93068624323E+02  0.93068624323E+02  0.00000000000E+00 0. -1.
         -6    2    1    2    0  503 -0.68631597296E+02  0.17716023085E+02  0.65527988594E+02  0.19805124234E+03  0.17293415996E+03 0.  0.
        -24    2    3    3    0    0 -0.37443283196E+02 -0.43788200734E+02 -0.72546184514E+01  0.97677548710E+02  0.78542141893E+02 0.  0.
          6    2    1    2  501    0  0.68631597296E+02 -0.17716023085E+02  0.30195229773E+03  0.35556629263E+03  0.17386214289E+03 0.  0.
         24    2    5    5    0    0  0.81192161975E+02  0.17934877930E+02  0.10875364549E+03  0.15864863534E+03  0.80176100390E+02 0.  0.
          5    1    5    5  501    0 -0.12560564679E+02 -0.35650901015E+02  0.19319865224E+03  0.19691765730E+03  0.47000000000E+01 0. -1.
        -13    1    6    6    0    0  0.25678032197E+02  0.21480364818E+02 -0.32062081878E+01  0.33631044902E+02  0.00000000000E+00 0.  1.
         14    1    6    6    0    0  0.55514129778E+02 -0.35454868878E+01  0.11195985368E+03  0.12501759043E+03  0.00000000000E+00 0. -1.
         -5    1    3    3    0  503 -0.31188314100E+02  0.61504223819E+02  0.72782607045E+02  0.10037369363E+03  0.47000000000E+01 0.  1.
         11    1    4    4    0    0 -0.31109689791E+02 -0.42619068717E+02 -0.38791137856E+02  0.65490077060E+02  0.00000000000E+00 0. -1.
        -12    1    4    4    0    0 -0.63335934053E+01 -0.11691320166E+01  0.31536519404E+02  0.32187471650E+02  0.00000000000E+00 0.  1.
<mgrwt>
<rscale>  2 0.18754057E+03</rscale>
<asrwt>0</asrwt>
<pdfrwt beam="1">  1       21 0.70853677E-01 0.18775569E+03</pdfrwt>
<pdfrwt beam="2">  1       21 0.14318250E-01 0.18775569E+03</pdfrwt>
<totfact> 0.77169628E+04</totfact>
</mgrwt>
</event>
<event>
12    1  0.1013215E-001  0.2035802E+03  0.7546771E-02  0.1146794E+00
         21   -1    0    0  503  502  0.00000000000E+00  0.00000000000E+00  0.20098636703E+03  0.20098636703E+03  0.00000000000E+00 0.  1.
         21   -1    0    0  501  503 -0.00000000000E+00 -0.00000000000E+00 -0.40483259360E+03  0.40483259360E+03  0.00000000000E+00 0.  1.
          6    2    1    2  501    0  0.76706026495E+02  0.74594353653E+02 -0.31423045239E+03  0.37441376186E+03  0.17319571519E+03 0.  0.
         24    2    3    3    0    0  0.11752251318E+03  0.75956538192E+02 -0.25661802070E+03  0.30363860084E+03  0.82235360838E+02 0.  0.
         -6    2    1    2    0  502 -0.76706026495E+02 -0.74594353653E+02  0.11038422582E+03  0.23140519877E+03  0.17296114190E+03 0.  0.
        -24    2    5    5    0    0 -0.35436628780E+02 -0.75410391414E+02  0.29552873400E+01  0.11622318659E+03  0.80972918836E+02 0.  0.
          5    1    3    3  501    0 -0.40816486687E+02 -0.13621845389E+01 -0.57612431692E+02  0.70775161021E+02  0.47000000000E+01 0. -1.
        -13    1    4    4    0    0  0.66035925656E+02  0.84511319312E+02 -0.19777365361E+03  0.22498294298E+03  0.00000000000E+00 0.  1.
         14    1    4    4    0    0  0.51486587525E+02 -0.85547811199E+01 -0.58844367090E+02  0.78655657859E+02  0.00000000000E+00 0. -1.
         -5    1    5    5    0  502 -0.41269397714E+02  0.81603776119E+00  0.10742893848E+03  0.11518201218E+03  0.47000000000E+01 0.  1.
         13    1    6    6    0    0  0.14767626613E+02  0.42893262467E+01 -0.13667336984E+02  0.20573702041E+02  0.00000000000E+00 0. -1.
        -14    1    6    6    0    0 -0.50204255393E+02 -0.79699717661E+02  0.16622624324E+02  0.95649484547E+02  0.00000000000E+00 0.  1.
<mgrwt>
<rscale>  2 0.20353028E+03</rscale>
<asrwt>0</asrwt>
<pdfrwt beam="1">  1       21 0.30920980E-01 0.20358018E+03</pdfrwt>
<pdfrwt beam="2">  1       21 0.62281937E-01 0.20358018E+03</pdfrwt>
<totfact> 0.23866564E+04</totfact>
</mgrwt>
</event>
<event>
12    1  0.1013215E-001  0.2894627E+03  0.7546771E-02  0.1090637E+00
         21   -1    0    0  501  502  0.00000000000E+00  0.00000000000E+00  0.87723382286E+02  0.87723382286E+02  0.00000000000E+00 0.  1.
         21   -1    0    0  502  503 -0.00000000000E+00 -0.00000000000E+00 -0.11464970954E+04  0.11464970954E+04  0.00000000000E+00 0. -1.
         -6    2    1    2    0  503 -0.17178537621E+03  0.15580054633E+03 -0.27712556470E+03  0.40069635666E+03  0.17313279849E+03 0.  0.
        -24    2    3    3    0    0 -0.12909429801E+03  0.41938413436E+02 -0.10483663215E+03  0.18976347694E+03  0.81211387382E+02 0.  0.
          6    2    1    2  501    0  0.17178537621E+03 -0.15580054633E+03 -0.78164814843E+03  0.83352412104E+03  0.17321837866E+03 0.  0.
         24    2    5    5    0    0  0.14493717883E+03 -0.14590966361E+03 -0.45750696967E+03  0.50808864506E+03  0.80901348554E+02 0.  0.
          5    1    5    5  501    0  0.26848197377E+02 -0.98908827183E+01 -0.32414117875E+03  0.32543547598E+03  0.47000000000E+01 0. -1.
        -13    1    6    6    0    0  0.13270148214E+03 -0.15592848294E+03 -0.43219719166E+03  0.47824448521E+03  0.00000000000E+00 0.  1.
         14    1    6    6    0    0  0.12235696696E+02  0.10018819326E+02 -0.25309778012E+02  0.29844159853E+02  0.00000000000E+00 0. -1.
         -5    1    3    3    0  503 -0.42691078197E+02  0.11386213289E+03 -0.17228893255E+03  0.21093287972E+03  0.47000000000E+01 0.  1.
         13    1    4    4    0    0 -0.81312266703E+02 -0.16169183018E+02 -0.52812021066E+02  0.98296677284E+02  0.00000000000E+00 0. -1.
        -14    1    4    4    0    0 -0.47782031308E+02  0.58107596454E+02 -0.52024611084E+02  0.91466799659E+02  0.00000000000E+00 0.  1.
<mgrwt>
<rscale>  2 0.28944986E+03</rscale>
<asrwt>0</asrwt>
<pdfrwt beam="1">  1       21 0.13495905E-01 0.28946266E+03</pdfrwt>
<pdfrwt beam="2">  1       21 0.17638416E+00 0.28946266E+03</pdfrwt>
<totfact> 0.85714367E+03</totfact>
</mgrwt>
</event>
<event>
12    1  0.1013215E-001  0.1851901E+03  0.7546771E-02  0.1163004E+00
         21   -1    0    0  501  502  0.00000000000E+00  0.00000000000E+00  0.94637340788E+02  0.94637340788E+02  0.00000000000E+00 0. -1.
         21   -1    0    0  502  503 -0.00000000000E+00 -0.00000000000E+00 -0.51668178436E+03  0.51668178436E+03  0.00000000000E+00 0.  1.
         -6    2    1    2    0  503  0.38366782683E+02  0.54086330424E+02 -0.37842419906E+03  0.42106114024E+03  0.17230864238E+03 0.  0.
        -24    2    3    3    0    0  0.26797791879E+02 -0.27313846245E+02 -0.27411690034E+03  0.28816293530E+03  0.80209939449E+02 0.  0.
          6    2    1    2  501    0 -0.38366782683E+02 -0.54086330424E+02 -0.43620244515E+02  0.19025798490E+03  0.17291047954E+03 0.  0.
         24    2    5    5    0    0 -0.83015536332E+02 -0.13889978862E+02 -0.29492229811E+01  0.11755667904E+03  0.82014413892E+02 0.  0.
          5    1    5    5  501    0  0.44648753649E+02 -0.40196351562E+02 -0.40671021534E+02  0.72701305861E+02  0.47000000000E+01 0. -1.
        -13    1    6    6    0    0 -0.29297786502E+02 -0.43957499224E+02  0.12076827081E+02  0.54189222031E+02  0.00000000000E+00 0.  1.
         14    1    6    6    0    0 -0.53717749830E+02  0.30067520363E+02 -0.15026050063E+02  0.63367457011E+02  0.00000000000E+00 0. -1.
         -5    1    3    3    0  503  0.11568990804E+02  0.81400176669E+02 -0.10430729872E+03  0.13289820494E+03  0.47000000000E+01 0.  1.
         11    1    4    4    0    0  0.27813547863E+02 -0.54497333558E+02 -0.17532784049E+03  0.18569707715E+03  0.00000000000E+00 0. -1.
        -12    1    4    4    0    0 -0.10157559837E+01  0.27183487312E+02 -0.98789059842E+02  0.10246585815E+03  0.00000000000E+00 0.  1.
<mgrwt>
<rscale>  2 0.18504949E+03</rscale>
<asrwt>0</asrwt>
<pdfrwt beam="1">  1       21 0.14559591E-01 0.18519011E+03</pdfrwt>
<pdfrwt beam="2">  1       21 0.79489506E-01 0.18519011E+03</pdfrwt>
<totfact> 0.57986609E+04</totfact>
</mgrwt>
</event>
<event>
12    1  0.1013215E-001  0.2365439E+03  0.7546771E-02  0.1122221E+00
         21   -1    0    0  503  502  0.00000000000E+00  0.00000000000E+00  0.68543910105E+03  0.68543910105E+03  0.00000000000E+00 0. -1.
         21   -1    0    0  501  503 -0.00000000000E+00 -0.00000000000E+00 -0.86482512190E+02  0.86482512190E+02  0.00000000000E+00 0. -1.
          6    2    1    2  501    0  0.69022947020E+02  0.14464307042E+03  0.39250060442E+03  0.45795173339E+03  0.17313948311E+03 0.  0.
         24    2    3    3    0    0  0.12425450631E+01  0.11281397043E+03  0.33745784296E+03  0.36489760891E+03  0.80894581802E+02 0.  0.
         -6    2    1    2    0  502 -0.69022947020E+02 -0.14464307042E+03  0.20645598444E+03  0.31396987985E+03  0.17397478813E+03 0.  0.
        -24    2    5    5    0    0 -0.39245637254E+01 -0.14132629809E+03  0.18204591021E+03  0.24420783995E+03  0.80673607455E+02 0.  0.
          5    1    3    3  501    0  0.67780401957E+02  0.31829099982E+02  0.55042761457E+02  0.93054124486E+02  0.47000000000E+01 0. -1.
        -13    1    4    4    0    0  0.38541029111E+02  0.40149351306E+02  0.16365231634E+03  0.17285676724E+03  0.00000000000E+00 0.  1.
         14    1    4    4    0    0 -0.37298484048E+02  0.72664619128E+02  0.17380552662E+03  0.19204084167E+03  0.00000000000E+00 0. -1.
         -5    1    5    5    0  502 -0.65098383295E+02 -0.33167723277E+01  0.24410074234E+02  0.69762039896E+02  0.47000000000E+01 0.  1.
         11    1    6    6    0    0  0.13334383267E+02 -0.55918657723E+02  0.13139861475E+03  0.14342349186E+03  0.00000000000E+00 0. -1.
        -12    1    6    6    0    0 -0.17258946992E+02 -0.85407640364E+02  0.50647295460E+02  0.10078434810E+03  0.00000000000E+00 0.  1.
<mgrwt>
<rscale>  2 0.23639032E+03</rscale>
<asrwt>0</asrwt>
<pdfrwt beam="1">  1       21 0.10545217E+00 0.23654389E+03</pdfrwt>
<pdfrwt beam="2">  1       21 0.13305002E-01 0.23654389E+03</pdfrwt>
<totfact> 0.34446882E+04</totfact>
</mgrwt>
</event>
<event>
12    1  0.1013215E-001  0.1910464E+03  0.7546771E-02  0.1157833E+00
         21   -1    0    0  503  502  0.00000000000E+00  0.00000000000E+00  0.30827207567E+03  0.30827207567E+03  0.00000000000E+00 0. -1.
         21   -1    0    0  501  503 -0.00000000000E+00 -0.00000000000E+00 -0.14867884131E+03  0.14867884131E+03  0.00000000000E+00 0. -1.
          6    2    1    2  501    0  0.22207301121E+02  0.77721703793E+02 -0.24534113197E+02  0.19261527021E+03  0.17310370344E+03 0.  0.
         24    2    3    3    0    0  0.39226400340E+02  0.51807721188E+02  0.47229309843E+02  0.11430011766E+03  0.81309032277E+02 0.  0.
         -6    2    1    2    0  502 -0.22207301121E+02 -0.77721703793E+02  0.18412734755E+03  0.26433564677E+03  0.17157105401E+03 0.  0.
        -24    2    5    5    0    0  0.42039261505E+02 -0.13985181015E+02  0.12575234985E+03  0.15654095534E+03  0.82027631987E+02 0.  0.
          5    1    3    3  501    0 -0.17019099219E+02  0.25913982604E+02 -0.71763423040E+02  0.78315152551E+02  0.47000000000E+01 0. -1.
        -11    1    4    4    0    0 -0.89715512773E+01 -0.38009149238E+01 -0.15026861746E+02  0.17909278615E+02  0.00000000000E+00 0.  1.
         12    1    4    4    0    0  0.48197951617E+02  0.55608636112E+02  0.62256171589E+02  0.96390839042E+02  0.00000000000E+00 0. -1.
         -5    1    5    5    0  502 -0.64246562626E+02 -0.63736522777E+02  0.58374997703E+02  0.10779469144E+03  0.47000000000E+01 0.  1.
         13    1    6    6    0    0  0.29549485843E+01  0.30298698066E+02  0.23508768466E+02  0.38463034467E+02  0.00000000000E+00 0. -1.
        -14    1    6    6    0    0  0.39084312920E+02 -0.44283879081E+02  0.10224358138E+03  0.11807792087E+03  0.00000000000E+00 0.  1.
<mgrwt>
<rscale>  2 0.19069853E+03</rscale>
<asrwt>0</asrwt>
<pdfrwt beam="1">  1       21 0.47426473E-01 0.19104638E+03</pdfrwt>
<pdfrwt beam="2">  1       21 0.22873668E-01 0.19104638E+03</pdfrwt>
<totfact> 0.76318977E+04</totfact>
</mgrwt>
</event>
<event>
12    1  0.1013215E-001  0.2556962E+03  0.7546771E-02  0.1109853E+00
         21   -1    0    0  503  502  0.00000000000E+00  0.00000000000E+00  0.24658266955E+04  0.24658266955E+04  0.00000000000E+00 0.  1.
         21   -1    0    0  501  503 -0.00000000000E+00 -0.00000000000E+00 -0.55147708843E+02  0.55147708843E+02  0.00000000000E+00 0.  1.
          6    2    1    2  501    0  0.16317135546E+03 -0.92867268890E+02  0.29676356464E+03  0.39172585057E+03  0.17358371996E+03 0.  0.
         24    2    3    3    0    0  0.18925437128E+03 -0.59235102473E+02  0.26151647574E+03  0.33626511123E+03  0.73193876365E+02 0.  0.
         -6    2    1    2    0  502 -0.16317135546E+03  0.92867268890E+02  0.21139154220E+04  0.21292485537E+04  0.17266085661E+03 0.  0.
        -24    2    5    5    0    0 -0.11207042445E+03  0.12795173490E+03  0.17479868533E+04  0.17580773907E+04  0.80291006991E+02 0.  0.
          5    1    3    3  501    0 -0.26083015819E+02 -0.33632166417E+02  0.35247088897E+02  0.55460739337E+02  0.47000000000E+01 0. -1.
        -13    1    4    4    0    0  0.16088176912E+03 -0.28456018323E+02  0.17081348933E+03  0.23636822280E+03  0.00000000000E+00 0.  1.
         14    1    4    4    0    0  0.28372602155E+02 -0.30779084150E+02  0.90702986411E+02  0.99896888430E+02  0.00000000000E+00 0. -1.
         -5    1    5    5    0  502 -0.51100931007E+02 -0.35084466014E+02  0.36592856870E+03  0.37117116307E+03  0.47000000000E+01 0.  1.
         13    1    6    6    0    0 -0.11672497169E+03  0.12611633975E+03  0.14646655253E+04  0.14747118875E+04  0.00000000000E+00 0. -1.
        -14    1    6    6    0    0  0.46545472344E+01  0.18353951560E+01  0.28332132796E+03  0.28336550313E+03  0.00000000000E+00 0.  1.
<mgrwt>
<rscale>  2 0.25553962E+03</rscale>
<asrwt>0</asrwt>
<pdfrwt beam="1">  1       21 0.37935787E+00 0.25569616E+03</pdfrwt>
<pdfrwt beam="2">  1       21 0.84842648E-02 0.25569616E+03</pdfrwt>
<totfact> 0.11650634E+03</totfact>
</mgrwt>
</event>
<event>
12    1  0.1013215E-001  0.2136443E+03  0.7546771E-02  0.1139030E+00
         21   -1    0    0  501  502  0.00000000000E+00  0.00000000000E+00  0.15209374725E+03  0.15209374725E+03  0.00000000000E+00 0. -1.
         21   -1    0    0  502  503 -0.00000000000E+00 -0.00000000000E+00 -0.37748203182E+03  0.37748203182E+03  0.00000000000E+00 0. -1.
         -6    2    1    2    0  503  0.81385476181E+02 -0.92801722537E+02 -0.23399637582E+03  0.31575811122E+03  0.17237495603E+03 0.  0.
        -24    2    3    3    0    0  0.52018428724E+02  0.17801607282E+02 -0.13048844771E+03  0.16138356272E+03  0.77424835698E+02 0.  0.
          6    2    1    2  501    0 -0.81385476181E+02  0.92801722537E+02  0.86080912545E+01  0.21381766785E+03  0.17437930040E+03 0.  0.
         24    2    5    5    0    0  0.22856774121E+02  0.39257699565E+02  0.20562942149E+02  0.95926117667E+02  0.81947460989E+02 0.  0.
          5    1    5    5  501    0 -0.10424225030E+03  0.53544022972E+02 -0.11954850894E+02  0.11789155018E+03  0.47000000000E+01 0. -1.
        -11    1    6    6    0    0  0.32013433207E+02  0.60789278962E+02  0.22881486911E+02  0.72413802453E+02  0.00000000000E+00 0.  1.
         12    1    6    6    0    0 -0.91566590861E+01 -0.21531579397E+02 -0.23185447625E+01  0.23512315214E+02  0.00000000000E+00 0. -1.
         -5    1    3    3    0  503  0.29367047457E+02 -0.11060332982E+03 -0.10350792811E+03  0.15437454850E+03  0.47000000000E+01 0.  1.
         13    1    4    4    0    0  0.18543596324E+02 -0.14519258775E+02 -0.76151158955E+00  0.23563822693E+02  0.00000000000E+00 0. -1.
        -14    1    4    4    0    0  0.33474832399E+02  0.32320866057E+02 -0.12972693612E+03  0.13781974003E+03  0.00000000000E+00 0.  1.
<mgrwt>
<rscale>  2 0.21323494E+03</rscale>
<asrwt>0</asrwt>
<pdfrwt beam="1">  1       21 0.23399038E-01 0.21364432E+03</pdfrwt>
<pdfrwt beam="2">  1       21 0.58074158E-01 0.21364432E+03</pdfrwt>
<totfact> 0.47248670E+04</totfact>
</mgrwt>
</event>
<event>
12    1  0.1013215E-001  0.2349169E+03  0.7546771E-02  0.1123316E+00
         21   -1    0    0  501  502  0.00000000000E+00  0.00000000000E+00  0.56649461482E+03  0.56649461482E+03  0.00000000000E+00 0. -1.
         21   -1    0    0  502  503 -0.00000000000E+00 -0.00000000000E+00 -0.11252046531E+03  0.11252046531E+03  0.00000000000E+00 0. -1.
         -6    2    1    2    0  503  0.13719074825E+03  0.77669898074E+02  0.10148575940E+03  0.25541854724E+03  0.17345132009E+03 0.  0.
        -24    2    3    3    0    0  0.11243541102E+01  0.26469547345E+02  0.60064594781E+02  0.10417919255E+03  0.80892814919E+02 0.  0.
          6    2    1    2  501    0 -0.13719074825E+03 -0.77669898074E+02  0.35248839011E+03  0.42359653288E+03  0.17416096876E+03 0.  0.
         24    2    5    5    0    0 -0.84883454858E+02 -0.11513395096E+03  0.20860658444E+03  0.26591434555E+03  0.82053059197E+02 0.  0.
          5    1    5    5  501    0 -0.52307293393E+02  0.37464052891E+02  0.14388180567E+03  0.15768218734E+03  0.47000000000E+01 0. -1.
        -13    1    6    6    0    0 -0.24208105186E+01  0.10423700823E+02  0.33688860864E+02  0.35347605417E+02  0.00000000000E+00 0.  1.
         14    1    6    6    0    0 -0.82462644339E+02 -0.12555765179E+03  0.17491772358E+03  0.23056674013E+03  0.00000000000E+00 0. -1.
         -5    1    3    3    0  503  0.13606639414E+03  0.51200350729E+02  0.41421164618E+02  0.15123935469E+03  0.47000000000E+01 0.  1.
         11    1    4    4    0    0 -0.32992922923E+02  0.15313566337E+02  0.26532883779E+01  0.36470237402E+02  0.00000000000E+00 0. -1.
        -12    1    4    4    0    0  0.34117277033E+02  0.11155981008E+02  0.57411306403E+02  0.67708955149E+02  0.00000000000E+00 0.  1.
<mgrwt>
<rscale>  2 0.23478540E+03</rscale>
<asrwt>0</asrwt>
<pdfrwt beam="1">  1       21 0.87153016E-01 0.23491692E+03</pdfrwt>
<pdfrwt beam="2">  1       21 0.17310841E-01 0.23491692E+03</pdfrwt>
<totfact> 0.33399155E+04</totfact>
</mgrwt>
</event>
<event>
12    1  0.1013215E-001  0.2098477E+03  0.7546771E-02  0.1144721E+00
         21   -1    0    0  503  502  0.00000000000E+00  0.00000000000E+00  0.29821430729E+03  0.29821430729E+03  0.00000000000E+00 0.  1.
         21   -1    0    0  501  503 -0.00000000000E+00 -0.00000000000E+00 -0.15146338425E+03  0.15146338425E+03  0.00000000000E+00 0.  1.
          6    2    1    2  501    0 -0.54732181304E+02  0.70993580738E+02  0.75302741720E+01  0.20998273577E+03  0.18973756643E+03 0.  0.
         24    2    3    3    0    0 -0.86370527232E+02 -0.95753250797E+01 -0.17734983209E+02  0.11969011842E+03  0.80371885586E+02 0.  0.
         -6    2    1    2    0  502  0.54732181304E+02 -0.70993580738E+02  0.13922064887E+03  0.23969495577E+03  0.17330776836E+03 0.  0.
        -24    2    5    5    0    0 -0.24254569609E+02 -0.41497588137E+02  0.20914037198E+02  0.94342058430E+02  0.78439104207E+02 0.  0.
          5    1    3    3  501    0  0.31638345928E+02  0.80568905818E+02  0.25265257381E+02  0.90292617352E+02  0.47000000000E+01 0. -1.
        -11    1    4    4    0    0 -0.68900623682E+01  0.84247659620E+01 -0.34771653826E+02  0.36435114254E+02  0.00000000000E+00 0.  1.
         12    1    4    4    0    0 -0.79480464864E+02 -0.18000091042E+02  0.17036670617E+02  0.83255004163E+02  0.00000000000E+00 0. -1.
         -5    1    5    5    0  502  0.78986750913E+02 -0.29495992602E+02  0.11830661167E+03  0.14535289734E+03  0.47000000000E+01 0.  1.
         13    1    6    6    0    0 -0.99859629333E+00 -0.13423514579E+02 -0.29326820690E+02  0.32268411024E+02  0.00000000000E+00 0. -1.
        -14    1    6    6    0    0 -0.23255973315E+02 -0.28074073557E+02  0.50240857888E+02  0.62073647406E+02  0.00000000000E+00 0.  1.
<mgrwt>
<rscale>  2 0.20606432E+03</rscale>
<asrwt>0</asrwt>
<pdfrwt beam="1">  1       21 0.45879124E-01 0.20984767E+03</pdfrwt>
<pdfrwt beam="2">  1       21 0.23302059E-01 0.20984767E+03</pdfrwt>
<totfact> 0.78269071E+04</totfact>
</mgrwt>
</event>
<event>
12    1  0.1013215E-001  0.1918574E+03  0.7546771E-02  0.1156937E+00
         21   -1    0    0  501  502  0.00000000000E+00  0.00000000000E+00  0.93721465182E+03  0.93721465182E+03  0.00000000000E+00 0. -1.
         21   -1    0    0  502  503 -0.00000000000E+00 -0.00000000000E+00 -0.33916151446E+03  0.33916151446E+03  0.00000000000E+00 0. -1.
         -6    2    1    2    0  503 -0.77754064231E+02  0.30120115645E+02 -0.30114577365E+03  0.35706868706E+03  0.17278991412E+03 0.  0.
        -24    2    3    3    0    0 -0.19380830917E+02  0.12758844133E+02 -0.50517026311E+02  0.99104140838E+02  0.82044232419E+02 0.  0.
          6    2    1    2  501    0  0.77754064231E+02 -0.30120115645E+02  0.89919891100E+03  0.91930747922E+03  0.17208905813E+03 0.  0.
         24    2    5    5    0    0  0.59408072109E+01  0.30260293035E+02  0.53114688990E+03  0.53945577411E+03  0.89132121290E+02 0.  0.
          5    1    5    5  501    0  0.71813257020E+02 -0.60380408681E+02  0.36805202110E+03  0.37985170510E+03  0.47000000000E+01 0. -1.
        -11    1    6    6    0    0  0.21351018626E+02  0.48045139120E+02  0.17999891066E+03  0.18752015686E+03  0.00000000000E+00 0.  1.
         12    1    6    6    0    0 -0.15410211415E+02 -0.17784846084E+02  0.35114797925E+03  0.35193561726E+03  0.00000000000E+00 0. -1.
         -5    1    3    3    0  503 -0.58373233314E+02  0.17361271512E+02 -0.25062874733E+03  0.25796454622E+03  0.47000000000E+01 0.  1.
         11    1    4    4    0    0  0.27551108470E+02 -0.13071218096E+02 -0.26484271286E+02  0.40389812403E+02  0.00000000000E+00 0. -1.
        -12    1    4    4    0    0 -0.46931939387E+02  0.25830062229E+02 -0.24032755026E+02  0.58714328435E+02  0.00000000000E+00 0.  1.
<mgrwt>
<rscale>  2 0.19169949E+03</rscale>
<asrwt>0</asrwt>
<pdfrwt beam="1">  1       21 0.14418687E+00 0.19185742E+03</pdfrwt>
<pdfrwt beam="2">  1       21 0.52178695E-01 0.19185742E+03</pdfrwt>
<totfact> 0.11563049E+03</totfact>
</mgrwt>
</event>
<event>
12    1  0.1013215E-001  0.2312287E+03  0.7546771E-02  0.1125907E+00
         21   -1    0    0  503  502  0.00000000000E+00  0.00000000000E+00  0.12657588239E+04  0.12657588239E+04  0.00000000000E+00 0. -1.
         21   -1    0    0  501  503 -0.00000000000E+00 -0.00000000000E+00 -0.42264512064E+02  0.42264512064E+02  0.00000000000E+00 0. -1.
          6    2    1    2  501    0 -0.14605290322E+03  0.42904444526E+02  0.57268677556E+03  0.61760575843E+03  0.17405311848E+03 0.  0.
         24    2    3    3    0    0 -0.12293794175E+03  0.15254713903E+02  0.22857946267E+03  0.27158445587E+03  0.78505427181E+02 0.  0.
         -6    2    1    2    0  502  0.14605290322E+03 -0.42904444526E+02  0.65080753623E+03  0.69041757749E+03  0.17307148865E+03 0.  0.
        -24    2    5    5    0    0  0.54000635437E+02 -0.84959848150E+02  0.32138490720E+03  0.34576755863E+03  0.78311567471E+02 0.  0.
          5    1    3    3  501    0 -0.23114961469E+02  0.27649730623E+02  0.34410731288E+03  0.34602130256E+03  0.47000000000E+01 0. -1.
        -13    1    4    4    0    0 -0.24656551310E+01 -0.20356819254E+02  0.40713578855E+02  0.45585908443E+02  0.00000000000E+00 0.  1.
         14    1    4    4    0    0 -0.12047228662E+03  0.35611533157E+02  0.18786588382E+03  0.22599854743E+03  0.00000000000E+00 0. -1.
         -5    1    5    5    0  502  0.92052267781E+02  0.42055403624E+02  0.32942262904E+03  0.34465001886E+03  0.47000000000E+01 0.  1.
         13    1    6    6    0    0  0.65412468141E+02 -0.34951726708E+02  0.21965416445E+03  0.23183693870E+03  0.00000000000E+00 0. -1.
        -14    1    6    6    0    0 -0.11411832705E+02 -0.50008121443E+02  0.10173074275E+03  0.11393061992E+03  0.00000000000E+00 0.  1.
<mgrwt>
<rscale>  2 0.23104402E+03</rscale>
<asrwt>0</asrwt>
<pdfrwt beam="1">  1       21 0.19473210E+00 0.23122874E+03</pdfrwt>
<pdfrwt beam="2">  1       21 0.65022336E-02 0.23122874E+03</pdfrwt>
<totfact> 0.24292346E+04</totfact>
</mgrwt>
</event>
<event>
12    1  0.1013215E-001  0.1840982E+03  0.7546771E-02  0.1164204E+00
         21   -1    0    0  501  502  0.00000000000E+00  0.00000000000E+00  0.53815878880E+03  0.53815878880E+03  0.00000000000E+00 0. -1.
         21   -1    0    0  502  503 -0.00000000000E+00 -0.00000000000E+00 -0.74981863673E+02  0.74981863673E+02  0.00000000000E+00 0. -1.
         -6    2    1    2    0  503  0.15264890405E+02  0.54806546332E+02  0.10734940510E+03  0.21311042317E+03  0.17508678788E+03 0.  0.
        -24    2    3    3    0    0  0.75729076057E+02  0.45833020368E+02  0.51154334368E+02  0.12994541918E+03  0.80209022708E+02 0.  0.
          6    2    1    2  501    0 -0.15264890405E+02 -0.54806546332E+02  0.35582752003E+03  0.40003022930E+03  0.17370718450E+03 0.  0.
         24    2    5    5    0    0 -0.31131350283E+02 -0.51160525739E+02  0.91604153528E+02  0.13526407697E+03  0.79488925089E+02 0.  0.
          5    1    5    5  501    0  0.15866459878E+02 -0.36460205928E+01  0.26422336650E+03  0.26476615233E+03  0.47000000000E+01 0. -1.
        -11    1    6    6    0    0  0.16733160152E+02 -0.37055477559E+02  0.13999350513E+02  0.43001033483E+02  0.00000000000E+00 0.  1.
         12    1    6    6    0    0 -0.47864510435E+02 -0.14105048180E+02  0.77604803015E+02  0.92263043492E+02  0.00000000000E+00 0. -1.
         -5    1    3    3    0  503 -0.60464185651E+02  0.89735259645E+01  0.56195070734E+02  0.83165003995E+02  0.47000000000E+01 0.  1.
         11    1    4    4    0    0  0.71234088249E+02  0.25892987891E+02  0.10163235416E+01  0.75800890919E+02  0.00000000000E+00 0. -1.
        -12    1    4    4    0    0  0.44949878079E+01  0.19940032477E+02  0.50138010827E+02  0.54144528257E+02  0.00000000000E+00 0.  1.
<mgrwt>
<rscale>  2 0.18376945E+03</rscale>
<asrwt>0</asrwt>
<pdfrwt beam="1">  1       21 0.82793658E-01 0.18409823E+03</pdfrwt>
<pdfrwt beam="2">  1       21 0.11535672E-01 0.18409823E+03</pdfrwt>
<totfact> 0.80408176E+04</totfact>
</mgrwt>
</event>
<event>
12    1  0.1013215E-001  0.1985166E+03  0.7546771E-02  0.1152257E+00
         21   -1    0    0  503  502  0.00000000000E+00  0.00000000000E+00  0.57492684016E+03  0.57492684016E+03  0.00000000000E+00 0. -1.
         21   -1    0    0  501  503 -0.00000000000E+00 -0.00000000000E+00 -0.67512292244E+02  0.67512292244E+02  0.00000000000E+00 0. -1.
          6    2    1    2  501    0  0.66584350233E+02  0.53491007027E+02  0.21906601859E+03  0.29563278781E+03  0.17920396536E+03 0.  0.
         24    2    3    3    0    0  0.89612362077E+02 -0.35752006985E+01  0.16936597268E+03  0.21639248269E+03  0.10048739405E+03 0.  0.
         -6    2    1    2    0  502 -0.66584350233E+02 -0.53491007027E+02  0.28834852933E+03  0.34680634460E+03  0.17272811802E+03 0.  0.
        -24    2    5    5    0    0 -0.10744525518E+03 -0.47426695267E+02  0.26088615202E+03  0.29698003029E+03  0.79635292351E+02 0.  0.
          5    1    3    3  501    0 -0.23028011844E+02  0.57066207726E+02  0.49700045903E+02  0.79240305126E+02  0.47000000000E+01 0. -1.
        -13    1    4    4    0    0  0.90653385738E+01  0.12495606643E+02  0.11910205067E+03  0.12009837227E+03  0.00000000000E+00 0.  1.
         14    1    4    4    0    0  0.80547023503E+02 -0.16070807342E+02  0.50263922015E+02  0.96294110413E+02  0.00000000000E+00 0. -1.
         -5    1    5    5    0  502  0.40860904946E+02 -0.60643117606E+01  0.27462377309E+02  0.49826314309E+02  0.47000000000E+01 0.  1.
         13    1    6    6    0    0 -0.57716235503E+02  0.14865991603E+02  0.14026223983E+03  0.15239966361E+03  0.00000000000E+00 0. -1.
        -14    1    6    6    0    0 -0.49729019675E+02 -0.62292686870E+02  0.12062391220E+03  0.14458036668E+03  0.00000000000E+00 0.  1.
<mgrwt>
<rscale>  2 0.19704383E+03</rscale>
<asrwt>0</asrwt>
<pdfrwt beam="1">  1       21 0.88450280E-01 0.19851656E+03</pdfrwt>
<pdfrwt beam="2">  1       21 0.10386507E-01 0.19851656E+03</pdfrwt>
<totfact> 0.82766552E+04</totfact>
</mgrwt>
</event>
<event>
12    1  0.1013215E-001  0.2084497E+03  0.7546771E-02  0.1143115E+00
         21   -1    0    0  501  502  0.00000000000E+00  0.00000000000E+00  0.24215672936E+03  0.24215672936E+03  0.00000000000E+00 0. -1.
         21   -1    0    0  502  503 -0.00000000000E+00 -0.00000000000E+00 -0.17821569524E+03  0.17821569524E+03  0.00000000000E+00 0. -1.
         -6    2    1    2    0  503  0.11041146908E+03 -0.36661512440E+02  0.37546657162E+02  0.21025828332E+03  0.17106734125E+03 0.  0.
        -24    2    3    3    0    0  0.48313234650E+02 -0.52638821105E+01  0.84296213298E+02  0.12629631033E+03  0.80517261065E+02 0.  0.
          6    2    1    2  501    0 -0.11041146908E+03  0.36661512440E+02  0.26394376956E+02  0.21011414127E+03  0.17296395644E+03 0.  0.
         24    2    5    5    0    0 -0.34003814813E+02 -0.21610260665E+02  0.58763937947E+02  0.10860745356E+03  0.81970212749E+02 0.  0.
          5    1    5    5  501    0 -0.76407654265E+02  0.58271773105E+02 -0.32369560991E+02  0.10150668771E+03  0.47000000000E+01 0. -1.
        -13    1    6    6    0    0 -0.21643932366E+02  0.10666263988E+02  0.68561374381E+02  0.72683499178E+02  0.00000000000E+00 0.  1.
         14    1    6    6    0    0 -0.12359882448E+02 -0.32276524654E+02 -0.97974364341E+01  0.35923954383E+02  0.00000000000E+00 0. -1.
         -5    1    3    3    0  503  0.62098234429E+02 -0.31397630330E+02 -0.46749556136E+02  0.83961972991E+02  0.47000000000E+01 0.  1.
         13    1    4    4    0    0 -0.56404081918E+01  0.75572231754E+01  0.67780233389E+02  0.68433075811E+02  0.00000000000E+00 0. -1.
        -14    1    4    4    0    0  0.53953642842E+02 -0.12821105286E+02  0.16515979909E+02  0.57863234519E+02  0.00000000000E+00 0.  1.
<mgrwt>
<rscale>  2 0.20805585E+03</rscale>
<asrwt>0</asrwt>
<pdfrwt beam="1">  1       21 0.37254882E-01 0.20844973E+03</pdfrwt>
<pdfrwt beam="2">  1       21 0.27417799E-01 0.20844973E+03</pdfrwt>
<totfact> 0.87590309E+04</totfact>
</mgrwt>
</event>
<event>
12    1  0.1013215E-001  0.2339638E+03  0.7546771E-02  0.1125601E+00
         21   -1    0    0  501  502  0.00000000000E+00  0.00000000000E+00  0.55075007845E+03  0.55075007845E+03  0.00000000000E+00 0.  1.
         21   -1    0    0  502  503 -0.00000000000E+00 -0.00000000000E+00 -0.21022910431E+03  0.21022910431E+03  0.00000000000E+00 0. -1.
         -6    2    1    2    0  503  0.10944959218E+03 -0.93049584103E+02 -0.10941295642E+03  0.25828328279E+03  0.18466624165E+03 0.  0.
        -24    2    3    3    0    0  0.78197219865E+02  0.18642217477E+02 -0.81570660096E+02  0.13891388646E+03  0.78619067637E+02 0.  0.
          6    2    1    2  501    0 -0.10944959218E+03  0.93049584103E+02  0.44993393056E+03  0.50269589997E+03  0.17211968987E+03 0.  0.
         24    2    5    5    0    0 -0.13787347462E+03  0.45031333455E+02  0.36290143007E+03  0.39920476204E+03  0.81425291457E+02 0.  0.
          5    1    5    5  501    0  0.28423882436E+02  0.48018250648E+02  0.87032500489E+02  0.10349113793E+03  0.47000000000E+01 0. -1.
        -11    1    6    6    0    0  0.29177429326E+01  0.62193227358E+01  0.84897132480E+02  0.85174622408E+02  0.00000000000E+00 0.  1.
         12    1    6    6    0    0 -0.14079121755E+03  0.38812010719E+02  0.27800429759E+03  0.31403013963E+03  0.00000000000E+00 0. -1.
         -5    1    3    3    0  503  0.31252372319E+02 -0.11169180158E+03 -0.27842296326E+02  0.11936939633E+03  0.47000000000E+01 0.  1.
         13    1    4    4    0    0  0.70748564081E+02  0.41043229268E+02 -0.39863106163E+02  0.90988863171E+02  0.00000000000E+00 0. -1.
        -14    1    4    4    0    0  0.74486557840E+01 -0.22401011791E+02 -0.41707553933E+02  0.47925023290E+02  0.00000000000E+00 0.  1.
<mgrwt>
<rscale>  2 0.23148196E+03</rscale>
<asrwt>0</asrwt>
<pdfrwt beam="1">  1       21 0.84730781E-01 0.23396380E+03</pdfrwt>
<pdfrwt beam="2">  1       21 0.32342939E-01 0.23396380E+03</pdfrwt>
<totfact> 0.10809399E+04</totfact>
</mgrwt>
</event>
<event>
12    1  0.1013215E-001  0.1911495E+03  0.7546771E-02  0.1157460E+00
         21   -1    0    0  503  502  0.00000000000E+00  0.00000000000E+00  0.92852422052E+03  0.92852422052E+03  0.00000000000E+00 0.  1.
         21   -1    0    0  501  503 -0.00000000000E+00 -0.00000000000E+00 -0.39720928414E+02  0.39720928414E+02  0.00000000000E+00 0. -1.
          6    2    1    2  501    0 -0.81344941629E+02  0.10472438021E+02  0.39571084844E+03  0.43939896644E+03  0.17250421632E+03 0.  0.
         24    2    3    3    0    0 -0.97714478526E+02  0.31130235704E+02  0.39138958949E+03  0.41227942326E+03  0.79191547502E+02 0.  0.
         -6    2    1    2    0  502  0.81344941629E+02 -0.10472438021E+02  0.49309244367E+03  0.52884618249E+03  0.17265994107E+03 0.  0.
        -24    2    5    5    0    0  0.93278595284E+01 -0.36744962332E+02  0.12709258711E+03  0.15487467202E+03  0.79977728865E+02 0.  0.
          5    1    3    3  501    0  0.16369536897E+02 -0.20657797682E+02  0.43212589513E+01  0.27119543179E+02  0.47000000000E+01 0. -1.
        -11    1    4    4    0    0 -0.80136431711E+02 -0.13747778803E+02  0.25201689672E+03  0.26480816706E+03  0.00000000000E+00 0.  1.
         12    1    4    4    0    0 -0.17578046815E+02  0.44878014507E+02  0.13937269277E+03  0.14747125620E+03  0.00000000000E+00 0. -1.
         -5    1    5    5    0  502  0.72017082100E+02  0.26272524311E+02  0.36599985656E+03  0.37397151048E+03  0.47000000000E+01 0.  1.
         11    1    6    6    0    0 -0.32530349108E+02 -0.70741735089E+01  0.28897530894E+02  0.44083271609E+02  0.00000000000E+00 0. -1.
        -12    1    6    6    0    0  0.41858208636E+02 -0.29670788824E+02  0.98195056216E+02  0.11079140041E+03  0.00000000000E+00 0.  1.
<mgrwt>
<rscale>  2 0.19111432E+03</rscale>
<asrwt>0</asrwt>
<pdfrwt beam="1">  1       21 0.14284986E+00 0.19114949E+03</pdfrwt>
<pdfrwt beam="2">  1       21 0.61109128E-02 0.19114949E+03</pdfrwt>
<totfact> 0.64950395E+04</totfact>
</mgrwt>
</event>
<event>
12    1  0.1013215E-001  0.1752553E+03  0.7546771E-02  0.1172709E+00
         21   -1    0    0  503  502  0.00000000000E+00  0.00000000000E+00  0.20292057283E+03  0.20292057283E+03  0.00000000000E+00 0.  1.
         21   -1    0    0  501  503 -0.00000000000E+00 -0.00000000000E+00 -0.20136666680E+03  0.20136666680E+03  0.00000000000E+00 0.  1.
          6    2    1    2  501    0 -0.21995333008E+02 -0.87320056733E+01 -0.10076269935E+03  0.20135098459E+03  0.17271089954E+03 0.  0.
         24    2    3    3    0    0 -0.53832893730E+01  0.57627672500E+02 -0.40250718503E+02  0.10989959473E+03  0.84308197351E+02 0.  0.
         -6    2    1    2    0  502  0.21995333008E+02  0.87320056733E+01  0.10231660538E+03  0.20293625503E+03  0.17365020378E+03 0.  0.
        -24    2    5    5    0    0  0.52110367750E+02  0.39978987260E+02  0.11723994254E+02  0.10237582362E+03  0.77650160149E+02 0.  0.
          5    1    3    3  501    0 -0.16612043635E+02 -0.66359678173E+02 -0.60511980849E+02  0.91451389859E+02  0.47000000000E+01 0. -1.
        -13    1    4    4    0    0  0.25300925478E+02 -0.64078104937E+01 -0.27211277843E+02  0.37704780960E+02  0.00000000000E+00 0.  1.
         14    1    4    4    0    0 -0.30684214851E+02  0.64035482994E+02 -0.13039440659E+02  0.72194813775E+02  0.00000000000E+00 0. -1.
         -5    1    5    5    0  502 -0.30115034742E+02 -0.31246981587E+02  0.90592611125E+02  0.10056043141E+03  0.47000000000E+01 0.  1.
         11    1    6    6    0    0  0.99535765291E+01  0.15763354889E+02  0.41409428520E+02  0.45412529256E+02  0.00000000000E+00 0. -1.
        -12    1    6    6    0    0  0.42156791221E+02  0.24215632371E+02 -0.29685434266E+02  0.56963294363E+02  0.00000000000E+00 0.  1.
<mgrwt>
<rscale>  2 0.17502222E+03</rscale>
<asrwt>0</asrwt>
<pdfrwt beam="1">  1       21 0.31218550E-01 0.17525534E+03</pdfrwt>
<pdfrwt beam="2">  1       21 0.30979487E-01 0.17525534E+03</pdfrwt>
<totfact> 0.99323473E+04</totfact>
</mgrwt>
</event>
<event>
12    1  0.1013215E-001  0.2198839E+03  0.7546771E-02  0.1135268E+00
         21   -1    0    0  501  502  0.00000000000E+00  0.00000000000E+00  0.77916886457E+03  0.77916886457E+03  0.00000000000E+00 0.  1.
         21   -1    0    0  502  503 -0.00000000000E+00 -0.00000000000E+00 -0.61360038845E+02  0.61360038845E+02  0.00000000000E+00 0. -1.
         -6    2    1    2    0  503  0.12380110703E+03 -0.64490796815E+01  0.41270759058E+03  0.46444951902E+03  0.17325557904E+03 0.  0.
        -24    2    3    3    0    0  0.36375623931E+02  0.56776794630E+02  0.21704021462E+03  0.24095782277E+03  0.80046406350E+02 0.  0.
          6    2    1    2  501    0 -0.12380110703E+03  0.64490796815E+01  0.30510123515E+03  0.37607938439E+03  0.18160571286E+03 0.  0.
         24    2    5    5    0    0 -0.13827086972E+03 -0.44780762182E+02  0.23671994683E+03  0.28929251141E+03  0.80806397372E+02 0.  0.
          5    1    5    5  501    0  0.14469762691E+02  0.51229841863E+02  0.68381288322E+02  0.86786872983E+02  0.47000000000E+01 0. -1.
        -13    1    6    6    0    0 -0.23547908184E+01 -0.26282375955E+02  0.60302956382E+02  0.65823665000E+02  0.00000000000E+00 0.  1.
         14    1    6    6    0    0 -0.13591607891E+03 -0.18498386227E+02  0.17641699045E+03  0.22346884641E+03  0.00000000000E+00 0. -1.
         -5    1    3    3    0  503  0.87425483102E+02 -0.63225874312E+02  0.19566737596E+03  0.22349169625E+03  0.47000000000E+01 0.  1.
         13    1    4    4    0    0  0.58176682203E+02  0.22487928746E+02  0.10980940318E+03  0.12628673057E+03  0.00000000000E+00 0. -1.
        -14    1    4    4    0    0 -0.21801058273E+02  0.34288865884E+02  0.10723081143E+03  0.11467109220E+03  0.00000000000E+00 0.  1.
<mgrwt>
<rscale>  2 0.21815246E+03</rscale>
<asrwt>0</asrwt>
<pdfrwt beam="1">  1       21 0.11987213E+00 0.21988392E+03</pdfrwt>
<pdfrwt beam="2">  1       21 0.94400065E-02 0.21988392E+03</pdfrwt>
<totfact> 0.46888728E+04</totfact>
</mgrwt>
</event>
<event>
12    1  0.1013215E-001  0.1940241E+03  0.7546771E-02  0.1154960E+00
         21   -1    0    0  501  502  0.00000000000E+00  0.00000000000E+00  0.45938377191E+03  0.45938377191E+03  0.00000000000E+00 0. -1.
         21   -1    0    0  502  503 -0.00000000000E+00 -0.00000000000E+00 -0.21436935355E+03  0.21436935355E+03  0.00000000000E+00 0. -1.
         -6    2    1    2    0  503  0.10284484792E+02  0.85922426990E+02 -0.14237117269E+03  0.24065515573E+03  0.17365747631E+03 0.  0.
        -24    2    3    3    0    0  0.11033565615E+02 -0.20736602370E+02 -0.41041353000E+02  0.93459598649E+02  0.80613632069E+02 0.  0.
          6    2    1    2  501    0 -0.10284484792E+02 -0.85922426990E+02  0.38738559105E+03  0.43309796972E+03  0.17325651832E+03 0.  0.
         24    2    5    5    0    0 -0.15506811006E+02 -0.80013608309E+02  0.12702795236E+03  0.17257853311E+03  0.83693552366E+02 0.  0.
          5    1    5    5  501    0  0.52223262140E+01 -0.59088186806E+01  0.26035763869E+03  0.26051943661E+03  0.47000000000E+01 0. -1.
        -13    1    6    6    0    0 -0.54569450602E+01 -0.36048426380E+00 -0.11348983066E+02  0.12597921056E+02  0.00000000000E+00 0.  1.
         14    1    6    6    0    0 -0.10049865946E+02 -0.79653124045E+02  0.13837693542E+03  0.15998061205E+03  0.00000000000E+00 0. -1.
         -5    1    3    3    0  503 -0.74908082334E+00  0.10665902936E+03 -0.10132981969E+03  0.14719555708E+03  0.47000000000E+01 0.  1.
         11    1    4    4    0    0 -0.88928961498E+01 -0.27082743242E+02 -0.59237319068E+02  0.65739018504E+02  0.00000000000E+00 0. -1.
        -12    1    4    4    0    0  0.19926461765E+02  0.63461408723E+01  0.18195966068E+02  0.27720580145E+02  0.00000000000E+00 0.  1.
<mgrwt>
<rscale>  2 0.19393435E+03</rscale>
<asrwt>0</asrwt>
<pdfrwt beam="1">  1       21 0.70674427E-01 0.19402410E+03</pdfrwt>
<pdfrwt beam="2">  1       21 0.32979900E-01 0.19402410E+03</pdfrwt>
<totfact> 0.16044087E+04</totfact>
</mgrwt>
</event>
<event>
12    1  0.1013215E-001  0.2660314E+03  0.7546771E-02  0.1104329E+00
         21   -1    0    0  503  502  0.00000000000E+00  0.00000000000E+00  0.50060116181E+03  0.50060116181E+03  0.00000000000E+00 0. -1.
         21   -1    0    0  501  503 -0.00000000000E+00 -0.00000000000E+00 -0.15507751081E+03  0.15507751081E+03  0.00000000000E+00 0. -1.
          6    2    1    2  501    0 -0.19689691947E+03 -0.41527783057E+02  0.67606824822E+02  0.27448751289E+03  0.17401079941E+03 0.  0.
         24    2    3    3    0    0 -0.21220636121E+03 -0.51753679498E+02  0.85562883412E+02  0.24834448314E+03  0.81510687721E+02 0.  0.
         -6    2    1    2    0  502  0.19689691947E+03  0.41527783057E+02  0.27791682618E+03  0.38119115973E+03  0.16606018283E+03 0.  0.
        -24    2    5    5    0    0  0.92003331399E+02 -0.35953114680E+02  0.10433709114E+03  0.16403230371E+03  0.79139930689E+02 0.  0.
          5    1    3    3  501    0  0.15309441739E+02  0.10225896441E+02 -0.17956058591E+02  0.26143029749E+02  0.47000000000E+01 0. -1.
        -11    1    4    4    0    0 -0.41980566750E+02  0.19144763998E+02  0.28051732658E+01  0.46225090268E+02  0.00000000000E+00 0.  1.
         12    1    4    4    0    0 -0.17022579446E+03 -0.70898443497E+02  0.82757710146E+02  0.20211939288E+03  0.00000000000E+00 0. -1.
         -5    1    5    5    0  502  0.10489358807E+03  0.77480897737E+02  0.17357973504E+03  0.21715885602E+03  0.47000000000E+01 0.  1.
         11    1    6    6    0    0  0.54047821602E+02  0.20897242222E+02  0.53205907765E+02  0.78668483991E+02  0.00000000000E+00 0. -1.
        -12    1    6    6    0    0  0.37955509798E+02 -0.56850356901E+02  0.51131183371E+02  0.85363819718E+02  0.00000000000E+00 0.  1.
<mgrwt>
<rscale>  2 0.26473924E+03</rscale>
<asrwt>0</asrwt>
<pdfrwt beam="1">  1       21 0.77015562E-01 0.26603141E+03</pdfrwt>
<pdfrwt beam="2">  1       21 0.23858079E-01 0.26603141E+03</pdfrwt>
<totfact> 0.23888201E+04</totfact>
</mgrwt>
</event>
<event>
12    1  0.1013215E-001  0.2464964E+03  0.7546771E-02  0.1115557E+00
         21   -1    0    0  501  502  0.00000000000E+00  0.00000000000E+00  0.78312970225E+02  0.78312970225E+02  0.00000000000E+00 0. -1.
         21   -1    0    0  502  503 -0.00000000000E+00 -0.00000000000E+00 -0.96235322645E+03  0.96235322645E+03  0.00000000000E+00 0.  1.
         -6    2    1    2    0  503 -0.17432423161E+03  0.21585815508E+02 -0.21268084502E+03  0.32548513636E+03  0.17277889627E+03 0.  0.
        -24    2    3    3    0    0 -0.10665323993E+03  0.41012538463E+02 -0.53130059842E+02  0.15102796760E+03  0.83244830710E+02 0.  0.
          6    2    1    2  501    0  0.17432423161E+03 -0.21585815508E+02 -0.67135941120E+03  0.71518106031E+03  0.17293237077E+03 0.  0.
         24    2    5    5    0    0  0.16305607320E+03 -0.23712961342E+02 -0.35792583874E+03  0.40150257764E+03  0.77096214387E+02 0.  0.
          5    1    5    5  501    0  0.11268158414E+02  0.21271458341E+01 -0.31343357246E+03  0.31367848266E+03  0.47000000000E+01 0. -1.
        -13    1    6    6    0    0  0.78209238025E+02  0.18296108108E+02 -0.22004127971E+03  0.23424260343E+03  0.00000000000E+00 0.  1.
         14    1    6    6    0    0  0.84846835175E+02 -0.42009069451E+02 -0.13788455903E+03  0.16725997421E+03  0.00000000000E+00 0. -1.
         -5    1    3    3    0  503 -0.67670991679E+02 -0.19426722955E+02 -0.15955078518E+03  0.17445716876E+03  0.47000000000E+01 0.  1.
         11    1    4    4    0    0 -0.10022247730E+03  0.15760078306E+02 -0.11757766803E+02  0.10213309994E+03  0.00000000000E+00 0. -1.
        -12    1    4    4    0    0 -0.64307626355E+01  0.25252460158E+02 -0.41372293039E+02  0.48894867659E+02  0.00000000000E+00 0.  1.
<mgrwt>
<rscale>  2 0.24646951E+03</rscale>
<asrwt>0</asrwt>
<pdfrwt beam="1">  1       21 0.12048150E-01 0.24649643E+03</pdfrwt>
<pdfrwt beam="2">  1       21 0.14805433E+00 0.24649643E+03</pdfrwt>
<totfact> 0.17423446E+04</totfact>
</mgrwt>
</event>
<event>
12    1  0.1013215E-001  0.3465293E+03  0.7546771E-02  0.1064230E+00
         21   -1    0    0  501  502  0.00000000000E+00  0.00000000000E+00  0.14468976053E+03  0.14468976053E+03  0.00000000000E+00 0. -1.
         21   -1    0    0  502  503 -0.00000000000E+00 -0.00000000000E+00 -0.10504658924E+04  0.10504658924E+04  0.00000000000E+00 0.  1.
         -6    2    1    2    0  503 -0.28373634861E+03 -0.95566837757E+02 -0.73017058872E+03  0.80822749136E+03  0.17447995059E+03 0.  0.
        -24    2    3    3    0    0 -0.48001015482E+02 -0.47613932117E+02 -0.15951905555E+03  0.18892474573E+03  0.75332904127E+02 0.  0.
          6    2    1    2  501    0  0.28373634861E+03  0.95566837757E+02 -0.17560554314E+03  0.38692816155E+03  0.17098760018E+03 0.  0.
         24    2    5    5    0    0  0.82834057617E+02  0.14887870904E+02 -0.11034298281E+03  0.16075982159E+03  0.81148115079E+02 0.  0.
          5    1    5    5  501    0  0.20090229100E+03  0.80678966853E+02 -0.65262560329E+02  0.22616833996E+03  0.47000000000E+01 0. -1.
        -13    1    6    6    0    0 -0.46454067674E+00  0.27048875675E+02 -0.79339902427E+01  0.28192298141E+02  0.00000000000E+00 0.  1.
         14    1    6    6    0    0  0.83298598293E+02 -0.12161004770E+02 -0.10240899257E+03  0.13256752345E+03  0.00000000000E+00 0. -1.
         -5    1    3    3    0  503 -0.23573533313E+03 -0.47952905641E+02 -0.57065153317E+03  0.61930274564E+03  0.47000000000E+01 0.  1.
         13    1    4    4    0    0  0.86670490982E+01 -0.29012544494E+02 -0.10071396596E+03  0.10516724023E+03  0.00000000000E+00 0. -1.
        -14    1    4    4    0    0 -0.56668064580E+02 -0.18601387623E+02 -0.58805089589E+02  0.83757505493E+02  0.00000000000E+00 0.  1.
<mgrwt>
<rscale>  2 0.34609222E+03</rscale>
<asrwt>0</asrwt>
<pdfrwt beam="1">  1       21 0.22259963E-01 0.34652935E+03</pdfrwt>
<pdfrwt beam="2">  1       21 0.16161014E+00 0.34652935E+03</pdfrwt>
<totfact> 0.41815798E+03</totfact>
</mgrwt>
</event>
<event>
12    1  0.1013215E-001  0.2173240E+03  0.7546771E-02  0.1136365E+00
         21   -1    0    0  501  502  0.00000000000E+00  0.00000000000E+00  0.36757373031E+03  0.36757373031E+03  0.00000000000E+00 0. -1.
         21   -1    0    0  502  503 -0.00000000000E+00 -0.00000000000E+00 -0.18029536745E+03  0.18029536745E+03  0.00000000000E+00 0.  1.
         -6    2    1    2    0  503  0.51491860027E+02 -0.11892834592E+03  0.24214921387E+03  0.32372505457E+03  0.17136600033E+03 0.  0.
        -24    2    3    3    0    0 -0.95787607747E+01 -0.10622056954E+03  0.92207022937E+02  0.16125703025E+03  0.78276003193E+02 0.  0.
          6    2    1    2  501    0 -0.51491860027E+02  0.11892834592E+03 -0.54870851008E+02  0.22414404319E+03  0.17445451756E+03 0.  0.
         24    2    5    5    0    0  0.35029602670E+02  0.49436459533E+02 -0.47080526250E+01  0.10226918064E+03  0.82254379550E+02 0.  0.
          5    1    5    5  501    0 -0.86521462697E+02  0.69491886384E+02 -0.50162798383E+02  0.12187486255E+03  0.47000000000E+01 0. -1.
        -13    1    6    6    0    0 -0.10049133392E+02 -0.49681660587E+01 -0.26135052768E+02  0.28437804751E+02  0.00000000000E+00 0.  1.
         14    1    6    6    0    0  0.45078736062E+02  0.54404625592E+02  0.21427000143E+02  0.73831375890E+02  0.00000000000E+00 0. -1.
         -5    1    3    3    0  503  0.61070620802E+02 -0.12707776382E+02  0.14994219093E+03  0.16246802432E+03  0.47000000000E+01 0.  1.
         11    1    4    4    0    0  0.25510900499E+02 -0.68468064949E+02  0.79890300344E+02  0.10826422332E+03  0.00000000000E+00 0. -1.
        -12    1    4    4    0    0 -0.35089661274E+02 -0.37752504587E+02  0.12316722593E+02  0.52992806930E+02  0.00000000000E+00 0.  1.
<mgrwt>
<rscale>  2 0.21670355E+03</rscale>
<asrwt>0</asrwt>
<pdfrwt beam="1">  1       21 0.56549805E-01 0.21732405E+03</pdfrwt>
<pdfrwt beam="2">  1       21 0.27737749E-01 0.21732405E+03</pdfrwt>
<totfact> 0.36023611E+04</totfact>
</mgrwt>
</event>
<event>
12    1  0.1013215E-001  0.1921407E+03  0.7546771E-02  0.1156910E+00
         21   -1    0    0  501  502  0.00000000000E+00  0.00000000000E+00  0.43392025872E+03  0.43392025872E+03  0.00000000000E+00 0. -1.
         21   -1    0    0  502  503 -0.00000000000E+00 -0.00000000000E+00 -0.91417939786E+02  0.91417939786E+02  0.00000000000E+00 0. -1.
         -6    2    1    2    0  503  0.72171933010E+02  0.39534123299E+02  0.24492153915E+03  0.31129508182E+03  0.17362699332E+03 0.  0.
        -24    2    3    3    0    0  0.87514814667E+02  0.65784181613E+02  0.22963406442E+03  0.27694007546E+03  0.10944222454E+03 0.  0.
          6    2    1    2  501    0 -0.72171933010E+02 -0.39534123299E+02  0.97580779785E+02  0.21404311668E+03  0.17181592591E+03 0.  0.
         24    2    5    5    0    0 -0.15228908788E+02 -0.51055121837E+02 -0.42184858163E+01  0.96738292010E+02  0.80634709584E+02 0.  0.
          5    1    5    5  501    0 -0.56943024222E+02  0.11520998538E+02  0.10179926560E+03  0.11730482467E+03  0.47000000000E+01 0. -1.
        -11    1    6    6    0    0  0.89011548036E+01 -0.11702975079E+02 -0.37203261113E+02  0.40003410105E+02  0.00000000000E+00 0.  1.
         12    1    6    6    0    0 -0.24130063591E+02 -0.39352146758E+02  0.32984775297E+02  0.56734881905E+02  0.00000000000E+00 0. -1.
         -5    1    3    3    0  503 -0.15342881657E+02 -0.26250058313E+02  0.15287474726E+02  0.34355006368E+02  0.47000000000E+01 0.  1.
         11    1    4    4    0    0  0.56286016087E+02  0.44495192394E+02  0.37180498876E+02  0.80810440228E+02  0.00000000000E+00 0. -1.
        -12    1    4    4    0    0  0.31228798581E+02  0.21288989218E+02  0.19245356555E+03  0.19612963523E+03  0.00000000000E+00 0.  1.
<mgrwt>
<rscale>  2 0.19173069E+03</rscale>
<asrwt>0</asrwt>
<pdfrwt beam="1">  1       21 0.66756962E-01 0.19214075E+03</pdfrwt>
<pdfrwt beam="2">  1       21 0.14064299E-01 0.19214075E+03</pdfrwt>
<totfact> 0.90699317E+04</totfact>
</mgrwt>
</event>
<event>
12    1  0.1013215E-001  0.2596668E+03  0.7546771E-02  0.1107389E+00
         21   -1    0    0  501  502  0.00000000000E+00  0.00000000000E+00  0.14102159456E+03  0.14102159456E+03  0.00000000000E+00 0.  1.
         21   -1    0    0  502  503 -0.00000000000E+00 -0.00000000000E+00 -0.76112868327E+03  0.76112868327E+03  0.00000000000E+00 0.  1.
         -6    2    1    2    0  503 -0.15172910241E+03  0.12025584769E+03 -0.58525932008E+03  0.64015560868E+03  0.17259067807E+03 0.  0.
        -24    2    3    3    0    0 -0.12157856900E+02  0.86125574951E+02 -0.20923987667E+03  0.23759167598E+03  0.71435637870E+02 0.  0.
          6    2    1    2  501    0  0.15172910241E+03 -0.12025584769E+03 -0.34847768625E+02  0.26199466916E+03  0.17304233664E+03 0.  0.
         24    2    5    5    0    0  0.17619537747E+03 -0.74194978989E+02 -0.19439315050E+02  0.20740792459E+03  0.78041362531E+02 0.  0.
          5    1    5    5  501    0 -0.24466275063E+02 -0.46060868698E+02 -0.15408453575E+02  0.54586744565E+02  0.47000000000E+01 0. -1.
        -11    1    6    6    0    0  0.63599284331E+02  0.95919235969E+01 -0.18967968517E+02  0.67057123375E+02  0.00000000000E+00 0.  1.
         12    1    6    6    0    0  0.11259609314E+03 -0.83786902586E+02 -0.47134653317E+00  0.14035080122E+03  0.00000000000E+00 0. -1.
         -5    1    3    3    0  503 -0.13957124551E+03  0.34130272735E+02 -0.37601944341E+03  0.40256393270E+03  0.47000000000E+01 0.  1.
         13    1    4    4    0    0 -0.25089041850E+01 -0.12811214603E+02 -0.21315899720E+02  0.24995787659E+02  0.00000000000E+00 0. -1.
        -14    1    4    4    0    0 -0.96489527148E+01  0.98936789554E+02 -0.18792397695E+03  0.21259588832E+03  0.00000000000E+00 0.  1.
<mgrwt>
<rscale>  2 0.25959156E+03</rscale>
<asrwt>0</asrwt>
<pdfrwt beam="1">  1       21 0.21695630E-01 0.25966679E+03</pdfrwt>
<pdfrwt beam="2">  1       21 0.11709672E+00 0.25966679E+03</pdfrwt>
<totfact> 0.10656570E+04</totfact>
</mgrwt>
</event>
<event>
12    1  0.1013215E-001  0.1997995E+03  0.7546771E-02  0.1153574E+00
         21   -1    0    0  503  502  0.00000000000E+00  0.00000000000E+00  0.73863789878E+03  0.73863789878E+03  0.00000000000E+00 0.  1.
         21   -1    0    0  501  503 -0.00000000000E+00 -0.00000000000E+00 -0.51247462034E+02  0.51247462034E+02  0.00000000000E+00 0. -1.
          6    2    1    2  501    0  0.43988948385E+02  0.45081626540E+02  0.42765245546E+03  0.47202377502E+03  0.18961128895E+03 0.  0.
         24    2    3    3    0    0 -0.37715391129E+02  0.19020934985E+02  0.32807017307E+03  0.34051909942E+03  0.80863909855E+02 0.  0.
         -6    2    1    2    0  502 -0.43988948385E+02 -0.45081626540E+02  0.25973798129E+03  0.31786158579E+03  0.17206042010E+03 0.  0.
        -24    2    5    5    0    0 -0.56708755990E+02 -0.57243495902E+02  0.78529896717E+02  0.13574029520E+03  0.75932748097E+02 0.  0.
          5    1    3    3  501    0  0.81704339514E+02  0.26060691555E+02  0.99582282386E+02  0.13150467560E+03  0.47000000000E+01 0. -1.
        -11    1    4    4    0    0 -0.73313860177E+00  0.24462923395E+02  0.27219521529E+03  0.27329326253E+03  0.00000000000E+00 0.  1.
         12    1    4    4    0    0 -0.36982252527E+02 -0.54419884105E+01  0.55874957778E+02  0.67225836898E+02  0.00000000000E+00 0. -1.
         -5    1    5    5    0  502  0.12719807605E+02  0.12161869362E+02  0.18120808458E+03  0.18212129059E+03  0.47000000000E+01 0.  1.
         11    1    6    6    0    0 -0.20986076746E+02 -0.21379152660E+02 -0.11796553782E+02  0.32196929462E+02  0.00000000000E+00 0. -1.
        -12    1    6    6    0    0 -0.35722679245E+02 -0.35864343242E+02  0.90326450500E+02  0.10354336574E+03  0.00000000000E+00 0.  1.
<mgrwt>
<rscale>  2 0.19552088E+03</rscale>
<asrwt>0</asrwt>
<pdfrwt beam="1">  1       21 0.11363659E+00 0.19979945E+03</pdfrwt>
<pdfrwt beam="2">  1       21 0.78842255E-02 0.19979945E+03</pdfrwt>
<totfact> 0.74032025E+04</totfact>
</mgrwt>
</event>
<event>
12    1  0.1013215E-001  0.1901310E+03  0.7546771E-02  0.1158530E+00
         21   -1    0    0  501  502  0.00000000000E+00  0.00000000000E+00  0.67132501786E+02  0.67132501786E+02  0.00000000000E+00 0. -1.
         21   -1    0    0  502  503 -0.00000000000E+00 -0.00000000000E+00 -0.14236205544E+04  0.14236205544E+04  0.00000000000E+00 0. -1.
         -6    2    1    2    0  503 -0.46448594670E+02  0.62437383082E+02 -0.12662006053E+04  0.12802735787E+04  0.17257046346E+03 0.  0.
        -24    2    3    3    0    0  0.26019052935E+01  0.27174172792E+02 -0.10949366614E+04  0.10986066472E+04  0.85469685780E+02 0.  0.
          6    2    1    2  501    0  0.46448594670E+02 -0.62437383082E+02 -0.90287447369E+02  0.21047947748E+03  0.17347590189E+03 0.  0.
         24    2    5    5    0    0 -0.18227311070E+02  0.19429220926E+02 -0.41867675640E+02  0.95363544919E+02  0.81434476368E+02 0.  0.
          5    1    5    5  501    0  0.64675905741E+02 -0.81866604009E+02 -0.48419771729E+02  0.11511593256E+03  0.47000000000E+01 0. -1.
        -13    1    6    6    0    0  0.95887975619E+01  0.64413706059E+01 -0.59059530548E+02  0.60178604524E+02  0.00000000000E+00 0.  1.
         14    1    6    6    0    0 -0.27816108632E+02  0.12987850320E+02  0.17191854908E+02  0.35184940395E+02  0.00000000000E+00 0. -1.
         -5    1    3    3    0  503 -0.49050499964E+02  0.35263210290E+02 -0.17126394387E+03  0.18166693154E+03  0.47000000000E+01 0.  1.
         11    1    4    4    0    0 -0.25877012749E+02  0.32044710303E+02 -0.94583813649E+03  0.94673452651E+03  0.00000000000E+00 0. -1.
        -12    1    4    4    0    0  0.28478918043E+02 -0.48705375107E+01 -0.14909852490E+03  0.15187212067E+03  0.00000000000E+00 0.  1.
<mgrwt>
<rscale>  2 0.18992420E+03</rscale>
<asrwt>0</asrwt>
<pdfrwt beam="1">  1       21 0.10328078E-01 0.19013097E+03</pdfrwt>
<pdfrwt beam="2">  1       21 0.21901853E+00 0.19013097E+03</pdfrwt>
<totfact> 0.78359586E+03</totfact>
</mgrwt>
</event>
<event>
12    1  0.1013215E-001  0.1822892E+03  0.7546771E-02  0.1165798E+00
         21   -1    0    0  503  502  0.00000000000E+00  0.00000000000E+00  0.77607544482E+02  0.77607544482E+02  0.00000000000E+00 0.  1.
         21   -1    0    0  501  503 -0.00000000000E+00 -0.00000000000E+00 -0.46566837090E+03  0.46566837090E+03  0.00000000000E+00 0. -1.
          6    2    1    2  501    0 -0.55384589110E+02  0.11027744648E+02 -0.27342586669E+03  0.32861992831E+03  0.17332134562E+03 0.  0.
         24    2    3    3    0    0 -0.81977331028E+02 -0.14999615401E+01 -0.27577760362E+03  0.29875794560E+03  0.80501495084E+02 0.  0.
         -6    2    1    2    0  502  0.55384589110E+02 -0.11027744648E+02 -0.11463495973E+03  0.21465598706E+03  0.17247305566E+03 0.  0.
        -24    2    5    5    0    0  0.75481111615E+02 -0.47101827243E+02 -0.12398205630E+03  0.17205706846E+03  0.79473921399E+02 0.  0.
          5    1    3    3  501    0  0.26592741919E+02  0.12527706188E+02  0.23517369361E+01  0.29861982716E+02  0.47000000000E+01 0. -1.
        -11    1    4    4    0    0 -0.62451602355E+02 -0.37145130797E+02 -0.15193499662E+03  0.16841676454E+03  0.00000000000E+00 0.  1.
         12    1    4    4    0    0 -0.19525728673E+02  0.35645169256E+02 -0.12384260700E+03  0.13034118106E+03  0.00000000000E+00 0. -1.
         -5    1    5    5    0  502 -0.20096522505E+02  0.36074082594E+02  0.93470965748E+01  0.42598918603E+02  0.47000000000E+01 0.  1.
         13    1    6    6    0    0 -0.12537922813E+02 -0.15846800683E+02 -0.46494810212E+02  0.50696035121E+02  0.00000000000E+00 0. -1.
        -14    1    6    6    0    0  0.88019034428E+02 -0.31255026560E+02 -0.77487246090E+02  0.12136103334E+03  0.00000000000E+00 0.  1.
<mgrwt>
<rscale>  2 0.18208727E+03</rscale>
<asrwt>0</asrwt>
<pdfrwt beam="1">  1       21 0.11939622E-01 0.18228920E+03</pdfrwt>
<pdfrwt beam="2">  1       21 0.71641288E-01 0.18228920E+03</pdfrwt>
<totfact> 0.10465437E+05</totfact>
</mgrwt>
</event>
<event>
12    1  0.1013215E-001  0.2658966E+03  0.7546771E-02  0.1103765E+00
         21   -1    0    0  501  502  0.00000000000E+00  0.00000000000E+00  0.14900921237E+04  0.14900921237E+04  0.00000000000E+00 0. -1.
         21   -1    0    0  502  503 -0.00000000000E+00 -0.00000000000E+00 -0.70267455753E+02  0.70267455753E+02  0.00000000000E+00 0. -1.
         -6    2    1    2    0  503  0.75521867544E+02  0.18767090724E+03  0.26325105329E+03  0.37361466070E+03  0.17135599121E+03 0.  0.
        -24    2    3    3    0    0  0.83623329995E+02  0.10501525878E+03  0.86991950463E+02  0.17871224602E+03  0.79683132063E+02 0.  0.
          6    2    1    2  501    0 -0.75521867544E+02 -0.18767090724E+03  0.11565736146E+04  0.11867449188E+04  0.17256029143E+03 0.  0.
         24    2    5    5    0    0  0.23114275242E+02 -0.74968475367E+02  0.42034569321E+03  0.43542303758E+03  0.82147293569E+02 0.  0.
          5    1    5    5  501    0 -0.98636142786E+02 -0.11270243188E+03  0.73622792144E+03  0.75132188117E+03  0.47000000000E+01 0. -1.
        -11    1    6    6    0    0 -0.37317920431E+01 -0.28497714982E+02  0.30528867500E+02  0.41929199634E+02  0.00000000000E+00 0.  1.
         12    1    6    6    0    0  0.26846067286E+02 -0.46470760385E+02  0.38981682570E+03  0.39349383795E+03  0.00000000000E+00 0. -1.
         -5    1    3    3    0  503 -0.81014624512E+01  0.82655648465E+02  0.17625910283E+03  0.19490241468E+03  0.47000000000E+01 0.  1.
         13    1    4    4    0    0 -0.36450321954E+01  0.42467624564E+02  0.36236320910E+01  0.42777518691E+02  0.00000000000E+00 0. -1.
        -14    1    4    4    0    0  0.87268362190E+02  0.62547634216E+02  0.83368318372E+02  0.13593472733E+03  0.00000000000E+00 0.  1.
<mgrwt>
<rscale>  2 0.26570134E+03</rscale>
<asrwt>0</asrwt>
<pdfrwt beam="1">  1       21 0.22924492E+00 0.26589655E+03</pdfrwt>
<pdfrwt beam="2">  1       21 0.10810379E-01 0.26589655E+03</pdfrwt>
<totfact> 0.58762366E+03</totfact>
</mgrwt>
</event>
<event>
12    1  0.1013215E-001  0.1920569E+03  0.7546771E-02  0.1160020E+00
         21   -1    0    0  501  502  0.00000000000E+00  0.00000000000E+00  0.12475627819E+04  0.12475627819E+04  0.00000000000E+00 0. -1.
         21   -1    0    0  502  503 -0.00000000000E+00 -0.00000000000E+00 -0.31138119401E+02  0.31138119401E+02  0.00000000000E+00 0. -1.
         -6    2    1    2    0  503  0.21712517148E+02 -0.13380688337E+02  0.85217303518E+03  0.87354721211E+03  0.19035591315E+03 0.  0.
        -24    2    3    3    0    0  0.81339120530E+02 -0.14641960551E+02  0.37174803929E+03  0.38941170493E+03  0.81329156395E+02 0.  0.
          6    2    1    2  501    0 -0.21712517148E+02  0.13380688337E+02  0.36425162728E+03  0.40515368915E+03  0.17555565396E+03 0.  0.
         24    2    5    5    0    0  0.18497925598E+02  0.16940008062E+02  0.35027148619E+03  0.36217598787E+03  0.88612612114E+02 0.  0.
          5    1    5    5  501    0 -0.40210442747E+02 -0.35593197251E+01  0.13980141087E+02  0.42977701283E+02  0.47000000000E+01 0. -1.
        -13    1    6    6    0    0 -0.23819457962E+02 -0.21024958689E+02  0.17662641226E+03  0.17946115171E+03  0.00000000000E+00 0.  1.
         14    1    6    6    0    0  0.42317383561E+02  0.37964966751E+02  0.17364507393E+03  0.18271483616E+03  0.00000000000E+00 0. -1.
         -5    1    3    3    0  503 -0.59626603381E+02  0.12612722141E+01  0.48042499588E+03  0.48413550718E+03  0.47000000000E+01 0.  1.
         11    1    4    4    0    0  0.24377195361E+02 -0.21266651615E+02  0.27536676237E+03  0.27726047671E+03  0.00000000000E+00 0. -1.
        -12    1    4    4    0    0  0.56961925169E+02  0.66246910643E+01  0.96381276921E+02  0.11215122822E+03  0.00000000000E+00 0.  1.
<mgrwt>
<rscale>  2 0.18828251E+03</rscale>
<asrwt>0</asrwt>
<pdfrwt beam="1">  1       21 0.19193270E+00 0.19205689E+03</pdfrwt>
<pdfrwt beam="2">  1       21 0.47904809E-02 0.19205689E+03</pdfrwt>
<totfact> 0.43827207E+04</totfact>
</mgrwt>
</event>
<event>
12    1  0.1013215E-001  0.1970300E+03  0.7546771E-02  0.1152855E+00
         21   -1    0    0  501  502  0.00000000000E+00  0.00000000000E+00  0.11517114011E+04  0.11517114011E+04  0.00000000000E+00 0.  1.
         21   -1    0    0  502  503 -0.00000000000E+00 -0.00000000000E+00 -0.65230719750E+02  0.65230719750E+02  0.00000000000E+00 0.  1.
         -6    2    1    2    0  503 -0.89287197587E+02 -0.17058896778E+02  0.11525645532E+03  0.22593389361E+03  0.17175233383E+03 0.  0.
        -24    2    3    3    0    0  0.17211852094E+02 -0.27399443458E+02  0.62119583772E+02  0.10637390194E+03  0.80059896156E+02 0.  0.
          6    2    1    2  501    0  0.89287197587E+02  0.17058896778E+02  0.97122422602E+03  0.99100822723E+03  0.17480732141E+03 0.  0.
         24    2    5    5    0    0  0.23821231499E+02  0.59735711482E+02  0.35060494512E+03  0.36547047053E+03  0.80678565884E+02 0.  0.
          5    1    5    5  501    0  0.65465966089E+02 -0.42676814703E+02  0.62061928090E+03  0.62553775670E+03  0.47000000000E+01 0. -1.
        -11    1    6    6    0    0  0.43807190046E+02  0.36255591286E+02  0.11975036114E+03  0.13256578289E+03  0.00000000000E+00 0.  1.
         12    1    6    6    0    0 -0.19985958547E+02  0.23480120196E+02  0.23085458398E+03  0.23290468764E+03  0.00000000000E+00 0. -1.
         -5    1    3    3    0  503 -0.10649904968E+03  0.10340546680E+02  0.53136871545E+02  0.11955999166E+03  0.47000000000E+01 0.  1.
         13    1    4    4    0    0  0.15933916963E+02 -0.65879696526E+01 -0.17203173504E+02  0.24356523408E+02  0.00000000000E+00 0. -1.
        -14    1    4    4    0    0  0.12779351309E+01 -0.20811473806E+02  0.79322757276E+02  0.82017378537E+02  0.00000000000E+00 0.  1.
<mgrwt>
<rscale>  2 0.19635013E+03</rscale>
<asrwt>0</asrwt>
<pdfrwt beam="1">  1       21 0.17718635E+00 0.19702997E+03</pdfrwt>
<pdfrwt beam="2">  1       21 0.10035496E-01 0.19702997E+03</pdfrwt>
<totfact> 0.15287446E+04</totfact>
</mgrwt>
</event>
<event>
12    1  0.1013215E-001  0.2570295E+03  0.7546771E-02  0.1108949E+00
         21   -1    0    0  503  502  0.00000000000E+00  0.00000000000E+00  0.34609451304E+03  0.34609451304E+03  0.00000000000E+00 0. -1.
         21   -1    0    0  501  503 -0.00000000000E+00 -0.00000000000E+00 -0.21945989207E+03  0.21945989207E+03  0.00000000000E+00 0.  1.
          6    2    1    2  501    0 -0.14510000133E+03 -0.12161219119E+03 -0.38797070237E+02  0.25988826526E+03  0.17376179767E+03 0.  0.
         24    2    3    3    0    0 -0.13483673495E+03 -0.46232493413E+02 -0.69398856496E+02  0.17775427232E+03  0.80386513212E+02 0.  0.
         -6    2    1    2    0  502  0.14510000133E+03  0.12161219119E+03  0.16543169121E+03  0.30566613984E+03  0.17384075804E+03 0.  0.
        -24    2    5    5    0    0  0.97864315165E+02  0.68422741055E+01  0.11447664075E+03  0.17142065171E+03  0.81583684998E+02 0.  0.
          5    1    3    3  501    0 -0.10263266380E+02 -0.75379697780E+02  0.30601786259E+02  0.82133992941E+02  0.47000000000E+01 0. -1.
        -13    1    4    4    0    0 -0.94766503032E+01 -0.36555938374E+02 -0.19269803819E+02  0.42396566732E+02  0.00000000000E+00 0.  1.
         14    1    4    4    0    0 -0.12536008465E+03 -0.96765550383E+01 -0.50129052677E+02  0.13535770559E+03  0.00000000000E+00 0. -1.
         -5    1    5    5    0  502  0.47235686168E+02  0.11476991709E+03  0.50955050464E+02  0.13424548813E+03  0.47000000000E+01 0.  1.
         13    1    6    6    0    0  0.66285111292E+02  0.32995254829E+02  0.10640356500E+03  0.12963071189E+03  0.00000000000E+00 0. -1.
        -14    1    6    6    0    0  0.31579203873E+02 -0.26152980723E+02  0.80730757455E+01  0.41789939818E+02  0.00000000000E+00 0.  1.
<mgrwt>
<rscale>  2 0.25701611E+03</rscale>
<asrwt>0</asrwt>
<pdfrwt beam="1">  1       21 0.53245310E-01 0.25702946E+03</pdfrwt>
<pdfrwt beam="2">  1       21 0.33763060E-01 0.25702946E+03</pdfrwt>
<totfact> 0.27325614E+04</totfact>
</mgrwt>
</event>
<event>
12    1  0.1013215E-001  0.1895235E+03  0.7546771E-02  0.1159346E+00
         21   -1    0    0  503  502  0.00000000000E+00  0.00000000000E+00  0.31877841706E+03  0.31877841706E+03  0.00000000000E+00 0.  1.
         21   -1    0    0  501  503 -0.00000000000E+00 -0.00000000000E+00 -0.15863416767E+03  0.15863416767E+03  0.00000000000E+00 0.  1.
          6    2    1    2  501    0 -0.55064731558E+02  0.46327844619E+02 -0.50349830723E+02  0.19416900486E+03  0.17317073410E+03 0.  0.
         24    2    3    3    0    0 -0.11411279823E+02 -0.14705011746E+02  0.24479911876E+02  0.88092552331E+02  0.82550451319E+02 0.  0.
         -6    2    1    2    0  502  0.55064731558E+02 -0.46327844619E+02  0.21049408011E+03  0.28324357987E+03  0.17533047062E+03 0.  0.
        -24    2    5    5    0    0  0.33795420367E+02 -0.62431880307E+02  0.22775945730E+03  0.25112027348E+03  0.78403770606E+02 0.  0.
          5    1    3    3  501    0 -0.43653451735E+02  0.61032856365E+02 -0.74829742599E+02  0.10607645253E+03  0.47000000000E+01 0. -1.
        -11    1    4    4    0    0 -0.41252028728E+02  0.39892803548E+01  0.31661836505E+02  0.52154732506E+02  0.00000000000E+00 0.  1.
         12    1    4    4    0    0  0.29840748905E+02 -0.18694292101E+02 -0.71819246294E+01  0.35937819824E+02  0.00000000000E+00 0. -1.
         -5    1    5    5    0  502  0.21269311191E+02  0.16104035688E+02 -0.17265377193E+02  0.32123306392E+02  0.47000000000E+01 0.  1.
         13    1    6    6    0    0  0.10795522643E+02  0.26466284963E+01 -0.19321605539E+01  0.11281896824E+02  0.00000000000E+00 0. -1.
        -14    1    6    6    0    0  0.22999897724E+02 -0.65078508803E+02  0.22969161786E+03  0.23983837666E+03  0.00000000000E+00 0.  1.
<mgrwt>
<rscale>  2 0.18902249E+03</rscale>
<asrwt>0</asrwt>
<pdfrwt beam="1">  1       21 0.49042833E-01 0.18952353E+03</pdfrwt>
<pdfrwt beam="2">  1       21 0.24405257E-01 0.18952353E+03</pdfrwt>
<totfact> 0.62996142E+04</totfact>
</mgrwt>
</event>
<event>
12    1  0.1013215E-001  0.1926912E+03  0.7546771E-02  0.1156303E+00
         21   -1    0    0  503  502  0.00000000000E+00  0.00000000000E+00  0.15765381120E+03  0.15765381120E+03  0.00000000000E+00 0.  1.
         21   -1    0    0  501  503 -0.00000000000E+00 -0.00000000000E+00 -0.32781675150E+03  0.32781675150E+03  0.00000000000E+00 0.  1.
          6    2    1    2  501    0  0.52419281921E+02  0.62357812691E+02 -0.21464979206E+03  0.28771064201E+03  0.17339723866E+03 0.  0.
         24    2    3    3    0    0  0.70086782917E+02  0.80767795816E+02 -0.91719161637E+02  0.16207188221E+03  0.80120511792E+02 0.  0.
         -6    2    1    2    0  502 -0.52419281921E+02 -0.62357812691E+02  0.44486851756E+02  0.19775992069E+03  0.17462424898E+03 0.  0.
        -24    2    5    5    0    0 -0.98247749062E+02 -0.70415063309E+02  0.46924748447E+02  0.15092829646E+03  0.77243234773E+02 0.  0.
          5    1    3    3  501    0 -0.17667500996E+02 -0.18409983125E+02 -0.12293063042E+03  0.12563875981E+03  0.47000000000E+01 0. -1.
        -11    1    4    4    0    0  0.56686368666E+02  0.11762724269E+02 -0.64552873009E+02  0.86710896019E+02  0.00000000000E+00 0.  1.
         12    1    4    4    0    0  0.13400414251E+02  0.69005071547E+02 -0.27166288628E+02  0.75360986187E+02  0.00000000000E+00 0. -1.
         -5    1    5    5    0  502  0.45828467141E+02  0.80572506184E+01 -0.24378966914E+01  0.46831624233E+02  0.47000000000E+01 0.  1.
         13    1    6    6    0    0  0.10072945905E+02 -0.11536338203E+02 -0.64041803126E+01  0.16600146500E+02  0.00000000000E+00 0. -1.
        -14    1    6    6    0    0 -0.10832069497E+03 -0.58878725106E+02  0.53328928760E+02  0.13432814996E+03  0.00000000000E+00 0.  1.
<mgrwt>
<rscale>  2 0.19241280E+03</rscale>
<asrwt>0</asrwt>
<pdfrwt beam="1">  1       21 0.24254433E-01 0.19269122E+03</pdfrwt>
<pdfrwt beam="2">  1       21 0.50433346E-01 0.19269122E+03</pdfrwt>
<totfact> 0.60056219E+04</totfact>
</mgrwt>
</event>
<event>
12    1  0.1013215E-001  0.1769388E+03  0.7546771E-02  0.1171555E+00
         21   -1    0    0  503  502  0.00000000000E+00  0.00000000000E+00  0.11811904131E+04  0.11811904131E+04  0.00000000000E+00 0. -1.
         21   -1    0    0  501  503 -0.00000000000E+00 -0.00000000000E+00 -0.13485014287E+03  0.13485014287E+03  0.00000000000E+00 0. -1.
          6    2    1    2  501    0  0.17310178372E+02 -0.22269279959E+02 -0.68744577331E+02  0.18700487647E+03  0.17160840250E+03 0.  0.
         24    2    3    3    0    0  0.52061427542E+02 -0.22559382483E+02 -0.99461015802E+02  0.14038596324E+03  0.81218267869E+02 0.  0.
         -6    2    1    2    0  502 -0.17310178372E+02  0.22269279959E+02  0.11150848476E+04  0.11290356795E+04  0.17467622962E+03 0.  0.
        -24    2    5    5    0    0  0.40778929995E+01  0.78761923325E+02  0.78154335773E+03  0.79003585089E+03  0.84418930948E+02 0.  0.
          5    1    3    3  501    0 -0.34751249169E+02  0.29010252473E+00  0.30716438471E+02  0.46618913229E+02  0.47000000000E+01 0. -1.
        -11    1    4    4    0    0  0.77893166938E+01 -0.70444010456E+01  0.14062527610E+02  0.17551402321E+02  0.00000000000E+00 0.  1.
         12    1    4    4    0    0  0.44272110848E+02 -0.15514981438E+02 -0.11352354341E+03  0.12283456092E+03  0.00000000000E+00 0. -1.
         -5    1    5    5    0  502 -0.21388071372E+02 -0.56492643367E+02  0.33354148986E+03  0.33899982863E+03  0.47000000000E+01 0.  1.
         13    1    6    6    0    0 -0.39806303995E+02  0.29614126892E+02  0.34386036480E+03  0.34742119801E+03  0.00000000000E+00 0. -1.
        -14    1    6    6    0    0  0.43884196994E+02  0.49147796434E+02  0.43768299293E+03  0.44261465288E+03  0.00000000000E+00 0.  1.
<mgrwt>
<rscale>  2 0.17617694E+03</rscale>
<asrwt>0</asrwt>
<pdfrwt beam="1">  1       21 0.18172160E+00 0.17693883E+03</pdfrwt>
<pdfrwt beam="2">  1       21 0.20746177E-01 0.17693883E+03</pdfrwt>
<totfact> 0.38755292E+03</totfact>
</mgrwt>
</event>
<event>
12    1  0.1013215E-001  0.2057186E+03  0.7546771E-02  0.1146146E+00
         21   -1    0    0  501  502  0.00000000000E+00  0.00000000000E+00  0.43049542224E+03  0.43049542224E+03  0.00000000000E+00 0.  1.
         21   -1    0    0  502  503 -0.00000000000E+00 -0.00000000000E+00 -0.11257355328E+03  0.11257355328E+03  0.00000000000E+00 0.  1.
         -6    2    1    2    0  503 -0.46979649761E+02 -0.10076993132E+03  0.55606583250E+02  0.21310143774E+03  0.17308513545E+03 0.  0.
        -24    2    3    3    0    0 -0.90001909249E+02 -0.70601782613E+02  0.48938194776E+01  0.13992421165E+03  0.80435565273E+02 0.  0.
          6    2    1    2  501    0  0.46979649761E+02  0.10076993132E+03  0.26231528571E+03  0.32996753778E+03  0.16645600115E+03 0.  0.
         24    2    5    5    0    0  0.27995699163E+02  0.12924939319E+03  0.24858969003E+03  0.29279292137E+03  0.80260176952E+02 0.  0.
          5    1    5    5  501    0  0.18983950597E+02 -0.28479461864E+02  0.13725595680E+02  0.37174616408E+02  0.47000000000E+01 0. -1.
        -11    1    6    6    0    0  0.48190035530E+02  0.43842025951E+02  0.84400583853E+02  0.10662017313E+03  0.00000000000E+00 0.  1.
         12    1    6    6    0    0 -0.20194336367E+02  0.85407367236E+02  0.16418910618E+03  0.18617274824E+03  0.00000000000E+00 0. -1.
         -5    1    3    3    0  503  0.43022259488E+02 -0.30168148711E+02  0.50712763772E+02  0.73177226085E+02  0.47000000000E+01 0.  1.
         13    1    4    4    0    0 -0.23701671000E+02 -0.25188065318E+02  0.39434880189E+02  0.52453003901E+02  0.00000000000E+00 0. -1.
        -14    1    4    4    0    0 -0.66300238249E+02 -0.45413717294E+02 -0.34541060712E+02  0.87471207751E+02  0.00000000000E+00 0.  1.
<mgrwt>
<rscale>  2 0.20431796E+03</rscale>
<asrwt>0</asrwt>
<pdfrwt beam="1">  1       21 0.66230064E-01 0.20571857E+03</pdfrwt>
<pdfrwt beam="2">  1       21 0.17319008E-01 0.20571857E+03</pdfrwt>
<totfact> 0.62692145E+04</totfact>
</mgrwt>
</event>
<event>
12    1  0.1013215E-001  0.1813386E+03  0.7546771E-02  0.1167529E+00
         21   -1    0    0  503  502  0.00000000000E+00  0.00000000000E+00  0.18286038019E+03  0.18286038019E+03  0.00000000000E+00 0.  1.
         21   -1    0    0  501  503 -0.00000000000E+00 -0.00000000000E+00 -0.24343732961E+03  0.24343732961E+03  0.00000000000E+00 0.  1.
          6    2    1    2  501    0  0.52559010011E+02  0.17072871582E+02 -0.14296828377E+03  0.23091908588E+03  0.17271294562E+03 0.  0.
         24    2    3    3    0    0  0.59834825340E+02  0.55469890696E+02 -0.15214177616E+03  0.19050236251E+03  0.80541386707E+02 0.  0.
         -6    2    1    2    0  502 -0.52559010011E+02 -0.17072871582E+02  0.82391334347E+02  0.19537862391E+03  0.16831679128E+03 0.  0.
        -24    2    5    5    0    0 -0.48417940722E+02 -0.49785485874E+02  0.16852083798E+02  0.12186163981E+03  0.98708535300E+02 0.  0.
          5    1    3    3  501    0 -0.72758153291E+01 -0.38397019114E+02  0.91734923898E+01  0.40416723372E+02  0.47000000000E+01 0. -1.
        -13    1    4    4    0    0  0.31409472196E+02 -0.12951600441E+02 -0.80778045040E+02  0.87632137131E+02  0.00000000000E+00 0.  1.
         14    1    4    4    0    0  0.28425353145E+02  0.68421491137E+02 -0.71363731119E+02  0.10287022538E+03  0.00000000000E+00 0. -1.
         -5    1    5    5    0  502 -0.41410692890E+01  0.32712614291E+02  0.65539250549E+02  0.73516984100E+02  0.47000000000E+01 0.  1.
         13    1    6    6    0    0  0.13821687048E+02 -0.42095309758E+02  0.35125437067E+02  0.56540697428E+02  0.00000000000E+00 0. -1.
        -14    1    6    6    0    0 -0.62239627771E+02 -0.76901761157E+01 -0.18273353269E+02  0.65320942380E+02  0.00000000000E+00 0.  1.
<mgrwt>
<rscale>  2 0.18028396E+03</rscale>
<asrwt>0</asrwt>
<pdfrwt beam="1">  1       21 0.28132366E-01 0.18133862E+03</pdfrwt>
<pdfrwt beam="2">  1       21 0.37451897E-01 0.18133862E+03</pdfrwt>
<totfact> 0.83387371E+04</totfact>
</mgrwt>
</event>
<event>
12    1  0.1013215E-001  0.1837259E+03  0.7546771E-02  0.1164375E+00
         21   -1    0    0  501  502  0.00000000000E+00  0.00000000000E+00  0.19771954604E+03  0.19771954604E+03  0.00000000000E+00 0.  1.
         21   -1    0    0  502  503 -0.00000000000E+00 -0.00000000000E+00 -0.17080358551E+03  0.17080358551E+03  0.00000000000E+00 0.  1.
         -6    2    1    2    0  503 -0.36889473270E+02  0.48129560974E+02  0.24293112066E+02  0.18477852783E+03  0.17284577280E+03 0.  0.
        -24    2    3    3    0    0 -0.62175710800E+02  0.17509692744E+02  0.69755591128E+02  0.12423187523E+03  0.79970669468E+02 0.  0.
          6    2    1    2  501    0  0.36889473270E+02 -0.48129560974E+02  0.26228484610E+01  0.18374460372E+03  0.17342984802E+03 0.  0.
         24    2    5    5    0    0  0.56805440422E+02 -0.44557222810E+02  0.63792946852E+02  0.11914368821E+03  0.70096178247E+02 0.  0.
          5    1    5    5  501    0 -0.19915967153E+02 -0.35723381646E+01 -0.61170098391E+02  0.64600915511E+02  0.47000000000E+01 0. -1.
        -13    1    6    6    0    0  0.27210097727E+02 -0.54820280881E+02  0.18243635785E+02  0.63863000719E+02  0.00000000000E+00 0.  1.
         14    1    6    6    0    0  0.29595342695E+02  0.10263058071E+02  0.45549311067E+02  0.55280687486E+02  0.00000000000E+00 0. -1.
         -5    1    3    3    0  503  0.25286237531E+02  0.30619868230E+02 -0.45462479062E+02  0.60546652603E+02  0.47000000000E+01 0.  1.
         13    1    4    4    0    0  0.17597704238E+02  0.14095168737E+02  0.10933567989E+02  0.25057850768E+02  0.00000000000E+00 0. -1.
        -14    1    4    4    0    0 -0.79773415038E+02  0.34145240066E+01  0.58822023140E+02  0.99174024458E+02  0.00000000000E+00 0.  1.
<mgrwt>
<rscale>  2 0.18358792E+03</rscale>
<asrwt>0</asrwt>
<pdfrwt beam="1">  1       21 0.30418392E-01 0.18372588E+03</pdfrwt>
<pdfrwt beam="2">  1       21 0.26277475E-01 0.18372588E+03</pdfrwt>
<totfact> 0.14322663E+05</totfact>
</mgrwt>
</event>
<event>
12    1  0.1013215E-001  0.2004898E+03  0.7546771E-02  0.1149359E+00
         21   -1    0    0  501  502  0.00000000000E+00  0.00000000000E+00  0.46773247037E+03  0.46773247037E+03  0.00000000000E+00 0. -1.
         21   -1    0    0  502  503 -0.00000000000E+00 -0.00000000000E+00 -0.13707470362E+03  0.13707470362E+03  0.00000000000E+00 0. -1.
         -6    2    1    2    0  503 -0.47743054569E+02  0.89162327759E+02  0.35011051104E+03  0.40337587120E+03  0.17293178879E+03 0.  0.
        -24    2    3    3    0    0 -0.57561991265E+02  0.57778684749E+02  0.10408315422E+03  0.15511613852E+03  0.81092257257E+02 0.  0.
          6    2    1    2  501    0  0.47743054569E+02 -0.89162327759E+02 -0.19452744291E+02  0.20143130279E+03  0.17310933115E+03 0.  0.
         24    2    5    5    0    0  0.64684470870E+02  0.61537710202E+01 -0.35351507582E+01  0.10320895270E+03  0.80110180110E+02 0.  0.
          5    1    5    5  501    0 -0.16941416301E+02 -0.95316098780E+02 -0.15917593533E+02  0.98222350088E+02  0.47000000000E+01 0. -1.
        -11    1    6    6    0    0  0.15506728908E+02  0.36224238586E+02  0.15736743813E+02  0.42429932929E+02  0.00000000000E+00 0.  1.
         12    1    6    6    0    0  0.49177741962E+02 -0.30070467565E+02 -0.19271894571E+02  0.60779019772E+02  0.00000000000E+00 0. -1.
         -5    1    3    3    0  503  0.98189366969E+01  0.31383643010E+02  0.24602735682E+03  0.24825973268E+03  0.47000000000E+01 0.  1.
         13    1    4    4    0    0 -0.31437230192E+02  0.59853477457E+02  0.10918073106E+03  0.12841795140E+03  0.00000000000E+00 0. -1.
        -14    1    4    4    0    0 -0.26124761073E+02 -0.20747927077E+01 -0.50975768426E+01  0.26698187122E+02  0.00000000000E+00 0.  1.
<mgrwt>
<rscale>  2 0.20045147E+03</rscale>
<asrwt>0</asrwt>
<pdfrwt beam="1">  1       21 0.71958841E-01 0.20048980E+03</pdfrwt>
<pdfrwt beam="2">  1       21 0.21088416E-01 0.20048980E+03</pdfrwt>
<totfact> 0.36286041E+04</totfact>
</mgrwt>
</event>
<event>
12    1  0.1013215E-001  0.2104577E+03  0.7546771E-02  0.1141377E+00
         21   -1    0    0  503  502  0.00000000000E+00  0.00000000000E+00  0.17214669958E+04  0.17214669958E+04  0.00000000000E+00 0.  1.
         21   -1    0    0  501  503 -0.00000000000E+00 -0.00000000000E+00 -0.43438167669E+02  0.43438167669E+02  0.00000000000E+00 0. -1.
          6    2    1    2  501    0  0.11614840059E+02  0.11795147368E+03  0.27285142327E+03  0.34405471822E+03  0.17285339250E+03 0.  0.
         24    2    3    3    0    0  0.51904598806E+02  0.13384348156E+03  0.19909931722E+03  0.25839677217E+03  0.80747686167E+02 0.  0.
         -6    2    1    2    0  502 -0.11614840059E+02 -0.11795147368E+03  0.14051774048E+04  0.14208504452E+04  0.17391087939E+03 0.  0.
        -24    2    5    5    0    0 -0.23095176266E+02 -0.46937229248E+01  0.84330071179E+03  0.84753846696E+03  0.81301563788E+02 0.  0.
          5    1    3    3  501    0 -0.40289758747E+02 -0.15892007874E+02  0.73752106050E+02  0.85657946047E+02  0.47000000000E+01 0. -1.
        -11    1    4    4    0    0 -0.38602904614E+01  0.98293437131E+02  0.12532879193E+03  0.15932296668E+03  0.00000000000E+00 0.  1.
         12    1    4    4    0    0  0.55764889267E+02  0.35550044424E+02  0.73770525281E+02  0.99073805488E+02  0.00000000000E+00 0. -1.
         -5    1    5    5    0  502  0.11480336208E+02 -0.11325775076E+03  0.56187669306E+03  0.57331197827E+03  0.47000000000E+01 0.  1.
         11    1    6    6    0    0  0.88357080023E+01  0.15451505751E+02  0.45688883148E+02  0.49033588581E+02  0.00000000000E+00 0. -1.
        -12    1    6    6    0    0 -0.31930884269E+02 -0.20145228676E+02  0.79761182864E+03  0.79850487838E+03  0.00000000000E+00 0.  1.
<mgrwt>
<rscale>  2 0.21023912E+03</rscale>
<asrwt>0</asrwt>
<pdfrwt beam="1">  1       21 0.26484102E+00 0.21045771E+03</pdfrwt>
<pdfrwt beam="2">  1       21 0.66827963E-02 0.21045771E+03</pdfrwt>
<totfact> 0.87705383E+03</totfact>
</mgrwt>
</event>
<event>
12    1  0.1013215E-001  0.1953820E+03  0.7546771E-02  0.1153856E+00
         21   -1    0    0  503  502  0.00000000000E+00  0.00000000000E+00  0.14390046667E+03  0.14390046667E+03  0.00000000000E+00 0.  1.
         21   -1    0    0  501  503 -0.00000000000E+00 -0.00000000000E+00 -0.27591717735E+03  0.27591717735E+03  0.00000000000E+00 0.  1.
          6    2    1    2  501    0 -0.45686332658E+02 -0.75088157440E+02 -0.10924620659E+03  0.22385006994E+03  0.17449540905E+03 0.  0.
         24    2    3    3    0    0  0.13384473338E+02 -0.10120053700E+03 -0.87332877907E+02  0.15548706488E+03  0.78284755638E+02 0.  0.
         -6    2    1    2    0  502  0.45686332658E+02  0.75088157440E+02 -0.22770504085E+02  0.19596757408E+03  0.17366439432E+03 0.  0.
        -24    2    5    5    0    0  0.33923791423E+01 -0.15456267815E+02 -0.42891051846E+02  0.93918576578E+02  0.82040552454E+02 0.  0.
          5    1    3    3  501    0 -0.59070805995E+02  0.26112379559E+02 -0.21913328683E+02  0.68363005062E+02  0.47000000000E+01 0. -1.
        -13    1    4    4    0    0 -0.11900993451E+02 -0.73810803518E+02 -0.91293298123E+02  0.11800057052E+03  0.00000000000E+00 0.  1.
         14    1    4    4    0    0  0.25285466789E+02 -0.27389733481E+02  0.39604202157E+01  0.37486494357E+02  0.00000000000E+00 0. -1.
         -5    1    5    5    0  502  0.42293953515E+02  0.90544425256E+02  0.20120547762E+02  0.10204899750E+03  0.47000000000E+01 0.  1.
         13    1    6    6    0    0  0.19207415260E+02 -0.36409093203E+02  0.27605661866E+01  0.41257333827E+02  0.00000000000E+00 0. -1.
        -14    1    6    6    0    0 -0.15815036118E+02  0.20952825388E+02 -0.45651618033E+02  0.52661242751E+02  0.00000000000E+00 0.  1.
<mgrwt>
<rscale>  2 0.19519627E+03</rscale>
<asrwt>0</asrwt>
<pdfrwt beam="1">  1       21 0.22138534E-01 0.19538199E+03</pdfrwt>
<pdfrwt beam="2">  1       21 0.42448796E-01 0.19538199E+03</pdfrwt>
<totfact> 0.10174847E+05</totfact>
</mgrwt>
</event>
<event>
12    1  0.1013215E-001  0.2102897E+03  0.7546771E-02  0.1141457E+00
         21   -1    0    0  501  502  0.00000000000E+00  0.00000000000E+00  0.37219523722E+02  0.37219523722E+02  0.00000000000E+00 0.  1.
         21   -1    0    0  502  503 -0.00000000000E+00 -0.00000000000E+00 -0.12111450783E+04  0.12111450783E+04  0.00000000000E+00 0.  1.
         -6    2    1    2    0  503 -0.23320272434E+02 -0.11681162250E+03 -0.67999936007E+03  0.71177305976E+03  0.17330022690E+03 0.  0.
        -24    2    3    3    0    0  0.46449855141E+02 -0.57774236935E+02 -0.47117376119E+03  0.48377414672E+03  0.80853325913E+02 0.  0.
          6    2    1    2  501    0  0.23320272434E+02  0.11681162250E+03 -0.49392619455E+03  0.53659154231E+03  0.17256479176E+03 0.  0.
         24    2    5    5    0    0 -0.44925386303E+02  0.98595776224E+02 -0.33468542323E+03  0.36232450514E+03  0.86748470184E+02 0.  0.
          5    1    5    5  501    0  0.68245658737E+02  0.18215846275E+02 -0.15924077133E+03  0.17426703717E+03  0.47000000000E+01 0. -1.
        -13    1    6    6    0    0  0.23144749505E+02  0.49676768890E+02 -0.14112640627E+03  0.15139393430E+03  0.00000000000E+00 0.  1.
         14    1    6    6    0    0 -0.68070135808E+02  0.48919007334E+02 -0.19355901696E+03  0.21093057084E+03  0.00000000000E+00 0. -1.
         -5    1    3    3    0  503 -0.69770127574E+02 -0.59037385563E+02 -0.20882559888E+03  0.22799891303E+03  0.47000000000E+01 0.  1.
         13    1    4    4    0    0  0.14792013335E+02 -0.35511643701E+02 -0.63331202870E+02  0.74099404544E+02  0.00000000000E+00 0. -1.
        -14    1    4    4    0    0  0.31657841805E+02 -0.22262593234E+02 -0.40784255832E+03  0.40967474218E+03  0.00000000000E+00 0.  1.
<mgrwt>
<rscale>  2 0.21013812E+03</rscale>
<asrwt>0</asrwt>
<pdfrwt beam="1">  1       21 0.57260814E-02 0.21028970E+03</pdfrwt>
<pdfrwt beam="2">  1       21 0.18632999E+00 0.21028970E+03</pdfrwt>
<totfact> 0.34821505E+04</totfact>
</mgrwt>
</event>
<event>
12    1  0.1013215E-001  0.3320782E+03  0.7546771E-02  0.1070283E+00
         21   -1    0    0  501  502  0.00000000000E+00  0.00000000000E+00  0.17674884588E+03  0.17674884588E+03  0.00000000000E+00 0.  1.
         21   -1    0    0  502  503 -0.00000000000E+00 -0.00000000000E+00 -0.62351829095E+03  0.62351829095E+03  0.00000000000E+00 0. -1.
         -6    2    1    2    0  503 -0.24959808399E+03 -0.13424650798E+03 -0.21058194798E+03  0.39321838980E+03  0.17307402124E+03 0.  0.
        -24    2    3    3    0    0 -0.12390793824E+03 -0.13560806552E+03 -0.16438698849E+03  0.25921864779E+03  0.80177932028E+02 0.  0.
          6    2    1    2  501    0  0.24959808399E+03  0.13424650798E+03 -0.23618749709E+03  0.40704874703E+03  0.17199657043E+03 0.  0.
         24    2    5    5    0    0  0.33383385823E+02  0.42243549167E+02 -0.66204884756E+02  0.11699785730E+03  0.80040264574E+02 0.  0.
          5    1    5    5  501    0  0.21621469816E+03  0.92002958817E+02 -0.16998261234E+03  0.29005088972E+03  0.47000000000E+01 0. -1.
        -11    1    6    6    0    0  0.28925738205E+02 -0.16694236742E+02 -0.86517074149E+01  0.34499969743E+02  0.00000000000E+00 0.  1.
         12    1    6    6    0    0  0.44576476185E+01  0.58937785909E+02 -0.57553177341E+02  0.82497887562E+02  0.00000000000E+00 0. -1.
         -5    1    3    3    0  503 -0.12569014575E+03  0.13615575359E+01 -0.46194959488E+02  0.13399974201E+03  0.47000000000E+01 0.  1.
         13    1    4    4    0    0 -0.37957353391E+02 -0.10030239140E+03 -0.81426335576E+02  0.13465354998E+03  0.00000000000E+00 0. -1.
        -14    1    4    4    0    0 -0.85950584847E+02 -0.35305674125E+02 -0.82960652916E+02  0.12456509781E+03  0.00000000000E+00 0.  1.
<mgrwt>
<rscale>  2 0.33193806E+03</rscale>
<asrwt>0</asrwt>
<pdfrwt beam="1">  1       21 0.27192130E-01 0.33207822E+03</pdfrwt>
<pdfrwt beam="2">  1       21 0.95925893E-01 0.33207822E+03</pdfrwt>
<totfact> 0.10836413E+04</totfact>
</mgrwt>
</event>
<event>
12    1  0.1013215E-001  0.2490070E+03  0.7546771E-02  0.1114157E+00
         21   -1    0    0  503  502  0.00000000000E+00  0.00000000000E+00  0.21073212055E+03  0.21073212055E+03  0.00000000000E+00 0.  1.
         21   -1    0    0  501  503 -0.00000000000E+00 -0.00000000000E+00 -0.38348620415E+03  0.38348620415E+03  0.00000000000E+00 0.  1.
          6    2    1    2  501    0  0.92395623017E+02  0.15333094506E+03 -0.23121965952E+03  0.33980441344E+03  0.17308142182E+03 0.  0.
         24    2    3    3    0    0  0.11309276891E+03  0.56262799238E+02 -0.15119350012E+03  0.21222356469E+03  0.78891634362E+02 0.  0.
         -6    2    1    2    0  502 -0.92395623017E+02 -0.15333094506E+03  0.58465575921E+02  0.25441391125E+03  0.17105813282E+03 0.  0.
        -24    2    5    5    0    0  0.75408659164E+01 -0.40971504687E+02  0.39132217604E+02  0.10273064123E+03  0.85362318019E+02 0.  0.
          5    1    3    3  501    0 -0.20697145889E+02  0.97068145822E+02 -0.80026159399E+02  0.12758084876E+03  0.47000000000E+01 0. -1.
        -13    1    4    4    0    0  0.48692919186E+02  0.14018709768E+02 -0.11787941035E+03  0.12830853435E+03  0.00000000000E+00 0.  1.
         14    1    4    4    0    0  0.64399849720E+02  0.42244089469E+02 -0.33314089771E+02  0.83915030336E+02  0.00000000000E+00 0. -1.
         -5    1    5    5    0  502 -0.99936488934E+02 -0.11235944037E+03  0.19333358317E+02  0.15168327002E+03  0.47000000000E+01 0.  1.
         11    1    6    6    0    0 -0.29783786610E+02 -0.10749018410E+02 -0.10795309267E+02  0.33453759786E+02  0.00000000000E+00 0. -1.
        -12    1    6    6    0    0  0.37324652527E+02 -0.30222486277E+02  0.49927526871E+02  0.69276881443E+02  0.00000000000E+00 0.  1.
<mgrwt>
<rscale>  2 0.24865578E+03</rscale>
<asrwt>0</asrwt>
<pdfrwt beam="1">  1       21 0.32420327E-01 0.24900704E+03</pdfrwt>
<pdfrwt beam="2">  1       21 0.58997876E-01 0.24900704E+03</pdfrwt>
<totfact> 0.23872647E+04</totfact>
</mgrwt>
</event>
<event>
12    1  0.1013215E-001  0.2850570E+03  0.7546771E-02  0.1092984E+00
         21   -1    0    0  503  502  0.00000000000E+00  0.00000000000E+00  0.47994347119E+03  0.47994347119E+03  0.00000000000E+00 0. -1.
         21   -1    0    0  501  503 -0.00000000000E+00 -0.00000000000E+00 -0.17993209110E+03  0.17993209110E+03  0.00000000000E+00 0.  1.
          6    2    1    2  501    0 -0.16330928273E+02  0.22513609083E+03  0.69444140376E+02  0.29339389844E+03  0.17408197034E+03 0.  0.
         24    2    3    3    0    0  0.11411968780E+02  0.19980155022E+03  0.10767508423E+03  0.23958681384E+03  0.75875062447E+02 0.  0.
         -6    2    1    2    0  502  0.16330928273E+02 -0.22513609083E+03  0.23056723972E+03  0.36648166385E+03  0.17376593249E+03 0.  0.
        -24    2    5    5    0    0 -0.45470121720E+02 -0.16259928044E+03  0.19927626573E+03  0.27303950266E+03  0.79583176380E+02 0.  0.
          5    1    3    3  501    0 -0.27742897054E+02  0.25334540615E+02 -0.38230943856E+02  0.53807084601E+02  0.47000000000E+01 0. -1.
        -11    1    4    4    0    0 -0.12772205759E+02  0.13795237012E+03  0.38716859627E+02  0.14385055050E+03  0.00000000000E+00 0.  1.
         12    1    4    4    0    0  0.24184174540E+02  0.61849180102E+02  0.68958224604E+02  0.95736263339E+02  0.00000000000E+00 0. -1.
         -5    1    5    5    0  502  0.61801049993E+02 -0.62536810395E+02  0.31290973990E+02  0.93442161190E+02  0.47000000000E+01 0.  1.
         11    1    6    6    0    0 -0.13050231497E+02 -0.13932970251E+03  0.18193351075E+03  0.22952750789E+03  0.00000000000E+00 0. -1.
        -12    1    6    6    0    0 -0.32419890222E+02 -0.23269577928E+02  0.17342754981E+02  0.43511994775E+02  0.00000000000E+00 0.  1.
<mgrwt>
<rscale>  2 0.28500876E+03</rscale>
<asrwt>0</asrwt>
<pdfrwt beam="1">  1       21 0.73837456E-01 0.28505700E+03</pdfrwt>
<pdfrwt beam="2">  1       21 0.27681860E-01 0.28505700E+03</pdfrwt>
<totfact> 0.19553231E+04</totfact>
</mgrwt>
</event>
<event>
12    1  0.1013215E-001  0.1929406E+03  0.7546771E-02  0.1156099E+00
         21   -1    0    0  501  502  0.00000000000E+00  0.00000000000E+00  0.10064113136E+03  0.10064113136E+03  0.00000000000E+00 0. -1.
         21   -1    0    0  502  503 -0.00000000000E+00 -0.00000000000E+00 -0.61747984762E+03  0.61747984762E+03  0.00000000000E+00 0. -1.
         -6    2    1    2    0  503 -0.18615074315E+02  0.80884581398E+02 -0.48730099837E+03  0.52410717560E+03  0.17417586517E+03 0.  0.
        -24    2    3    3    0    0  0.26337585358E+02 -0.87101871184E+01 -0.13509903439E+03  0.15788828261E+03  0.76859774452E+02 0.  0.
          6    2    1    2  501    0  0.18615074315E+02 -0.80884581398E+02 -0.29537717897E+02  0.19401380338E+03  0.17285844678E+03 0.  0.
         24    2    5    5    0    0  0.39285776694E+02 -0.11913110042E+03 -0.22580279666E+02  0.14973547797E+03  0.78582777973E+02 0.  0.
          5    1    5    5  501    0 -0.20670702379E+02  0.38246519024E+02 -0.69574382307E+01  0.44278325409E+02  0.47000000000E+01 0. -1.
        -13    1    6    6    0    0 -0.21437480261E+01 -0.33547383515E+01 -0.26411699090E+02  0.26710068772E+02  0.00000000000E+00 0.  1.
         14    1    6    6    0    0  0.41429524720E+02 -0.11577636207E+03  0.38314194237E+01  0.12302540919E+03  0.00000000000E+00 0. -1.
         -5    1    3    3    0  503 -0.44952659673E+02  0.89594768516E+02 -0.35220196398E+03  0.36621889300E+03  0.47000000000E+01 0.  1.
         11    1    4    4    0    0 -0.20481670949E+02 -0.81095640263E+01 -0.90787796751E+02  0.93422095419E+02  0.00000000000E+00 0. -1.
        -12    1    4    4    0    0  0.46819256307E+02 -0.60062309204E+00 -0.44311237640E+02  0.64466187187E+02  0.00000000000E+00 0.  1.
<mgrwt>
<rscale>  2 0.19264278E+03</rscale>
<asrwt>0</asrwt>
<pdfrwt beam="1">  1       21 0.15483251E-01 0.19294058E+03</pdfrwt>
<pdfrwt beam="2">  1       21 0.94996899E-01 0.19294058E+03</pdfrwt>
<totfact> 0.34297277E+04</totfact>
</mgrwt>
</event>
<event>
12    1  0.1013215E-001  0.2083555E+03  0.7546771E-02  0.1143110E+00
         21   -1    0    0  503  502  0.00000000000E+00  0.00000000000E+00  0.24649314007E+03  0.24649314007E+03  0.00000000000E+00 0.  1.
         21   -1    0    0  501  503 -0.00000000000E+00 -0.00000000000E+00 -0.76361756690E+03  0.76361756690E+03  0.00000000000E+00 0.  1.
          6    2    1    2  501    0  0.11333458155E+03  0.53228925858E+01 -0.70210350641E+03  0.73236695636E+03  0.17475401137E+03 0.  0.
         24    2    3    3    0    0  0.10526117375E+03  0.64706097653E+02 -0.45474891922E+03  0.47781258738E+03  0.79003135147E+02 0.  0.
         -6    2    1    2    0  502 -0.11333458155E+03 -0.53228925858E+01  0.18497907958E+03  0.27774375061E+03  0.17335302293E+03 0.  0.
        -24    2    5    5    0    0 -0.13686938904E+03 -0.41633967949E+02  0.14545575594E+03  0.21895119607E+03  0.79470953054E+02 0.  0.
          5    1    3    3  501    0  0.80734078088E+01 -0.59383205067E+02 -0.24735458720E+03  0.25455436898E+03  0.47000000000E+01 0. -1.
        -13    1    4    4    0    0  0.94503986227E+02  0.64551924767E+02 -0.45259519361E+03  0.46684083335E+03  0.00000000000E+00 0.  1.
         14    1    4    4    0    0  0.10757187519E+02  0.15417288593E+00 -0.21537256049E+01  0.10971754033E+02  0.00000000000E+00 0. -1.
         -5    1    5    5    0  502  0.23534807490E+02  0.36311075363E+02  0.39523323644E+02  0.58792554541E+02  0.47000000000E+01 0.  1.
         13    1    6    6    0    0 -0.54334008388E+02 -0.25645607311E+02  0.12070561047E+02  0.61282787843E+02  0.00000000000E+00 0. -1.
        -14    1    6    6    0    0 -0.82535380657E+02 -0.15988360638E+02  0.13338519489E+03  0.15766840822E+03  0.00000000000E+00 0.  1.
<mgrwt>
<rscale>  2 0.20806149E+03</rscale>
<asrwt>0</asrwt>
<pdfrwt beam="1">  1       21 0.37922021E-01 0.20835553E+03</pdfrwt>
<pdfrwt beam="2">  1       21 0.11747963E+00 0.20835553E+03</pdfrwt>
<totfact> 0.36834805E+03</totfact>
</mgrwt>
</event>
<event>
11    1  0.1013215E-001  0.1998544E+03  0.7546771E-02  0.1150076E+00
         21   -1    0    0  501  502  0.00000000000E+00  0.00000000000E+00  0.33666581788E+03  0.33666581788E+03  0.00000000000E+00 0.  1.
         21   -1    0    0  502  503 -0.00000000000E+00 -0.00000000000E+00 -0.18213925814E+03  0.18213925814E+03  0.00000000000E+00 0.  1.
         -6    2    1    2    0  503 -0.36595354701E+02  0.91509911746E+02  0.23102136664E+03  0.30481154206E+03  0.17270182512E+03 0.  0.
        -24    2    3    3    0    0 -0.27385100275E+01  0.69066713279E+01  0.18508402019E+03  0.20265321387E+03  0.82201149725E+02 0.  0.
          6    2    1    2  501    0  0.36595354701E+02 -0.91509911746E+02 -0.76494806895E+02  0.21399353395E+03  0.17386343249E+03 0.  0.
          5    1    5    5  501    0  0.37152237008E+02  0.26698164148E+02  0.26348619488E+02  0.53003966196E+02  0.47000000000E+01 0. -1.
        -11    1    5    5    0    0  0.66542417643E+01 -0.42705484566E+02 -0.59789765586E+02  0.73775696637E+02  0.00000000000E+00 0.  1.
         12    1    5    5    0    0 -0.72111240721E+01 -0.75502591328E+02 -0.43053660797E+02  0.87213871120E+02  0.00000000000E+00 0. -1.
         -5    1    3    3    0  503 -0.33856844673E+02  0.84603240418E+02  0.45937346443E+02  0.10215832819E+03  0.47000000000E+01 0.  1.
         11    1    4    4    0    0  0.34865080479E+02 -0.11198045803E+02  0.11888000156E+03  0.12439222177E+03  0.00000000000E+00 0. -1.
        -12    1    4    4    0    0 -0.37603590506E+02  0.18104717131E+02  0.66204018635E+02  0.78260992102E+02  0.00000000000E+00 0.  1.
<mgrwt>
<rscale>  2 0.19960148E+03</rscale>
<asrwt>0</asrwt>
<pdfrwt beam="1">  1       21 0.51794741E-01 0.19985439E+03</pdfrwt>
<pdfrwt beam="2">  1       21 0.28021424E-01 0.19985439E+03</pdfrwt>
<totfact> 0.42903757E+04</totfact>
</mgrwt>
</event>
<event>
12    1  0.1013215E-001  0.2207631E+03  0.7546771E-02  0.1134125E+00
         21   -1    0    0  503  502  0.00000000000E+00  0.00000000000E+00  0.11447118670E+03  0.11447118670E+03  0.00000000000E+00 0.  1.
         21   -1    0    0  501  503 -0.00000000000E+00 -0.00000000000E+00 -0.49461356799E+03  0.49461356799E+03  0.00000000000E+00 0. -1.
          6    2    1    2  501    0  0.93310278276E+02  0.92328434068E+02 -0.31192458676E+03  0.38214301467E+03  0.17749644523E+03 0.  0.
         24    2    3    3    0    0  0.50527842994E+02  0.12042822306E+03 -0.28709863430E+03  0.32506103130E+03  0.78632235271E+02 0.  0.
         -6    2    1    2    0  502 -0.93310278276E+02 -0.92328434068E+02 -0.68217794539E+02  0.22694174002E+03  0.17209746687E+03 0.  0.
        -24    2    5    5    0    0  0.10957813768E+02 -0.11683093731E+02 -0.11594850125E+02  0.83401662790E+02  0.81023628931E+02 0.  0.
          5    1    3    3  501    0  0.42782435282E+02 -0.28099788996E+02 -0.24825952458E+02  0.57081983372E+02  0.47000000000E+01 0. -1.
        -13    1    4    4    0    0 -0.28537296224E+01  0.10168637735E+02 -0.10537521029E+03  0.10590316289E+03  0.00000000000E+00 0.  1.
         14    1    4    4    0    0  0.53381572617E+02  0.11025958533E+03 -0.18172342401E+03  0.21915786841E+03  0.00000000000E+00 0. -1.
         -5    1    5    5    0  502 -0.10426809204E+03 -0.80645340338E+02 -0.56622944414E+02  0.14354007723E+03  0.47000000000E+01 0.  1.
         11    1    6    6    0    0  0.42118327727E+02 -0.24558693933E+02 -0.90662237000E+01  0.49591122092E+02  0.00000000000E+00 0. -1.
        -12    1    6    6    0    0 -0.31160513958E+02  0.12875600202E+02 -0.25286264250E+01  0.33810540698E+02  0.00000000000E+00 0.  1.
<mgrwt>
<rscale>  2 0.21967581E+03</rscale>
<asrwt>0</asrwt>
<pdfrwt beam="1">  1       21 0.17610952E-01 0.22076308E+03</pdfrwt>
<pdfrwt beam="2">  1       21 0.76094395E-01 0.22076308E+03</pdfrwt>
<totfact> 0.44372314E+04</totfact>
</mgrwt>
</event>
<event>
12    1  0.1013215E-001  0.2091144E+03  0.7546771E-02  0.1143048E+00
         21   -1    0    0  501  502  0.00000000000E+00  0.00000000000E+00  0.17716252050E+04  0.17716252050E+04  0.00000000000E+00 0. -1.
         21   -1    0    0  502  503 -0.00000000000E+00 -0.00000000000E+00 -0.34905535253E+02  0.34905535253E+02  0.00000000000E+00 0.  1.
         -6    2    1    2    0  503  0.46002342250E+02  0.10785579294E+03  0.36316440053E+03  0.41714854230E+03  0.16845010231E+03 0.  0.
        -24    2    3    3    0    0 -0.30657758544E+02  0.66108372900E+02  0.25949450085E+03  0.28154191918E+03  0.81352573158E+02 0.  0.
          6    2    1    2  501    0 -0.46002342250E+02 -0.10785579294E+03  0.13735552692E+04  0.13893821979E+04  0.17314654729E+03 0.  0.
         24    2    5    5    0    0 -0.62391039529E+01  0.15356535629E+02  0.56695361746E+03  0.57244235460E+03  0.77324610535E+02 0.  0.
          5    1    5    5  501    0 -0.39763238297E+02 -0.12321232857E+03  0.80660165175E+03  0.81693984334E+03  0.47000000000E+01 0. -1.
        -13    1    6    6    0    0 -0.14196052343E+02  0.15069363958E+02  0.56330282481E+03  0.56368314333E+03  0.00000000000E+00 0.  1.
         14    1    6    6    0    0  0.79569483897E+01  0.28717167061E+00  0.36507926441E+01  0.87592112759E+01  0.00000000000E+00 0. -1.
         -5    1    3    3    0  503  0.76660100794E+02  0.41747420037E+02  0.10366989969E+03  0.13560662312E+03  0.47000000000E+01 0.  1.
         13    1    4    4    0    0  0.24348598117E+02  0.27142062896E+02  0.13649766093E+03  0.14128395963E+03  0.00000000000E+00 0. -1.
        -14    1    4    4    0    0 -0.55006356661E+02  0.38966310004E+02  0.12299683991E+03  0.14025795955E+03  0.00000000000E+00 0.  1.
<mgrwt>
<rscale>  2 0.20813962E+03</rscale>
<asrwt>0</asrwt>
<pdfrwt beam="1">  1       21 0.27255765E+00 0.20911436E+03</pdfrwt>
<pdfrwt beam="2">  1       21 0.53700837E-02 0.20911436E+03</pdfrwt>
<totfact> 0.11521678E+04</totfact>
</mgrwt>
</event>
<event>
12    1  0.1013215E-001  0.2537978E+03  0.7546771E-02  0.1110931E+00
         21   -1    0    0  501  502  0.00000000000E+00  0.00000000000E+00  0.11774766509E+04  0.11774766509E+04  0.00000000000E+00 0.  1.
         21   -1    0    0  502  503 -0.00000000000E+00 -0.00000000000E+00 -0.14190239731E+03  0.14190239731E+03  0.00000000000E+00 0. -1.
         -6    2    1    2    0  503 -0.31460594741E+02 -0.18209040885E+03  0.65500032746E+00  0.25379863421E+03  0.17397307747E+03 0.  0.
        -24    2    3    3    0    0  0.33092956670E+02 -0.16281558422E+03  0.12824038893E+02  0.18517753422E+03  0.80760169391E+02 0.  0.
          6    2    1    2  501    0  0.31460594741E+02  0.18209040885E+03  0.10349192533E+04  0.10655804140E+04  0.17394560039E+03 0.  0.
         24    2    5    5    0    0 -0.48347690049E+02  0.11418906270E+03  0.68224143815E+03  0.69763519198E+03  0.76582243278E+02 0.  0.
          5    1    5    5  501    0  0.79808284790E+02  0.67901346153E+02  0.35267781515E+03  0.36794522205E+03  0.47000000000E+01 0. -1.
        -11    1    6    6    0    0 -0.60921881879E+01  0.16931262163E+02  0.31170405420E+03  0.31222299691E+03  0.00000000000E+00 0.  1.
         12    1    6    6    0    0 -0.42255501862E+02  0.97257800538E+02  0.37053738396E+03  0.38541219508E+03  0.00000000000E+00 0. -1.
         -5    1    3    3    0  503 -0.64553551411E+02 -0.19274824631E+02 -0.12169038566E+02  0.68621099990E+02  0.47000000000E+01 0.  1.
         13    1    4    4    0    0  0.23463434572E+02 -0.11649055076E+03 -0.28676010464E+02  0.12224113364E+03  0.00000000000E+00 0. -1.
        -14    1    4    4    0    0  0.96295220980E+01 -0.46325033462E+02  0.41500049357E+02  0.62936400578E+02  0.00000000000E+00 0.  1.
<mgrwt>
<rscale>  2 0.25379308E+03</rscale>
<asrwt>0</asrwt>
<pdfrwt beam="1">  1       21 0.18115025E+00 0.25379779E+03</pdfrwt>
<pdfrwt beam="2">  1       21 0.21831139E-01 0.25379779E+03</pdfrwt>
<totfact> 0.33260414E+03</totfact>
</mgrwt>
</event>
<event>
12    1  0.1013215E-001  0.1823858E+03  0.7546771E-02  0.1165727E+00
         21   -1    0    0  501  502  0.00000000000E+00  0.00000000000E+00  0.43994248585E+03  0.43994248585E+03  0.00000000000E+00 0.  1.
         21   -1    0    0  502  503 -0.00000000000E+00 -0.00000000000E+00 -0.83077283396E+02  0.83077283396E+02  0.00000000000E+00 0.  1.
         -6    2    1    2    0  503  0.54976183818E+02  0.64369075320E+01  0.97719914830E+02  0.20612726808E+03  0.17284517443E+03 0.  0.
        -24    2    3    3    0    0 -0.10170374498E+01 -0.54158799770E+02  0.44469505792E+02  0.10781767224E+03  0.81932310743E+02 0.  0.
          6    2    1    2  501    0 -0.54976183818E+02 -0.64369075320E+01  0.25914528763E+03  0.31689250117E+03  0.17378366619E+03 0.  0.
         24    2    5    5    0    0 -0.31739543272E+02 -0.66171680671E+02  0.20874724816E+03  0.23522098246E+03  0.79796034035E+02 0.  0.
          5    1    5    5  501    0 -0.23236640546E+02  0.59734773139E+02  0.50398039469E+02  0.81671518708E+02  0.47000000000E+01 0. -1.
        -13    1    6    6    0    0  0.77202387047E+01 -0.39814596397E+02  0.30444112303E+02  0.50711420270E+02  0.00000000000E+00 0.  1.
         14    1    6    6    0    0 -0.39459781977E+02 -0.26357084274E+02  0.17830313586E+03  0.18450956219E+03  0.00000000000E+00 0. -1.
         -5    1    3    3    0  503  0.55993221268E+02  0.60595707302E+02  0.53250409038E+02  0.98309595840E+02  0.47000000000E+01 0.  1.
         13    1    4    4    0    0  0.21326583198E+02 -0.14441447622E+02 -0.17322202371E+02  0.31039285676E+02  0.00000000000E+00 0. -1.
        -14    1    4    4    0    0 -0.22343620648E+02 -0.39717352149E+02  0.61791708162E+02  0.76778386562E+02  0.00000000000E+00 0.  1.
<mgrwt>
<rscale>  2 0.18216188E+03</rscale>
<asrwt>0</asrwt>
<pdfrwt beam="1">  1       21 0.67683458E-01 0.18238579E+03</pdfrwt>
<pdfrwt beam="2">  1       21 0.12781121E-01 0.18238579E+03</pdfrwt>
<totfact> 0.10497062E+05</totfact>
</mgrwt>
</event>
<event>
12    1  0.1013215E-001  0.2748711E+03  0.7546771E-02  0.1098526E+00
         21   -1    0    0  501  502  0.00000000000E+00  0.00000000000E+00  0.21331680027E+03  0.21331680027E+03  0.00000000000E+00 0. -1.
         21   -1    0    0  502  503 -0.00000000000E+00 -0.00000000000E+00 -0.47102896634E+03  0.47102896634E+03  0.00000000000E+00 0.  1.
         -6    2    1    2    0  503 -0.10806304447E+03  0.18439823275E+03 -0.29928665975E+03  0.40634833692E+03  0.17281821778E+03 0.  0.
        -24    2    3    3    0    0 -0.15718466681E+02  0.15252201705E+03 -0.15725632662E+03  0.23390031663E+03  0.80434880352E+02 0.  0.
          6    2    1    2  501    0  0.10806304447E+03 -0.18439823275E+03  0.41574493680E+02  0.27799742969E+03  0.17284039623E+03 0.  0.
         24    2    5    5    0    0  0.13812640015E+03 -0.15234205491E+03  0.50843314608E+01  0.22068228482E+03  0.79923815574E+02 0.  0.
          5    1    5    5  501    0 -0.30063355681E+02 -0.32056177839E+02  0.36490162219E+02  0.57315144868E+02  0.47000000000E+01 0. -1.
        -11    1    6    6    0    0  0.11546799556E+03 -0.76316911840E+02  0.20349059840E+02  0.13989715247E+03  0.00000000000E+00 0.  1.
         12    1    6    6    0    0  0.22658404586E+02 -0.76025143068E+02 -0.15264728379E+02  0.80785132354E+02  0.00000000000E+00 0. -1.
         -5    1    3    3    0  503 -0.92344577787E+02  0.31876215696E+02 -0.14203033313E+03  0.17244802029E+03  0.47000000000E+01 0.  1.
         13    1    4    4    0    0 -0.28421742653E+02  0.14817952434E+03 -0.16029567795E+03  0.22013557472E+03  0.00000000000E+00 0. -1.
        -14    1    4    4    0    0  0.12703275973E+02  0.43424927137E+01  0.30393513259E+01  0.13764741911E+02  0.00000000000E+00 0.  1.
<mgrwt>
<rscale>  2 0.27486763E+03</rscale>
<asrwt>0</asrwt>
<pdfrwt beam="1">  1       21 0.32817969E-01 0.27487112E+03</pdfrwt>
<pdfrwt beam="2">  1       21 0.72465995E-01 0.27487112E+03</pdfrwt>
<totfact> 0.14656435E+04</totfact>
</mgrwt>
</event>
<event>
12    1  0.1013215E-001  0.2126361E+03  0.7546771E-02  0.1139640E+00
         21   -1    0    0  503  502  0.00000000000E+00  0.00000000000E+00  0.30085519128E+03  0.30085519128E+03  0.00000000000E+00 0.  1.
         21   -1    0    0  501  503 -0.00000000000E+00 -0.00000000000E+00 -0.24111128945E+03  0.24111128945E+03  0.00000000000E+00 0. -1.
          6    2    1    2  501    0  0.10193073592E+03 -0.70456507322E+02 -0.13695639759E+03  0.25230268540E+03  0.17188832383E+03 0.  0.
         24    2    3    3    0    0  0.91321242761E+02 -0.24682021598E+02 -0.31735973599E+02  0.13697145584E+03  0.93836219681E+02 0.  0.
         -6    2    1    2    0  502 -0.10193073592E+03  0.70456507322E+02  0.19670029941E+03  0.28966379532E+03  0.17280078756E+03 0.  0.
        -24    2    5    5    0    0 -0.42681272968E+02  0.20483306483E+02  0.19152895087E+02  0.95877855573E+02  0.81144765034E+02 0.  0.
          5    1    3    3  501    0  0.10609493162E+02 -0.45774485723E+02 -0.10522042399E+03  0.11533122956E+03  0.47000000000E+01 0. -1.
        -11    1    4    4    0    0  0.72980073487E+02  0.26392374361E+02 -0.28265195951E+02  0.82592795404E+02  0.00000000000E+00 0.  1.
         12    1    4    4    0    0  0.18341169274E+02 -0.51074395959E+02 -0.34707776482E+01  0.54378660432E+02  0.00000000000E+00 0. -1.
         -5    1    5    5    0  502 -0.59249462955E+02  0.49973200839E+02  0.17754740433E+03  0.19378593975E+03  0.47000000000E+01 0.  1.
         13    1    6    6    0    0 -0.27425493916E+02  0.36344710784E+02 -0.20960390183E+02  0.50124182539E+02  0.00000000000E+00 0. -1.
        -14    1    6    6    0    0 -0.15255779052E+02 -0.15861404301E+02  0.40113285271E+02  0.45753673034E+02  0.00000000000E+00 0.  1.
<mgrwt>
<rscale>  2 0.21245063E+03</rscale>
<asrwt>0</asrwt>
<pdfrwt beam="1">  1       21 0.46285414E-01 0.21263609E+03</pdfrwt>
<pdfrwt beam="2">  1       21 0.37094044E-01 0.21263609E+03</pdfrwt>
<totfact> 0.31008858E+04</totfact>
</mgrwt>
</event>
<event>
12    1  0.1013215E-001  0.2673712E+03  0.7546771E-02  0.1102882E+00
         21   -1    0    0  501  502  0.00000000000E+00  0.00000000000E+00  0.21009274646E+03  0.21009274646E+03  0.00000000000E+00 0.  1.
         21   -1    0    0  502  503 -0.00000000000E+00 -0.00000000000E+00 -0.78916185286E+03  0.78916185286E+03  0.00000000000E+00 0. -1.
         -6    2    1    2    0  503 -0.39165824167E+02  0.19955545543E+03 -0.66653914511E+03  0.71793922306E+03  0.17264401080E+03 0.  0.
        -24    2    3    3    0    0 -0.68582228432E+01  0.17433256962E+02 -0.20184361303E+03  0.21776295031E+03  0.79554413708E+02 0.  0.
          6    2    1    2  501    0  0.39165824167E+02 -0.19955545543E+03  0.87470038710E+02  0.28131537625E+03  0.17358280926E+03 0.  0.
         24    2    5    5    0    0  0.89544472818E+02 -0.15665113068E+03  0.40772986376E+02  0.20018896860E+03  0.76520568321E+02 0.  0.
          5    1    5    5  501    0 -0.50378648651E+02 -0.42904324747E+02  0.46697052334E+02  0.81126407652E+02  0.47000000000E+01 0. -1.
        -11    1    6    6    0    0  0.69706879807E+02 -0.64052218734E+02  0.46190341577E+02  0.10533415150E+03  0.00000000000E+00 0.  1.
         12    1    6    6    0    0  0.19837593010E+02 -0.92598911947E+02 -0.54173552005E+01  0.94854817102E+02  0.00000000000E+00 0. -1.
         -5    1    3    3    0  503 -0.32307601324E+02  0.18212219847E+03 -0.46469553209E+03  0.50017627275E+03  0.47000000000E+01 0.  1.
         13    1    4    4    0    0 -0.12428951581E+02  0.31434391900E+02 -0.19970234880E+03  0.20254290397E+03  0.00000000000E+00 0. -1.
        -14    1    4    4    0    0  0.55707287377E+01 -0.14001134938E+02 -0.21412642255E+01  0.15220046344E+02  0.00000000000E+00 0.  1.
<mgrwt>
<rscale>  2 0.26721889E+03</rscale>
<asrwt>0</asrwt>
<pdfrwt beam="1">  1       21 0.32321961E-01 0.26737115E+03</pdfrwt>
<pdfrwt beam="2">  1       21 0.12140951E+00 0.26737115E+03</pdfrwt>
<totfact> 0.44793092E+03</totfact>
</mgrwt>
</event>
<event>
12    1  0.1013215E-001  0.1780421E+03  0.7546771E-02  0.1170164E+00
         21   -1    0    0  503  502  0.00000000000E+00  0.00000000000E+00  0.11330061554E+04  0.11330061554E+04  0.00000000000E+00 0. -1.
         21   -1    0    0  501  503 -0.00000000000E+00 -0.00000000000E+00 -0.45671767599E+02  0.45671767599E+02  0.00000000000E+00 0. -1.
          6    2    1    2  501    0 -0.33882812777E+02  0.46655208122E+00  0.91516345025E+03  0.93232137162E+03  0.17478769015E+03 0.  0.
         24    2    3    3    0    0  0.26935657212E+02 -0.45099327890E+02  0.37545307006E+03  0.38726676867E+03  0.79063666075E+02 0.  0.
         -6    2    1    2    0  502  0.33882812777E+02 -0.46655208122E+00  0.17217093754E+03  0.24635655137E+03  0.17291748320E+03 0.  0.
        -24    2    5    5    0    0  0.38948773554E+02  0.51219124799E+02  0.53830964237E+02  0.11703713119E+03  0.81605831048E+02 0.  0.
          5    1    3    3  501    0 -0.60818469989E+02  0.45565879971E+02  0.53971038019E+03  0.54505460295E+03  0.47000000000E+01 0. -1.
        -13    1    4    4    0    0  0.52682034508E+02 -0.19764996337E+02  0.26994815792E+03  0.27574999511E+03  0.00000000000E+00 0.  1.
         14    1    4    4    0    0 -0.25746377296E+02 -0.25334331553E+02  0.10550491214E+03  0.11151677356E+03  0.00000000000E+00 0. -1.
         -5    1    5    5    0  502 -0.50659607765E+01 -0.51685676880E+02  0.11833997330E+03  0.12931942017E+03  0.47000000000E+01 0.  1.
         11    1    6    6    0    0  0.16979012930E+02 -0.22300723382E+01 -0.18000960272E+02  0.24845415541E+02  0.00000000000E+00 0. -1.
        -12    1    6    6    0    0  0.21969760624E+02  0.53449197137E+02  0.71831924509E+02  0.92191715653E+02  0.00000000000E+00 0.  1.
<mgrwt>
<rscale>  2 0.17758143E+03</rscale>
<asrwt>0</asrwt>
<pdfrwt beam="1">  1       21 0.17430862E+00 0.17804213E+03</pdfrwt>
<pdfrwt beam="2">  1       21 0.70264266E-02 0.17804213E+03</pdfrwt>
<totfact> 0.30217782E+04</totfact>
</mgrwt>
</event>
<event>
12    1  0.1013215E-001  0.1840749E+03  0.7546771E-02  0.1164174E+00
         21   -1    0    0  501  502  0.00000000000E+00  0.00000000000E+00  0.69352312306E+03  0.69352312306E+03  0.00000000000E+00 0. -1.
         21   -1    0    0  502  503 -0.00000000000E+00 -0.00000000000E+00 -0.50124652883E+02  0.50124652883E+02  0.00000000000E+00 0.  1.
         -6    2    1    2    0  503  0.62214336208E+02  0.47858110206E+01  0.25523317662E+03  0.31404810729E+03  0.17201369605E+03 0.  0.
        -24    2    3    3    0    0 -0.21631392863E+02 -0.35342657781E+02  0.14087835559E+03  0.16660484571E+03  0.78698430257E+02 0.  0.
          6    2    1    2  501    0 -0.62214336208E+02 -0.47858110206E+01  0.38816529355E+03  0.42959966865E+03  0.17317636261E+03 0.  0.
         24    2    5    5    0    0 -0.10961620154E+03 -0.14155810981E+01  0.28156917758E+03  0.31279591346E+03  0.80884894777E+02 0.  0.
          5    1    5    5  501    0  0.47401865330E+02 -0.33702299225E+01  0.10659611597E+03  0.11680375519E+03  0.47000000000E+01 0. -1.
        -11    1    6    6    0    0 -0.59264772452E+02  0.73451192817E+01  0.57246923952E+02  0.82725294396E+02  0.00000000000E+00 0.  1.
         12    1    6    6    0    0 -0.50351429086E+02 -0.87607003798E+01  0.22432225363E+03  0.23007061906E+03  0.00000000000E+00 0. -1.
         -5    1    3    3    0  503  0.83845729071E+02  0.40128468802E+02  0.11435482103E+03  0.14744326158E+03  0.47000000000E+01 0.  1.
         11    1    4    4    0    0  0.18469475261E+02  0.24529894768E+00  0.92703380272E+02  0.94525649439E+02  0.00000000000E+00 0. -1.
        -12    1    4    4    0    0 -0.40100868125E+02 -0.35587956729E+02  0.48174975316E+02  0.72079196272E+02  0.00000000000E+00 0.  1.
<mgrwt>
<rscale>  2 0.18380097E+03</rscale>
<asrwt>0</asrwt>
<pdfrwt beam="1">  1       21 0.10669586E+00 0.18407493E+03</pdfrwt>
<pdfrwt beam="2">  1       21 0.77114856E-02 0.18407493E+03</pdfrwt>
<totfact> 0.90257057E+04</totfact>
</mgrwt>
</event>
<event>
12    1  0.1013215E-001  0.2040577E+03  0.7546771E-02  0.1146481E+00
         21   -1    0    0  503  502  0.00000000000E+00  0.00000000000E+00  0.82857977861E+02  0.82857977861E+02  0.00000000000E+00 0. -1.
         21   -1    0    0  501  503 -0.00000000000E+00 -0.00000000000E+00 -0.91624641483E+03  0.91624641483E+03  0.00000000000E+00 0. -1.
          6    2    1    2  501    0 -0.64073819474E+01 -0.10876643868E+03 -0.75262857020E+03  0.77964668490E+03  0.17183712015E+03 0.  0.
         24    2    3    3    0    0 -0.31047020778E+02 -0.76788930769E+02 -0.71576708528E+03  0.72477837087E+03  0.78234960979E+02 0.  0.
         -6    2    1    2    0  502  0.64073819474E+01  0.10876643868E+03 -0.80759866761E+02  0.21945770779E+03  0.17253503036E+03 0.  0.
        -24    2    5    5    0    0  0.39319918211E+02  0.16113345243E+02  0.19284927223E+01  0.90899216976E+02  0.80332139892E+02 0.  0.
          5    1    3    3  501    0  0.24639638831E+02 -0.31977507908E+02 -0.36861484921E+02  0.54868314028E+02  0.47000000000E+01 0. -1.
        -11    1    4    4    0    0 -0.10959366286E+02 -0.10369275060E+02 -0.44517626377E+03  0.44543185270E+03  0.00000000000E+00 0.  1.
         12    1    4    4    0    0 -0.20087654493E+02 -0.66419655709E+02 -0.27059082151E+03  0.27934651817E+03  0.00000000000E+00 0. -1.
         -5    1    5    5    0  502 -0.32912536264E+02  0.92653093434E+02 -0.82688359483E+02  0.12855849081E+03  0.47000000000E+01 0.  1.
         11    1    6    6    0    0 -0.60093316928E+01  0.29209145375E+02  0.24500614076E+02  0.38594900325E+02  0.00000000000E+00 0. -1.
        -12    1    6    6    0    0  0.45329249904E+02 -0.13095800132E+02 -0.22572121354E+02  0.52304316651E+02  0.00000000000E+00 0.  1.
<mgrwt>
<rscale>  2 0.20391006E+03</rscale>
<asrwt>0</asrwt>
<pdfrwt beam="1">  1       21 0.12747381E-01 0.20405766E+03</pdfrwt>
<pdfrwt beam="2">  1       21 0.14096099E+00 0.20405766E+03</pdfrwt>
<totfact> 0.18370725E+04</totfact>
</mgrwt>
</event>
<event>
12    1  0.1013215E-001  0.3450914E+03  0.7546771E-02  0.1064653E+00
         21   -1    0    0  503  502  0.00000000000E+00  0.00000000000E+00  0.45061146444E+03  0.45061146444E+03  0.00000000000E+00 0.  1.
         21   -1    0    0  501  503 -0.00000000000E+00 -0.00000000000E+00 -0.94825313957E+03  0.94825313957E+03  0.00000000000E+00 0. -1.
          6    2    1    2  501    0 -0.20227666205E+03 -0.21952679084E+03 -0.84285370709E+03  0.91074633452E+03  0.17305679526E+03 0.  0.
         24    2    3    3    0    0 -0.17903008727E+03 -0.18250563565E+03 -0.81682967680E+03  0.85965514817E+03  0.80225766909E+02 0.  0.
         -6    2    1    2    0  502  0.20227666205E+03  0.21952679084E+03  0.34521203195E+03  0.48811826949E+03  0.17314802366E+03 0.  0.
        -24    2    5    5    0    0  0.20990751164E+02  0.48432838778E+02  0.10918143387E+03  0.14479589162E+03  0.79113293575E+02 0.  0.
          5    1    3    3  501    0 -0.23246574783E+02 -0.37021155192E+02 -0.26024030287E+02  0.51091186356E+02  0.47000000000E+01 0. -1.
        -13    1    4    4    0    0 -0.91333955682E+02 -0.43909599056E+02 -0.37185917362E+03  0.38542079518E+03  0.00000000000E+00 0.  1.
         14    1    4    4    0    0 -0.87696131588E+02 -0.13859603659E+03 -0.44497050318E+03  0.47423435299E+03  0.00000000000E+00 0. -1.
         -5    1    5    5    0  502  0.18128591089E+03  0.17109395206E+03  0.23603059808E+03  0.34332237787E+03  0.47000000000E+01 0.  1.
         11    1    6    6    0    0  0.46255788741E+02  0.31951995867E+02  0.97303041822E+02  0.11237619846E+03  0.00000000000E+00 0. -1.
        -12    1    6    6    0    0 -0.25265037577E+02  0.16480842911E+02  0.11878392048E+02  0.32419693158E+02  0.00000000000E+00 0.  1.
<mgrwt>
<rscale>  2 0.34507999E+03</rscale>
<asrwt>0</asrwt>
<pdfrwt beam="1">  1       21 0.69324841E-01 0.34509143E+03</pdfrwt>
<pdfrwt beam="2">  1       21 0.14588510E+00 0.34509143E+03</pdfrwt>
<totfact> 0.53643971E+02</totfact>
</mgrwt>
</event>
<event>
12    1  0.1013215E-001  0.2265548E+03  0.7546771E-02  0.1129113E+00
         21   -1    0    0  503  502  0.00000000000E+00  0.00000000000E+00  0.17922430096E+03  0.17922430096E+03  0.00000000000E+00 0. -1.
         21   -1    0    0  501  503 -0.00000000000E+00 -0.00000000000E+00 -0.35060078473E+03  0.35060078473E+03  0.00000000000E+00 0.  1.
          6    2    1    2  501    0  0.12924287406E+03 -0.66784612535E+02 -0.19923501672E+03  0.30169797860E+03  0.17367548312E+03 0.  0.
         24    2    3    3    0    0  0.11643397607E+03 -0.37081408037E+02 -0.21894022999E+03  0.26353079826E+03  0.81128020530E+02 0.  0.
         -6    2    1    2    0  502 -0.12924287406E+03  0.66784612535E+02  0.27858532948E+02  0.22812710708E+03  0.17349920507E+03 0.  0.
        -24    2    5    5    0    0 -0.15036408036E+03  0.78913703412E+02  0.20294813777E+01  0.19231579454E+03  0.90246976588E+02 0.  0.
          5    1    3    3  501    0  0.12808897988E+02 -0.29703204498E+02  0.19705213275E+02  0.38167180343E+02  0.47000000000E+01 0. -1.
        -13    1    4    4    0    0  0.64581602615E+02 -0.59975422738E+02 -0.11222552822E+03  0.14269689525E+03  0.00000000000E+00 0.  1.
         14    1    4    4    0    0  0.51852373456E+02  0.22894014701E+02 -0.10671470177E+03  0.12083390301E+03  0.00000000000E+00 0. -1.
         -5    1    5    5    0  502  0.21121206305E+02 -0.12129090878E+02  0.25829051570E+02  0.35811312547E+02  0.47000000000E+01 0.  1.
         11    1    6    6    0    0 -0.11317355586E+02  0.16916711308E+02  0.31251231677E+02  0.37294733412E+02  0.00000000000E+00 0. -1.
        -12    1    6    6    0    0 -0.13904672478E+03  0.61996992104E+02 -0.29221750299E+02  0.15502106112E+03  0.00000000000E+00 0.  1.
<mgrwt>
<rscale>  2 0.22652102E+03</rscale>
<asrwt>0</asrwt>
<pdfrwt beam="1">  1       21 0.27572969E-01 0.22655480E+03</pdfrwt>
<pdfrwt beam="2">  1       21 0.53938582E-01 0.22655480E+03</pdfrwt>
<totfact> 0.40115630E+04</totfact>
</mgrwt>
</event>
<event>
12    1  0.1013215E-001  0.2086280E+03  0.7546771E-02  0.1142904E+00
         21   -1    0    0  501  502  0.00000000000E+00  0.00000000000E+00  0.16543226885E+04  0.16543226885E+04  0.00000000000E+00 0.  1.
         21   -1    0    0  502  503 -0.00000000000E+00 -0.00000000000E+00 -0.26246908844E+02  0.26246908844E+02  0.00000000000E+00 0. -1.
         -6    2    1    2    0  503  0.66528585864E+02  0.94332411309E+02  0.86139905279E+03  0.88601383619E+03  0.17230070577E+03 0.  0.
        -24    2    3    3    0    0 -0.18709542042E+02  0.93023151543E+01  0.26984779450E+03  0.28231636486E+03  0.80300172117E+02 0.  0.
          6    2    1    2  501    0 -0.66528585864E+02 -0.94332411309E+02  0.76667672686E+03  0.79455576115E+03  0.17378434195E+03 0.  0.
         24    2    5    5    0    0 -0.75354841914E+02 -0.29617289497E+01  0.51250880797E+03  0.52427826415E+03  0.80717383360E+02 0.  0.
          5    1    5    5  501    0  0.88262560497E+01 -0.91370682359E+02  0.25416791889E+03  0.27027749700E+03  0.47000000000E+01 0. -1.
        -13    1    6    6    0    0 -0.66497422892E+01  0.29992343165E+02  0.21416783353E+03  0.21635993307E+03  0.00000000000E+00 0.  1.
         14    1    6    6    0    0 -0.68705099625E+02 -0.32954072115E+02  0.29834097444E+03  0.30791833108E+03  0.00000000000E+00 0. -1.
         -5    1    3    3    0  503  0.85238127906E+02  0.85030096155E+02  0.59155125829E+03  0.60369747133E+03  0.47000000000E+01 0.  1.
         11    1    4    4    0    0  0.27251209359E+02  0.60354456137E+01  0.46243343695E+02  0.54013904241E+02  0.00000000000E+00 0. -1.
        -12    1    4    4    0    0 -0.45960751401E+02  0.32668695406E+01  0.22360445080E+03  0.22830246062E+03  0.00000000000E+00 0.  1.
<mgrwt>
<rscale>  2 0.20831879E+03</rscale>
<asrwt>0</asrwt>
<pdfrwt beam="1">  1       21 0.25451110E+00 0.20862803E+03</pdfrwt>
<pdfrwt beam="2">  1       21 0.40379873E-02 0.20862803E+03</pdfrwt>
<totfact> 0.23805452E+04</totfact>
</mgrwt>
</event>
<event>
12    1  0.1013215E-001  0.2374703E+03  0.7546771E-02  0.1121731E+00
         21   -1    0    0  501  502  0.00000000000E+00  0.00000000000E+00  0.65958682332E+02  0.65958682332E+02  0.00000000000E+00 0.  1.
         21   -1    0    0  502  503 -0.00000000000E+00 -0.00000000000E+00 -0.27396277855E+04  0.27396277855E+04  0.00000000000E+00 0.  1.
         -6    2    1    2    0  503 -0.12004258501E+03 -0.10524430523E+03 -0.25031555836E+04  0.25143945674E+04  0.17579982500E+03 0.  0.
        -24    2    3    3    0    0 -0.43582939925E+02 -0.12490875726E+03 -0.13405649913E+04  0.13491170281E+04  0.74165958801E+02 0.  0.
          6    2    1    2  501    0  0.12004258501E+03  0.10524430523E+03 -0.17051351948E+03  0.29119190042E+03  0.17387143683E+03 0.  0.
         24    2    5    5    0    0  0.93830868244E+02  0.92639232848E+02 -0.46852562806E+02  0.16406965944E+03  0.85658806966E+02 0.  0.
          5    1    5    5  501    0  0.26211716768E+02  0.12605072383E+02 -0.12366095667E+03  0.12712224098E+03  0.47000000000E+01 0. -1.
        -11    1    6    6    0    0  0.85792299782E+02  0.54377679519E+02 -0.65388760975E+02  0.12080124500E+03  0.00000000000E+00 0.  1.
         12    1    6    6    0    0  0.80385684621E+01  0.38261553329E+02  0.18536198169E+02  0.43268414445E+02  0.00000000000E+00 0. -1.
         -5    1    3    3    0  503 -0.76459645087E+02  0.19664452026E+02 -0.11625905924E+04  0.11652775392E+04  0.47000000000E+01 0.  1.
         13    1    4    4    0    0 -0.63872204992E+02 -0.10366066259E+03 -0.11216963254E+04  0.11282853530E+04  0.00000000000E+00 0. -1.
        -14    1    4    4    0    0  0.20289265067E+02 -0.21248094665E+02 -0.21886866592E+03  0.22083167509E+03  0.00000000000E+00 0.  1.
<mgrwt>
<rscale>  2 0.23711353E+03</rscale>
<asrwt>0</asrwt>
<pdfrwt beam="1">  1       21 0.10147492E-01 0.23747034E+03</pdfrwt>
<pdfrwt beam="2">  1       21 0.42148111E+00 0.23747034E+03</pdfrwt>
<totfact> 0.47159636E+02</totfact>
</mgrwt>
</event>
<event>
12    1  0.1013215E-001  0.1870556E+03  0.7546771E-02  0.1162058E+00
         21   -1    0    0  501  502  0.00000000000E+00  0.00000000000E+00  0.52303217799E+03  0.52303217799E+03  0.00000000000E+00 0. -1.
         21   -1    0    0  502  503 -0.00000000000E+00 -0.00000000000E+00 -0.66058805997E+02  0.66058805997E+02  0.00000000000E+00 0. -1.
         -6    2    1    2    0  503 -0.57920085111E+02  0.25040188667E+02  0.19903434606E+03  0.27046529835E+03  0.17191584974E+03 0.  0.
        -24    2    3    3    0    0 -0.43155406009E+02  0.55907576125E+02  0.20643933462E+03  0.23514228583E+03  0.87673539741E+02 0.  0.
          6    2    1    2  501    0  0.57920085111E+02 -0.25040188667E+02  0.25793902594E+03  0.31862568564E+03  0.17609099676E+03 0.  0.
         24    2    5    5    0    0  0.25760628303E+02  0.28907516096E+02  0.23670601898E+03  0.25216128844E+03  0.77822371495E+02 0.  0.
          5    1    5    5  501    0  0.32159456808E+02 -0.53947704763E+02  0.21233006952E+02  0.66464397203E+02  0.47000000000E+01 0. -1.
        -11    1    6    6    0    0 -0.60306820029E+01 -0.14071800703E+02  0.79676427752E+01  0.17258853723E+02  0.00000000000E+00 0.  1.
         12    1    6    6    0    0  0.31791310306E+02  0.42979316799E+02  0.22873837621E+03  0.23490243471E+03  0.00000000000E+00 0. -1.
         -5    1    3    3    0  503 -0.14764679102E+02 -0.30867387459E+02 -0.74049885660E+01  0.35323012516E+02  0.47000000000E+01 0.  1.
         13    1    4    4    0    0 -0.11630934166E+02 -0.48311875889E+01 -0.45047181461E+01  0.13375779927E+02  0.00000000000E+00 0. -1.
        -14    1    4    4    0    0 -0.31524471843E+02  0.60738763714E+02  0.21094405277E+03  0.22176650591E+03  0.00000000000E+00 0.  1.
<mgrwt>
<rscale>  2 0.18606650E+03</rscale>
<asrwt>0</asrwt>
<pdfrwt beam="1">  1       21 0.80466487E-01 0.18705557E+03</pdfrwt>
<pdfrwt beam="2">  1       21 0.10162894E-01 0.18705557E+03</pdfrwt>
<totfact> 0.10727477E+05</totfact>
</mgrwt>
</event>
<event>
12    1  0.1013215E-001  0.2883901E+03  0.7546771E-02  0.1091453E+00
         21   -1    0    0  503  502  0.00000000000E+00  0.00000000000E+00  0.48917852144E+03  0.48917852144E+03  0.00000000000E+00 0. -1.
         21   -1    0    0  501  503 -0.00000000000E+00 -0.00000000000E+00 -0.20679010732E+03  0.20679010732E+03  0.00000000000E+00 0.  1.
          6    2    1    2  501    0  0.88205116211E+02 -0.21785328202E+03 -0.74544041336E+01  0.28848639782E+03  0.16711863622E+03 0.  0.
         24    2    3    3    0    0  0.11230130220E+03 -0.18781684698E+03  0.26005209686E+02  0.23725701790E+03  0.87908310908E+02 0.  0.
         -6    2    1    2    0  502 -0.88205116211E+02  0.21785328202E+03  0.28984281825E+03  0.40748223094E+03  0.16368480146E+03 0.  0.
        -24    2    5    5    0    0 -0.13537501238E+02  0.12411078210E+03  0.79776346274E+02  0.16558778771E+03  0.73947953590E+02 0.  0.
          5    1    3    3  501    0 -0.24096185994E+02 -0.30036435037E+02 -0.33459613820E+02  0.51229379912E+02  0.47000000000E+01 0. -1.
        -11    1    4    4    0    0  0.18876620551E+02 -0.11332924698E+03  0.25893650315E+02  0.11777234884E+03  0.00000000000E+00 0.  1.
         12    1    4    4    0    0  0.93424681654E+02 -0.74487600004E+02  0.11155937059E+00  0.11948466907E+03  0.00000000000E+00 0. -1.
         -5    1    5    5    0  502 -0.74667614972E+02  0.93742499914E+02  0.21006647198E+03  0.24189444323E+03  0.47000000000E+01 0.  1.
         13    1    6    6    0    0 -0.34741886644E+01 -0.82303396749E+01  0.16026535471E+02  0.18348251068E+02  0.00000000000E+00 0. -1.
        -14    1    6    6    0    0 -0.10063312574E+02  0.13234112178E+03  0.63749810803E+02  0.14723953664E+03  0.00000000000E+00 0.  1.
<mgrwt>
<rscale>  2 0.28789475E+03</rscale>
<asrwt>0</asrwt>
<pdfrwt beam="1">  1       21 0.75258234E-01 0.28839007E+03</pdfrwt>
<pdfrwt beam="2">  1       21 0.31813863E-01 0.28839007E+03</pdfrwt>
<totfact> 0.14230023E+04</totfact>
</mgrwt>
</event>
<event>
12    1  0.1013215E-001  0.2908808E+03  0.7546771E-02  0.1089908E+00
         21   -1    0    0  503  502  0.00000000000E+00  0.00000000000E+00  0.66940524116E+03  0.66940524116E+03  0.00000000000E+00 0.  1.
         21   -1    0    0  501  503 -0.00000000000E+00 -0.00000000000E+00 -0.18283202085E+03  0.18283202085E+03  0.00000000000E+00 0. -1.
          6    2    1    2  501    0 -0.87203168458E+02 -0.21702508235E+03  0.64605260742E+01  0.29095255219E+03  0.17293747503E+03 0.  0.
         24    2    3    3    0    0 -0.71829269843E+02 -0.96190665235E+02  0.60638688935E+02  0.15755586389E+03  0.82065288437E+02 0.  0.
         -6    2    1    2    0  502  0.87203168458E+02  0.21702508235E+03  0.48011269424E+03  0.56128470983E+03  0.17270798291E+03 0.  0.
        -24    2    5    5    0    0  0.70058000144E+02  0.61271079275E+02  0.28831436933E+03  0.31357125902E+03  0.80867115601E+02 0.  0.
          5    1    3    3  501    0 -0.15373898615E+02 -0.12083441711E+03 -0.54178162861E+02  0.13339668830E+03  0.47000000000E+01 0. -1.
        -11    1    4    4    0    0  0.15389112933E+02 -0.35564473519E+02  0.10818082548E+02  0.40232915425E+02  0.00000000000E+00 0.  1.
         12    1    4    4    0    0 -0.87218382777E+02 -0.60626191716E+02  0.49820606388E+02  0.11732294847E+03  0.00000000000E+00 0. -1.
         -5    1    5    5    0  502  0.17145168314E+02  0.15575400307E+03  0.19179832491E+03  0.24771345080E+03  0.47000000000E+01 0.  1.
         11    1    6    6    0    0  0.95654766017E+01 -0.15749972108E+02  0.96033434668E+02  0.97785379982E+02  0.00000000000E+00 0. -1.
        -12    1    6    6    0    0  0.60492523542E+02  0.77021051383E+02  0.19228093466E+03  0.21578587904E+03  0.00000000000E+00 0.  1.
<mgrwt>
<rscale>  2 0.29084671E+03</rscale>
<asrwt>0</asrwt>
<pdfrwt beam="1">  1       21 0.10298542E+00 0.29088082E+03</pdfrwt>
<pdfrwt beam="2">  1       21 0.28128004E-01 0.29088082E+03</pdfrwt>
<totfact> 0.87120393E+03</totfact>
</mgrwt>
</event>
<event>
12    1  0.1013215E-001  0.2342909E+03  0.7546771E-02  0.1124117E+00
         21   -1    0    0  501  502  0.00000000000E+00  0.00000000000E+00  0.76992223053E+03  0.76992223053E+03  0.00000000000E+00 0. -1.
         21   -1    0    0  502  503 -0.00000000000E+00 -0.00000000000E+00 -0.26913400510E+03  0.26913400510E+03  0.00000000000E+00 0.  1.
         -6    2    1    2    0  503 -0.14531234431E+03 -0.60488600048E+02 -0.19556964287E+03  0.30518797562E+03  0.17354442402E+03 0.  0.
        -24    2    3    3    0    0 -0.90667003229E+02  0.19521066239E+02 -0.59871009853E+02  0.13838309259E+03  0.83449176103E+02 0.  0.
          6    2    1    2  501    0  0.14531234431E+03  0.60488600048E+02  0.69635786830E+03  0.73386826001E+03  0.16992290652E+03 0.  0.
         24    2    5    5    0    0  0.13674916917E+03 -0.99908809817E+01  0.52459875673E+03  0.54795438849E+03  0.79056962589E+02 0.  0.
          5    1    5    5  501    0  0.85631751376E+01  0.70479481030E+02  0.17175911157E+03  0.18591387152E+03  0.47000000000E+01 0. -1.
        -11    1    6    6    0    0  0.90251021715E+02  0.34823390421E+00  0.19429128972E+03  0.21422995460E+03  0.00000000000E+00 0.  1.
         12    1    6    6    0    0  0.46498147454E+02 -0.10339114886E+02  0.33030746700E+03  0.33372443389E+03  0.00000000000E+00 0. -1.
         -5    1    3    3    0  503 -0.54645341078E+02 -0.80009666287E+02 -0.13569863302E+03  0.16680488303E+03  0.47000000000E+01 0.  1.
         11    1    4    4    0    0 -0.30797493339E+02 -0.28369232458E+02 -0.12818788001E+01  0.41892029785E+02  0.00000000000E+00 0. -1.
        -12    1    4    4    0    0 -0.59869509890E+02  0.47890298697E+02 -0.58589131053E+02  0.96491062805E+02  0.00000000000E+00 0.  1.
<mgrwt>
<rscale>  2 0.23362057E+03</rscale>
<asrwt>0</asrwt>
<pdfrwt beam="1">  1       21 0.11844957E+00 0.23429088E+03</pdfrwt>
<pdfrwt beam="2">  1       21 0.41405232E-01 0.23429088E+03</pdfrwt>
<totfact> 0.29612099E+03</totfact>
</mgrwt>
</event>
<event>
12    1  0.1013215E-001  0.1905510E+03  0.7546771E-02  0.1158442E+00
         21   -1    0    0  501  502  0.00000000000E+00  0.00000000000E+00  0.21477567956E+03  0.21477567956E+03  0.00000000000E+00 0. -1.
         21   -1    0    0  502  503 -0.00000000000E+00 -0.00000000000E+00 -0.17149532276E+03  0.17149532276E+03  0.00000000000E+00 0. -1.
         -6    2    1    2    0  503 -0.14626013872E+02 -0.78149268175E+02 -0.90699462478E+01  0.18865969835E+03  0.17084785471E+03 0.  0.
        -24    2    3    3    0    0  0.49852707320E+02 -0.52176579094E+02  0.24730075353E+02  0.11122186828E+03  0.80938492231E+02 0.  0.
          6    2    1    2  501    0  0.14626013872E+02  0.78149268175E+02  0.52350303048E+02  0.19761130396E+03  0.17317172063E+03 0.  0.
         24    2    5    5    0    0 -0.22862316228E+02  0.37866418723E+02  0.93920464950E+02  0.12848640820E+03  0.75704373625E+02 0.  0.
          5    1    5    5  501    0  0.37488330101E+02  0.40282849452E+02 -0.41570161902E+02  0.69124895763E+02  0.47000000000E+01 0. -1.
        -13    1    6    6    0    0  0.27587662023E+02  0.15401517316E+02  0.43063061817E+02  0.53410795955E+02  0.00000000000E+00 0.  1.
         14    1    6    6    0    0 -0.50449978251E+02  0.22464901407E+02  0.50857403133E+02  0.75075612247E+02  0.00000000000E+00 0. -1.
         -5    1    3    3    0  503 -0.64478721192E+02 -0.25972689081E+02 -0.33800021601E+02  0.77437830063E+02  0.47000000000E+01 0.  1.
         11    1    4    4    0    0  0.34792149601E+02 -0.73230243644E+02  0.26445848214E+02  0.85279218722E+02  0.00000000000E+00 0. -1.
        -12    1    4    4    0    0  0.15060557719E+02  0.21053664550E+02 -0.17157728610E+01  0.25942649563E+02  0.00000000000E+00 0.  1.
<mgrwt>
<rscale>  2 0.19002141E+03</rscale>
<asrwt>0</asrwt>
<pdfrwt beam="1">  1       21 0.33042412E-01 0.19055097E+03</pdfrwt>
<pdfrwt beam="2">  1       21 0.26383896E-01 0.19055097E+03</pdfrwt>
<totfact> 0.12056982E+05</totfact>
</mgrwt>
</event>
<event>
12    1  0.1013215E-001  0.2294410E+03  0.7546771E-02  0.1127125E+00
         21   -1    0    0  501  502  0.00000000000E+00  0.00000000000E+00  0.58592109822E+02  0.58592109822E+02  0.00000000000E+00 0. -1.
         21   -1    0    0  502  503 -0.00000000000E+00 -0.00000000000E+00 -0.93580115264E+03  0.93580115264E+03  0.00000000000E+00 0.  1.
         -6    2    1    2    0  503  0.14481271430E+03 -0.38312683176E+02 -0.33712425105E+03  0.40779397015E+03  0.17379464183E+03 0.  0.
        -24    2    3    3    0    0  0.12530982770E+03 -0.89035302745E+02 -0.27250610529E+03  0.32323191315E+03  0.81175453239E+02 0.  0.
          6    2    1    2  501    0 -0.14481271430E+03  0.38312683176E+02 -0.54008479177E+03  0.58659929231E+03  0.17311430768E+03 0.  0.
         24    2    5    5    0    0 -0.55192432541E+01  0.37273484951E+01 -0.20971232024E+03  0.22636759410E+03  0.84962787298E+02 0.  0.
          5    1    5    5  501    0 -0.13929347105E+03  0.34585334681E+02 -0.33037247153E+03  0.36023169821E+03  0.47000000000E+01 0. -1.
        -13    1    6    6    0    0 -0.43741507380E+02  0.13485753249E+02 -0.11187847383E+03  0.12088001454E+03  0.00000000000E+00 0.  1.
         14    1    6    6    0    0  0.38222264126E+02 -0.97584047540E+01 -0.97833846409E+02  0.10548757956E+03  0.00000000000E+00 0. -1.
         -5    1    3    3    0  503  0.19502886601E+02  0.50722619569E+02 -0.64618145763E+02  0.84562056997E+02  0.47000000000E+01 0.  1.
         11    1    4    4    0    0  0.45352277381E+02 -0.80109855384E+02 -0.12539687497E+03  0.15555961637E+03  0.00000000000E+00 0. -1.
        -12    1    4    4    0    0  0.79957550320E+02 -0.89254473614E+01 -0.14710923031E+03  0.16767229678E+03  0.00000000000E+00 0.  1.
<mgrwt>
<rscale>  2 0.22931214E+03</rscale>
<asrwt>0</asrwt>
<pdfrwt beam="1">  1       21 0.90141713E-02 0.22944098E+03</pdfrwt>
<pdfrwt beam="2">  1       21 0.14396940E+00 0.22944098E+03</pdfrwt>
<totfact> 0.31730865E+04</totfact>
</mgrwt>
</event>
<event>
12    1  0.1013215E-001  0.1815302E+03  0.7546771E-02  0.1166886E+00
         21   -1    0    0  501  502  0.00000000000E+00  0.00000000000E+00  0.21529289059E+04  0.21529289059E+04  0.00000000000E+00 0. -1.
         21   -1    0    0  502  503 -0.00000000000E+00 -0.00000000000E+00 -0.18395022890E+02  0.18395022890E+02  0.00000000000E+00 0. -1.
         -6    2    1    2    0  503  0.25480888705E+02 -0.48172136054E+02  0.60305501771E+03  0.62912396191E+03  0.17073890791E+03 0.  0.
        -24    2    3    3    0    0  0.56311783523E+01 -0.88721807854E+02  0.52767665951E+03  0.54113377058E+03  0.80497399408E+02 0.  0.
          6    2    1    2  501    0 -0.25480888705E+02  0.48172136054E+02  0.15314788653E+04  0.15421999669E+04  0.17315713276E+03 0.  0.
         24    2    5    5    0    0 -0.40298981513E+02  0.64320660298E+02  0.14967084600E+04  0.15008306329E+04  0.81210954806E+02 0.  0.
          5    1    5    5  501    0  0.14818092808E+02 -0.16148524245E+02  0.34770405330E+02  0.41369334012E+02  0.47000000000E+01 0. -1.
        -13    1    6    6    0    0 -0.22108838483E+02  0.48270077727E+01  0.91895774234E+02  0.94641080219E+02  0.00000000000E+00 0.  1.
         14    1    6    6    0    0 -0.18190143030E+02  0.59493652526E+02  0.14048126858E+04  0.14061895527E+04  0.00000000000E+00 0. -1.
         -5    1    3    3    0  503  0.19849710353E+02  0.40549671801E+02  0.75378358201E+02  0.87990191324E+02  0.47000000000E+01 0.  1.
         13    1    4    4    0    0  0.17033415049E+02 -0.10043820577E+03  0.41740322254E+03  0.42965500182E+03  0.00000000000E+00 0. -1.
        -14    1    4    4    0    0 -0.11402236697E+02  0.11716397916E+02  0.11027343698E+03  0.11147876876E+03  0.00000000000E+00 0.  1.
<mgrwt>
<rscale>  2 0.18095116E+03</rscale>
<asrwt>0</asrwt>
<pdfrwt beam="1">  1       21 0.33121963E+00 0.18153023E+03</pdfrwt>
<pdfrwt beam="2">  1       21 0.28300052E-02 0.18153023E+03</pdfrwt>
<totfact> 0.15897401E+04</totfact>
</mgrwt>
</event>
<event>
12    1  0.1013215E-001  0.1952454E+03  0.7546771E-02  0.1154543E+00
         21   -1    0    0  501  502  0.00000000000E+00  0.00000000000E+00  0.12991095116E+04  0.12991095116E+04  0.00000000000E+00 0. -1.
         21   -1    0    0  502  503 -0.00000000000E+00 -0.00000000000E+00 -0.53679388848E+02  0.53679388848E+02  0.00000000000E+00 0. -1.
         -6    2    1    2    0  503  0.19721823055E+02 -0.87093245165E+02  0.15979777873E+03  0.24973933740E+03  0.16988296825E+03 0.  0.
        -24    2    3    3    0    0  0.19243524355E+02 -0.43644575585E+01  0.20173153906E+02  0.87377374720E+02  0.82695149526E+02 0.  0.
          6    2    1    2  501    0 -0.19721823055E+02  0.87093245165E+02  0.10856323440E+04  0.11030495630E+04  0.17362767202E+03 0.  0.
         24    2    5    5    0    0 -0.19281839255E+02 -0.28617594719E+02  0.39841536009E+03  0.40614320990E+03  0.70899589126E+02 0.  0.
          5    1    5    5  501    0 -0.43998379982E+00  0.11571083988E+03  0.68721698391E+03  0.69690635312E+03  0.47000000000E+01 0. -1.
        -13    1    6    6    0    0 -0.18216521584E+02 -0.19657518995E+02  0.43365321505E+02  0.50978532942E+02  0.00000000000E+00 0.  1.
         14    1    6    6    0    0 -0.10653176713E+01 -0.89600757248E+01  0.35505003858E+03  0.35516467695E+03  0.00000000000E+00 0. -1.
         -5    1    3    3    0  503  0.47829869925E+00 -0.82728787606E+02  0.13962462482E+03  0.16236196268E+03  0.47000000000E+01 0.  1.
         11    1    4    4    0    0  0.32320196813E+02 -0.37392964249E+02  0.10000937304E+02  0.50426656089E+02  0.00000000000E+00 0. -1.
        -12    1    4    4    0    0 -0.13076672458E+02  0.33028506690E+02  0.10172216601E+02  0.36950718631E+02  0.00000000000E+00 0.  1.
<mgrwt>
<rscale>  2 0.19440940E+03</rscale>
<asrwt>0</asrwt>
<pdfrwt beam="1">  1       21 0.19986298E+00 0.19524536E+03</pdfrwt>
<pdfrwt beam="2">  1       21 0.82583684E-02 0.19524536E+03</pdfrwt>
<totfact> 0.15244132E+04</totfact>
</mgrwt>
</event>
<event>
12    1  0.1013215E-001  0.2497239E+03  0.7546771E-02  0.1114807E+00
         21   -1    0    0  501  502  0.00000000000E+00  0.00000000000E+00  0.11209905926E+03  0.11209905926E+03  0.00000000000E+00 0. -1.
         21   -1    0    0  502  503 -0.00000000000E+00 -0.00000000000E+00 -0.56160882132E+03  0.56160882132E+03  0.00000000000E+00 0. -1.
         -6    2    1    2    0  503 -0.11801071157E+03 -0.13579977860E+03 -0.29003939605E+03  0.37740937158E+03  0.16108033581E+03 0.  0.
        -24    2    3    3    0    0 -0.65547855437E+02 -0.15197330295E+03 -0.20409748887E+03  0.27532100019E+03  0.82179450119E+02 0.  0.
          6    2    1    2  501    0  0.11801071157E+03  0.13579977860E+03 -0.15947036600E+03  0.29629850900E+03  0.17318747324E+03 0.  0.
         24    2    5    5    0    0  0.23226673872E+02  0.12795019800E+03 -0.11586806515E+03  0.19156608634E+03  0.79758544149E+02 0.  0.
          5    1    5    5  501    0  0.94784037696E+02  0.78495806040E+01 -0.43602300850E+02  0.10473242266E+03  0.47000000000E+01 0. -1.
        -11    1    6    6    0    0 -0.23342864744E+02  0.11896067621E+02 -0.11197845946E+02  0.28492060528E+02  0.00000000000E+00 0.  1.
         12    1    6    6    0    0  0.46569538616E+02  0.11605413037E+03 -0.10467021921E+03  0.16307402581E+03  0.00000000000E+00 0. -1.
         -5    1    3    3    0  503 -0.52462856131E+02  0.16173524353E+02 -0.85941907179E+02  0.10208837139E+03  0.47000000000E+01 0.  1.
         11    1    4    4    0    0 -0.43217619965E+02 -0.20669711122E+02 -0.80178508048E+02  0.93400175514E+02  0.00000000000E+00 0. -1.
        -12    1    4    4    0    0 -0.22330235472E+02 -0.13130359183E+03 -0.12391898082E+03  0.18192082468E+03  0.00000000000E+00 0.  1.
<mgrwt>
<rscale>  2 0.24763815E+03</rscale>
<asrwt>0</asrwt>
<pdfrwt beam="1">  1       21 0.17246009E-01 0.24972387E+03</pdfrwt>
<pdfrwt beam="2">  1       21 0.86401356E-01 0.24972387E+03</pdfrwt>
<totfact> 0.34082142E+04</totfact>
</mgrwt>
</event>
<event>
12    1  0.1013215E-001  0.3064860E+03  0.7546771E-02  0.1082097E+00
         21   -1    0    0  503  502  0.00000000000E+00  0.00000000000E+00  0.34131551660E+03  0.34131551660E+03  0.00000000000E+00 0.  1.
         21   -1    0    0  501  503 -0.00000000000E+00 -0.00000000000E+00 -0.27510946976E+03  0.27510946976E+03  0.00000000000E+00 0. -1.
          6    2    1    2  501    0  0.60220874477E+02 -0.24517433460E+03  0.22927465787E+02  0.30734240593E+03  0.17377191295E+03 0.  0.
         24    2    3    3    0    0  0.36841123353E+02 -0.35619597145E+02  0.43202330474E+01  0.95615884540E+02  0.80608367383E+02 0.  0.
         -6    2    1    2    0  502 -0.60220874477E+02  0.24517433460E+03  0.43278581054E+02  0.30908258044E+03  0.17297976149E+03 0.  0.
        -24    2    5    5    0    0 -0.94109325328E+02  0.12430807708E+03  0.53758587075E+02  0.18303100435E+03  0.79380726433E+02 0.  0.
          5    1    3    3  501    0  0.23379751124E+02 -0.20955473745E+03  0.18607232739E+02  0.21172652139E+03  0.47000000000E+01 0. -1.
        -13    1    4    4    0    0  0.13487450075E+02  0.58592224993E+00  0.38386331250E+02  0.40691092898E+02  0.00000000000E+00 0.  1.
         14    1    4    4    0    0  0.23353673278E+02 -0.36205519395E+02 -0.34066098202E+02  0.54924791642E+02  0.00000000000E+00 0. -1.
         -5    1    5    5    0  502  0.33888450851E+02  0.12086625752E+03 -0.10480006021E+02  0.12605157608E+03  0.47000000000E+01 0.  1.
         11    1    6    6    0    0 -0.25188085283E+02  0.80536753237E+02 -0.15795459975E+01  0.84398478824E+02  0.00000000000E+00 0. -1.
        -12    1    6    6    0    0 -0.68921240045E+02  0.43771323842E+02  0.55338133072E+02  0.98632525528E+02  0.00000000000E+00 0.  1.
<mgrwt>
<rscale>  2 0.30637386E+03</rscale>
<asrwt>0</asrwt>
<pdfrwt beam="1">  1       21 0.52510079E-01 0.30648603E+03</pdfrwt>
<pdfrwt beam="2">  1       21 0.42324534E-01 0.30648603E+03</pdfrwt>
<totfact> 0.17451063E+04</totfact>
</mgrwt>
</event>
<event>
12    1  0.1013215E-001  0.1760660E+03  0.7546771E-02  0.1171829E+00
         21   -1    0    0  503  502  0.00000000000E+00  0.00000000000E+00  0.56011147388E+02  0.56011147388E+02  0.00000000000E+00 0.  1.
         21   -1    0    0  501  503 -0.00000000000E+00 -0.00000000000E+00 -0.81593939400E+03  0.81593939400E+03  0.00000000000E+00 0.  1.
          6    2    1    2  501    0 -0.30969315067E+02  0.52824406204E+01 -0.62868916952E+03  0.65287770729E+03  0.17324037101E+03 0.  0.
         24    2    3    3    0    0 -0.23142853650E+02  0.17688381987E+02 -0.14803628472E+03  0.17197808517E+03  0.82542411250E+02 0.  0.
         -6    2    1    2    0  502  0.30969315067E+02 -0.52824406204E+01 -0.13123907709E+03  0.21907283410E+03  0.17257522600E+03 0.  0.
        -24    2    5    5    0    0  0.17525017711E+02  0.61698621853E+02 -0.64037726412E+02  0.12312845753E+03  0.83342308981E+02 0.  0.
          5    1    3    3  501    0 -0.78264614172E+01 -0.12405941367E+02 -0.48065288481E+03  0.48089962212E+03  0.47000000000E+01 0. -1.
        -11    1    4    4    0    0 -0.77730304975E+01 -0.26995652460E+02 -0.17367141549E+02  0.33027304771E+02  0.00000000000E+00 0.  1.
         12    1    4    4    0    0 -0.15369823153E+02  0.44684034448E+02 -0.13066914317E+03  0.13895078040E+03  0.00000000000E+00 0. -1.
         -5    1    5    5    0  502  0.13444297356E+02 -0.66981062473E+02 -0.67201350677E+02  0.95944376564E+02  0.47000000000E+01 0.  1.
         13    1    6    6    0    0 -0.83907617251E+01  0.33100742239E+01  0.17415550234E+02  0.19612823959E+02  0.00000000000E+00 0. -1.
        -14    1    6    6    0    0  0.25915779436E+02  0.58388547629E+02 -0.81453276646E+02  0.10351563357E+03  0.00000000000E+00 0.  1.
<mgrwt>
<rscale>  2 0.17590214E+03</rscale>
<asrwt>0</asrwt>
<pdfrwt beam="1">  1       21 0.86171007E-02 0.17606598E+03</pdfrwt>
<pdfrwt beam="2">  1       21 0.12552912E+00 0.17606598E+03</pdfrwt>
<totfact> 0.50194213E+04</totfact>
</mgrwt>
</event>
<event>
12    1  0.1013215E-001  0.2250718E+03  0.7546771E-02  0.1130298E+00
         21   -1    0    0  501  502  0.00000000000E+00  0.00000000000E+00  0.18678658590E+03  0.18678658590E+03  0.00000000000E+00 0. -1.
         21   -1    0    0  502  503 -0.00000000000E+00 -0.00000000000E+00 -0.30513749557E+03  0.30513749557E+03  0.00000000000E+00 0. -1.
         -6    2    1    2    0  503 -0.14096489473E+03 -0.23699698771E+02 -0.14241267746E+03  0.26634313783E+03  0.17385200343E+03 0.  0.
        -24    2    3    3    0    0 -0.14364615616E+03 -0.57038517036E+02 -0.15261225139E+03  0.23106159486E+03  0.78812123042E+02 0.  0.
          6    2    1    2  501    0  0.14096489473E+03  0.23699698771E+02  0.24061767786E+02  0.22558094364E+03  0.17284390702E+03 0.  0.
         24    2    5    5    0    0  0.15726539888E+02  0.46109731924E+02  0.35216173341E+02  0.97778886247E+02  0.77117444823E+02 0.  0.
          5    1    5    5  501    0  0.12523835485E+03 -0.22410033153E+02 -0.11154405556E+02  0.12780205739E+03  0.47000000000E+01 0. -1.
        -11    1    6    6    0    0 -0.87063196860E+01  0.54650081715E+02  0.16121684449E+01  0.55362717790E+02  0.00000000000E+00 0.  1.
         12    1    6    6    0    0  0.24432859574E+02 -0.85403497916E+01  0.33604004896E+02  0.42416168458E+02  0.00000000000E+00 0. -1.
         -5    1    3    3    0  503  0.26812614239E+01  0.33338818265E+02  0.10199573931E+02  0.35281542972E+02  0.47000000000E+01 0.  1.
         13    1    4    4    0    0 -0.86916159354E+02 -0.59816942937E+02 -0.57186289984E+02  0.12001148771E+03  0.00000000000E+00 0. -1.
        -14    1    4    4    0    0 -0.56729996804E+02  0.27784259003E+01 -0.95425961407E+02  0.11105010715E+03  0.00000000000E+00 0.  1.
<mgrwt>
<rscale>  2 0.22487706E+03</rscale>
<asrwt>0</asrwt>
<pdfrwt beam="1">  1       21 0.28736398E-01 0.22507176E+03</pdfrwt>
<pdfrwt beam="2">  1       21 0.46944230E-01 0.22507176E+03</pdfrwt>
<totfact> 0.49560830E+04</totfact>
</mgrwt>
</event>
<event>
12    1  0.1013215E-001  0.1761302E+03  0.7546771E-02  0.1172023E+00
         21   -1    0    0  501  502  0.00000000000E+00  0.00000000000E+00  0.10934920411E+03  0.10934920411E+03  0.00000000000E+00 0. -1.
         21   -1    0    0  502  503 -0.00000000000E+00 -0.00000000000E+00 -0.38031693243E+03  0.38031693243E+03  0.00000000000E+00 0. -1.
         -6    2    1    2    0  503 -0.92013413263E+01  0.20492914369E+02 -0.26108600612E+03  0.31494089194E+03  0.17469183898E+03 0.  0.
        -24    2    3    3    0    0  0.56254322274E+02  0.11779467459E+02 -0.20571392681E+03  0.22863605302E+03  0.81565436485E+02 0.  0.
          6    2    1    2  501    0  0.92013413263E+01 -0.20492914369E+02 -0.98817222002E+01  0.17472524460E+03  0.17299317457E+03 0.  0.
         24    2    5    5    0    0  0.19622582483E+01 -0.66848078440E+02 -0.49290111976E+02  0.11327350138E+03  0.76999057972E+02 0.  0.
          5    1    5    5  501    0  0.72390830781E+01  0.46355164072E+02  0.39408389776E+02  0.61451743219E+02  0.47000000000E+01 0. -1.
        -11    1    6    6    0    0 -0.59711067284E+01  0.50519857766E+01 -0.39512565802E+02  0.40279269259E+02  0.00000000000E+00 0.  1.
         12    1    6    6    0    0  0.79333649767E+01 -0.71900064217E+02 -0.97775461744E+01  0.72994232124E+02  0.00000000000E+00 0. -1.
         -5    1    3    3    0  503 -0.65455663601E+02  0.87134469102E+01 -0.55372079302E+02  0.86304838918E+02  0.47000000000E+01 0.  1.
         13    1    4    4    0    0  0.42309318791E+02 -0.31268044910E+02 -0.88032032439E+02  0.10255441397E+03  0.00000000000E+00 0. -1.
        -14    1    4    4    0    0  0.13945003484E+02  0.43047512369E+02 -0.11768189438E+03  0.12608163906E+03  0.00000000000E+00 0.  1.
<mgrwt>
<rscale>  2 0.17570756E+03</rscale>
<asrwt>0</asrwt>
<pdfrwt beam="1">  1       21 0.16822954E-01 0.17613024E+03</pdfrwt>
<pdfrwt beam="2">  1       21 0.58510298E-01 0.17613024E+03</pdfrwt>
<totfact> 0.87550990E+04</totfact>
</mgrwt>
</event>
<event>
12    1  0.1013215E-001  0.2116718E+03  0.7546771E-02  0.1140271E+00
         21   -1    0    0  501  502  0.00000000000E+00  0.00000000000E+00  0.10772061537E+03  0.10772061537E+03  0.00000000000E+00 0.  1.
         21   -1    0    0  502  503 -0.00000000000E+00 -0.00000000000E+00 -0.49102357764E+03  0.49102357764E+03  0.00000000000E+00 0.  1.
         -6    2    1    2    0  503  0.34528056760E+02 -0.11839250624E+03 -0.74452174500E+02  0.22438379597E+03  0.17203484929E+03 0.  0.
        -24    2    3    3    0    0  0.15357898129E+02 -0.14349692252E+03 -0.90845808098E+02  0.18848716769E+03  0.80294580944E+02 0.  0.
          6    2    1    2  501    0 -0.34528056760E+02  0.11839250624E+03 -0.30885078777E+03  0.37436039704E+03  0.17189510038E+03 0.  0.
         24    2    5    5    0    0 -0.70236767765E+02  0.23208898034E+02 -0.13425535247E+03  0.17226960720E+03  0.78615910631E+02 0.  0.
          5    1    5    5  501    0  0.35708711006E+02  0.95183608201E+02 -0.17459543530E+03  0.20209078984E+03  0.47000000000E+01 0. -1.
        -11    1    6    6    0    0 -0.43920104970E+02  0.42655094326E+02 -0.12346999991E+03  0.13781608603E+03  0.00000000000E+00 0.  1.
         12    1    6    6    0    0 -0.26316662795E+02 -0.19446196292E+02 -0.10785352560E+02  0.34453521166E+02  0.00000000000E+00 0. -1.
         -5    1    3    3    0  503  0.19170158631E+02  0.25104416284E+02  0.16393633598E+02  0.35896628274E+02  0.47000000000E+01 0.  1.
         11    1    4    4    0    0  0.41505298810E+02 -0.64306307915E+02 -0.67075738509E+02  0.10177006320E+03  0.00000000000E+00 0. -1.
        -12    1    4    4    0    0 -0.26147400681E+02 -0.79190614605E+02 -0.23770069589E+02  0.86717104496E+02  0.00000000000E+00 0.  1.
<mgrwt>
<rscale>  2 0.21164343E+03</rscale>
<asrwt>0</asrwt>
<pdfrwt beam="1">  1       21 0.16572402E-01 0.21167183E+03</pdfrwt>
<pdfrwt beam="2">  1       21 0.75542089E-01 0.21167183E+03</pdfrwt>
<totfact> 0.50674541E+04</totfact>
</mgrwt>
</event>
<event>
12    1  0.1013215E-001  0.2501017E+03  0.7546771E-02  0.1113368E+00
         21   -1    0    0  501  502  0.00000000000E+00  0.00000000000E+00  0.77359857278E+03  0.77359857278E+03  0.00000000000E+00 0. -1.
         21   -1    0    0  502  503 -0.00000000000E+00 -0.00000000000E+00 -0.12989326798E+03  0.12989326798E+03  0.00000000000E+00 0. -1.
         -6    2    1    2    0  503 -0.15548803938E+03 -0.89131170972E+02  0.43235634062E+02  0.25301916456E+03  0.17328728041E+03 0.  0.
        -24    2    3    3    0    0 -0.13866548771E+03 -0.90184076278E+02 -0.16597705814E+02  0.19067956707E+03  0.93391264922E+02 0.  0.
          6    2    1    2  501    0  0.15548803938E+03  0.89131170972E+02  0.60046967075E+03  0.65047267620E+03  0.17444191289E+03 0.  0.
         24    2    5    5    0    0  0.14214502563E+03  0.37641324809E+01  0.41271120431E+03  0.44373395464E+03  0.79686305795E+02 0.  0.
          5    1    5    5  501    0  0.13343013750E+02  0.85367038491E+02  0.18775846643E+03  0.20673872156E+03  0.47000000000E+01 0. -1.
        -11    1    6    6    0    0  0.90153612930E+02  0.34188764177E+02  0.19061362366E+03  0.21361202926E+03  0.00000000000E+00 0.  1.
         12    1    6    6    0    0  0.51991412695E+02 -0.30424631696E+02  0.22209758066E+03  0.23012192538E+03  0.00000000000E+00 0. -1.
         -5    1    3    3    0  503 -0.16822551670E+02  0.10529053069E+01  0.59833339876E+02  0.62339597488E+02  0.47000000000E+01 0.  1.
         11    1    4    4    0    0 -0.70159719892E+02 -0.98417253865E+02 -0.13419577412E+02  0.12160767744E+03  0.00000000000E+00 0. -1.
        -12    1    4    4    0    0 -0.68505767814E+02  0.82331775869E+01 -0.31781284014E+01  0.69071889630E+02  0.00000000000E+00 0.  1.
<mgrwt>
<rscale>  2 0.24990050E+03</rscale>
<asrwt>0</asrwt>
<pdfrwt beam="1">  1       21 0.11901516E+00 0.25010173E+03</pdfrwt>
<pdfrwt beam="2">  1       21 0.19983580E-01 0.25010173E+03</pdfrwt>
<totfact> 0.12016584E+04</totfact>
</mgrwt>
</event>
<event>
12    1  0.1013215E-001  0.1757506E+03  0.7546771E-02  0.1172215E+00
         21   -1    0    0  503  502  0.00000000000E+00  0.00000000000E+00  0.44983011290E+02  0.44983011290E+02  0.00000000000E+00 0. -1.
         21   -1    0    0  501  503 -0.00000000000E+00 -0.00000000000E+00 -0.88447185146E+03  0.88447185146E+03  0.00000000000E+00 0. -1.
          6    2    1    2  501    0 -0.31665413144E+02 -0.12314162480E+01 -0.64067522853E+03  0.66409635798E+03  0.17191570449E+03 0.  0.
         24    2    3    3    0    0 -0.85759044753E+02 -0.14333138447E+02 -0.41420481059E+03  0.43083959750E+03  0.80604472864E+02 0.  0.
         -6    2    1    2    0  502  0.31665413144E+02  0.12314162480E+01 -0.19881361164E+03  0.26535850477E+03  0.17287009315E+03 0.  0.
        -24    2    5    5    0    0 -0.81314487375E+01 -0.52605873035E+02 -0.63732379926E+02  0.11452325327E+03  0.78868630984E+02 0.  0.
          5    1    3    3  501    0  0.54093631609E+02  0.13101722199E+02 -0.22647041794E+03  0.23325676047E+03  0.47000000000E+01 0. -1.
        -13    1    4    4    0    0 -0.75826088584E+02 -0.22762932748E+02 -0.18453618610E+03  0.20080176991E+03  0.00000000000E+00 0.  1.
         14    1    4    4    0    0 -0.99329561689E+01  0.84297943006E+01 -0.22966862448E+03  0.23003782759E+03  0.00000000000E+00 0. -1.
         -5    1    5    5    0  502  0.39796861881E+02  0.53837289283E+02 -0.13508123171E+03  0.15083525150E+03  0.47000000000E+01 0.  1.
         13    1    6    6    0    0 -0.93843720446E+01 -0.69289910695E+01  0.17669778527E+02  0.21173059040E+02  0.00000000000E+00 0. -1.
        -14    1    6    6    0    0  0.12529233071E+01 -0.45676881965E+02 -0.81402158453E+02  0.93350194235E+02  0.00000000000E+00 0.  1.
<mgrwt>
<rscale>  2 0.17551549E+03</rscale>
<asrwt>0</asrwt>
<pdfrwt beam="1">  1       21 0.69204639E-02 0.17575063E+03</pdfrwt>
<pdfrwt beam="2">  1       21 0.13607258E+00 0.17575063E+03</pdfrwt>
<totfact> 0.59924490E+04</totfact>
</mgrwt>
</event>
<event>
12    1  0.1013215E-001  0.4374978E+03  0.7546771E-02  0.1031669E+00
         21   -1    0    0  503  502  0.00000000000E+00  0.00000000000E+00  0.47891180067E+03  0.47891180067E+03  0.00000000000E+00 0.  1.
         21   -1    0    0  501  503 -0.00000000000E+00 -0.00000000000E+00 -0.79132061432E+03  0.79132061432E+03  0.00000000000E+00 0.  1.
          6    2    1    2  501    0  0.37787703338E+03  0.12966438445E+03 -0.60385966439E+03  0.74454435564E+03  0.17348169439E+03 0.  0.
         24    2    3    3    0    0  0.38290346278E+03  0.11103826792E+03 -0.59924779322E+03  0.72415915108E+03  0.79774680533E+02 0.  0.
         -6    2    1    2    0  502 -0.37787703338E+03 -0.12966438445E+03  0.29145085074E+03  0.52568805935E+03  0.17832675737E+03 0.  0.
        -24    2    5    5    0    0 -0.28050191942E+03 -0.12134327423E+03  0.28719557058E+03  0.42775261580E+03  0.84175338208E+02 0.  0.
          5    1    3    3  501    0 -0.50264294009E+01  0.18626116530E+02 -0.46118711685E+01  0.20385204566E+02  0.47000000000E+01 0. -1.
        -13    1    4    4    0    0  0.10213796724E+03  0.67567058165E+02 -0.17862756267E+03  0.21657626335E+03  0.00000000000E+00 0.  1.
         14    1    4    4    0    0  0.28076549554E+03  0.43471209759E+02 -0.42062023055E+03  0.50758288773E+03  0.00000000000E+00 0. -1.
         -5    1    5    5    0  502 -0.97375113958E+02 -0.83211102202E+01  0.42552801555E+01  0.97935443547E+02  0.47000000000E+01 0.  1.
         13    1    6    6    0    0 -0.19283158683E+02 -0.36172388289E+02  0.50988297949E+02  0.65422384633E+02  0.00000000000E+00 0. -1.
        -14    1    6    6    0    0 -0.26121876074E+03 -0.85170885944E+02  0.23620727263E+03  0.36233023117E+03  0.00000000000E+00 0.  1.
<mgrwt>
<rscale>  2 0.43700889E+03</rscale>
<asrwt>0</asrwt>
<pdfrwt beam="1">  1       21 0.73678739E-01 0.43749781E+03</pdfrwt>
<pdfrwt beam="2">  1       21 0.12174163E+00 0.43749781E+03</pdfrwt>
<totfact> 0.71402695E+02</totfact>
</mgrwt>
</event>
<event>
12    1  0.1013215E-001  0.2073246E+03  0.7546771E-02  0.1146032E+00
         21   -1    0    0  501  502  0.00000000000E+00  0.00000000000E+00  0.15363940546E+03  0.15363940546E+03  0.00000000000E+00 0.  1.
         21   -1    0    0  502  503 -0.00000000000E+00 -0.00000000000E+00 -0.34891579376E+03  0.34891579376E+03  0.00000000000E+00 0. -1.
         -6    2    1    2    0  503 -0.20874623264E+02  0.11329296020E+03 -0.22303095199E+03  0.30450994841E+03  0.17237302111E+03 0.  0.
        -24    2    3    3    0    0  0.12608300394E+01  0.14207345185E+03 -0.14930546698E+03  0.22219450556E+03  0.83016988728E+02 0.  0.
          6    2    1    2  501    0  0.20874623264E+02 -0.11329296020E+03  0.27754563684E+02  0.19804525080E+03  0.15868383923E+03 0.  0.
         24    2    5    5    0    0  0.40061974345E+02 -0.10264359782E+03  0.68104807742E+02  0.15187387920E+03  0.79288967596E+02 0.  0.
          5    1    5    5  501    0 -0.19187351081E+02 -0.10649362384E+02 -0.40350244058E+02  0.46171371608E+02  0.47000000000E+01 0. -1.
        -11    1    6    6    0    0  0.10192684553E+02 -0.50118036462E+01  0.46037102075E+02  0.47417546981E+02  0.00000000000E+00 0.  1.
         12    1    6    6    0    0  0.29869289792E+02 -0.97631794175E+02  0.22067705666E+02  0.10445633222E+03  0.00000000000E+00 0. -1.
         -5    1    3    3    0  503 -0.22135453304E+02 -0.28780491643E+02 -0.73725485010E+02  0.82315442853E+02  0.47000000000E+01 0.  1.
         13    1    4    4    0    0  0.14160476741E+02 -0.17736816032E+01  0.26951332466E+00  0.14273671055E+02  0.00000000000E+00 0. -1.
        -14    1    4    4    0    0 -0.12899646701E+02  0.14384713345E+03 -0.14957498030E+03  0.20792083450E+03  0.00000000000E+00 0.  1.
<mgrwt>
<rscale>  2 0.20445724E+03</rscale>
<asrwt>0</asrwt>
<pdfrwt beam="1">  1       21 0.23636832E-01 0.20732463E+03</pdfrwt>
<pdfrwt beam="2">  1       21 0.53679352E-01 0.20732463E+03</pdfrwt>
<totfact> 0.54950707E+04</totfact>
</mgrwt>
</event>
<event>
12    1  0.1013215E-001  0.2297975E+03  0.7546771E-02  0.1126949E+00
         21   -1    0    0  503  502  0.00000000000E+00  0.00000000000E+00  0.84056483563E+02  0.84056483563E+02  0.00000000000E+00 0.  1.
         21   -1    0    0  501  503 -0.00000000000E+00 -0.00000000000E+00 -0.11487230902E+04  0.11487230902E+04  0.00000000000E+00 0. -1.
          6    2    1    2  501    0  0.40172614788E+02 -0.14465192155E+03 -0.94886436328E+03  0.97629425608E+03  0.17397953083E+03 0.  0.
         24    2    3    3    0    0  0.69328553092E+02 -0.73130873435E+02 -0.78030000587E+03  0.79081821543E+03  0.79817152151E+02 0.  0.
         -6    2    1    2    0  502 -0.40172614788E+02  0.14465192155E+03 -0.11580224339E+03  0.25648531773E+03  0.17273257148E+03 0.  0.
        -24    2    5    5    0    0 -0.89107899662E+02  0.68063616100E+02 -0.62239023053E+02  0.15088446920E+03  0.79495618974E+02 0.  0.
          5    1    3    3  501    0 -0.29155938304E+02 -0.71521048113E+02 -0.16856435742E+03  0.18547604064E+03  0.47000000000E+01 0. -1.
        -13    1    4    4    0    0  0.17630217866E+02 -0.38998186910E+02 -0.56944616921E+03  0.57105220671E+03  0.00000000000E+00 0.  1.
         14    1    4    4    0    0  0.51698335226E+02 -0.34132686525E+02 -0.21085383666E+03  0.21976600872E+03  0.00000000000E+00 0. -1.
         -5    1    5    5    0  502  0.48935284873E+02  0.76588305448E+02 -0.53563220340E+02  0.10560084853E+03  0.47000000000E+01 0.  1.
         11    1    6    6    0    0 -0.46581665458E+02  0.39681399918E+01 -0.57094007328E+02  0.73792434332E+02  0.00000000000E+00 0. -1.
        -12    1    6    6    0    0 -0.42526234203E+02  0.64095476108E+02 -0.51450157248E+01  0.77092034867E+02  0.00000000000E+00 0.  1.
<mgrwt>
<rscale>  2 0.22956149E+03</rscale>
<asrwt>0</asrwt>
<pdfrwt beam="1">  1       21 0.12931767E-01 0.22979751E+03</pdfrwt>
<pdfrwt beam="2">  1       21 0.17672662E+00 0.22979751E+03</pdfrwt>
<totfact> 0.95578939E+03</totfact>
</mgrwt>
</event>
<event>
12    1  0.1013215E-001  0.1877016E+03  0.7546771E-02  0.1161063E+00
         21   -1    0    0  501  502  0.00000000000E+00  0.00000000000E+00  0.63960615057E+02  0.63960615057E+02  0.00000000000E+00 0. -1.
         21   -1    0    0  502  503 -0.00000000000E+00 -0.00000000000E+00 -0.90907365724E+03  0.90907365724E+03  0.00000000000E+00 0. -1.
         -6    2    1    2    0  503  0.80772847280E+01 -0.66407923921E+02 -0.73222455179E+03  0.75589992701E+03  0.17537574097E+03 0.  0.
        -24    2    3    3    0    0  0.35540649935E+02 -0.86775925411E+02 -0.33593524261E+03  0.35811053740E+03  0.81224816046E+02 0.  0.
          6    2    1    2  501    0 -0.80772847280E+01  0.66407923921E+02 -0.11288849039E+03  0.21713434528E+03  0.17299785476E+03 0.  0.
         24    2    5    5    0    0  0.27634912718E+02 -0.10803283273E+02 -0.10043499259E+03  0.13102911217E+03  0.78746689889E+02 0.  0.
          5    1    5    5  501    0 -0.35712197446E+02  0.77211207194E+02 -0.12453497799E+02  0.86105233117E+02  0.47000000000E+01 0. -1.
        -11    1    6    6    0    0 -0.95756366989E+01  0.22139470548E+02 -0.66793877784E+02  0.71015991746E+02  0.00000000000E+00 0.  1.
         12    1    6    6    0    0  0.37210549417E+02 -0.32942753821E+02 -0.33641114804E+02  0.60013120420E+02  0.00000000000E+00 0. -1.
         -5    1    3    3    0  503 -0.27463365207E+02  0.20368001491E+02 -0.39628930919E+03  0.39778938961E+03  0.47000000000E+01 0.  1.
         13    1    4    4    0    0  0.52924364163E+02 -0.22602520765E+02 -0.15939090022E+03  0.16946185807E+03  0.00000000000E+00 0. -1.
        -14    1    4    4    0    0 -0.17383714228E+02 -0.64173404646E+02 -0.17654434238E+03  0.18864867932E+03  0.00000000000E+00 0.  1.
<mgrwt>
<rscale>  2 0.18714421E+03</rscale>
<asrwt>0</asrwt>
<pdfrwt beam="1">  1       21 0.98400948E-02 0.18770164E+03</pdfrwt>
<pdfrwt beam="2">  1       21 0.13985748E+00 0.18770164E+03</pdfrwt>
<totfact> 0.30043041E+04</totfact>
</mgrwt>
</event>
<event>
12    1  0.1013215E-001  0.2093133E+03  0.7546771E-02  0.1144275E+00
         21   -1    0    0  503  502  0.00000000000E+00  0.00000000000E+00  0.95895312509E+02  0.95895312509E+02  0.00000000000E+00 0.  1.
         21   -1    0    0  501  503 -0.00000000000E+00 -0.00000000000E+00 -0.57675075993E+03  0.57675075993E+03  0.00000000000E+00 0.  1.
          6    2    1    2  501    0 -0.70369299583E+02 -0.68494936750E+02 -0.41236709062E+03  0.46244855711E+03  0.18484765583E+03 0.  0.
         24    2    3    3    0    0 -0.47427621772E+02  0.18681144306E+02 -0.11233732015E+03  0.14913410987E+03  0.83803011677E+02 0.  0.
         -6    2    1    2    0  502  0.70369299583E+02  0.68494936750E+02 -0.68488356804E+02  0.21019751533E+03  0.17276847440E+03 0.  0.
        -24    2    5    5    0    0  0.22336497739E+02  0.15821982428E+02  0.26673279424E+02  0.91204166019E+02  0.82809913687E+02 0.  0.
          5    1    3    3  501    0 -0.22941677811E+02 -0.87176081056E+02 -0.30002977046E+03  0.31331444725E+03  0.47000000000E+01 0. -1.
        -13    1    4    4    0    0 -0.23565201396E+02 -0.32935590832E+02 -0.37943750202E+02  0.55495946156E+02  0.00000000000E+00 0.  1.
         14    1    4    4    0    0 -0.23862420376E+02  0.51616735139E+02 -0.74393569953E+02  0.93638163710E+02  0.00000000000E+00 0. -1.
         -5    1    5    5    0  502  0.48032801844E+02  0.52672954322E+02 -0.95161636229E+02  0.11899334931E+03  0.47000000000E+01 0.  1.
         11    1    6    6    0    0  0.26730825207E+01 -0.28777723225E+02 -0.95911128091E+01  0.30451472363E+02  0.00000000000E+00 0. -1.
        -12    1    6    6    0    0  0.19663415218E+02  0.44599705653E+02  0.36264392234E+02  0.60752693656E+02  0.00000000000E+00 0.  1.
<mgrwt>
<rscale>  2 0.20661493E+03</rscale>
<asrwt>0</asrwt>
<pdfrwt beam="1">  1       21 0.14753125E-01 0.20931328E+03</pdfrwt>
<pdfrwt beam="2">  1       21 0.88730884E-01 0.20931328E+03</pdfrwt>
<totfact> 0.43517121E+04</totfact>
</mgrwt>
</event>
<event>
12    1  0.1013215E-001  0.2109701E+03  0.7546771E-02  0.1141073E+00
         21   -1    0    0  503  502  0.00000000000E+00  0.00000000000E+00  0.54597475864E+03  0.54597475864E+03  0.00000000000E+00 0.  1.
         21   -1    0    0  501  503 -0.00000000000E+00 -0.00000000000E+00 -0.86381750302E+02  0.86381750302E+02  0.00000000000E+00 0. -1.
          6    2    1    2  501    0 -0.51971351901E+02 -0.10798063494E+03  0.15149831773E+03  0.25973087414E+03  0.17363049204E+03 0.  0.
         24    2    3    3    0    0 -0.49703192406E+02 -0.14158712865E+03  0.98407148321E+02  0.19668086830E+03  0.80511333232E+02 0.  0.
         -6    2    1    2    0  502  0.51971351901E+02  0.10798063494E+03  0.30809469061E+03  0.37262563480E+03  0.17194966238E+03 0.  0.
        -24    2    5    5    0    0  0.82438217729E+02  0.21174081202E+02  0.17447814525E+03  0.21033244678E+03  0.80948832864E+02 0.  0.
          5    1    3    3  501    0 -0.22681594953E+01  0.33606493712E+02  0.53091169409E+02  0.63050005839E+02  0.47000000000E+01 0. -1.
        -13    1    4    4    0    0 -0.44028014920E+02 -0.51775497845E+02  0.79740331993E+02  0.10477446646E+03  0.00000000000E+00 0.  1.
         14    1    4    4    0    0 -0.56751774859E+01 -0.89811630806E+02  0.18666816327E+02  0.91906401841E+02  0.00000000000E+00 0. -1.
         -5    1    5    5    0  502 -0.30466865828E+02  0.86806553737E+02  0.13361654535E+03  0.16229318802E+03  0.47000000000E+01 0.  1.
         11    1    6    6    0    0  0.42760213471E+02  0.51724653212E+02  0.10695695371E+03  0.12626822859E+03  0.00000000000E+00 0. -1.
        -12    1    6    6    0    0  0.39678004258E+02 -0.30550572010E+02  0.67521191546E+02  0.84064218190E+02  0.00000000000E+00 0.  1.
<mgrwt>
<rscale>  2 0.21062397E+03</rscale>
<asrwt>0</asrwt>
<pdfrwt beam="1">  1       21 0.83996115E-01 0.21097011E+03</pdfrwt>
<pdfrwt beam="2">  1       21 0.13289500E-01 0.21097011E+03</pdfrwt>
<totfact> 0.59627104E+04</totfact>
</mgrwt>
</event>
<event>
12    1  0.1013215E-001  0.1761027E+03  0.7546771E-02  0.1172071E+00
         21   -1    0    0  503  502  0.00000000000E+00  0.00000000000E+00  0.60326032299E+03  0.60326032299E+03  0.00000000000E+00 0.  1.
         21   -1    0    0  501  503 -0.00000000000E+00 -0.00000000000E+00 -0.96843357495E+02  0.96843357495E+02  0.00000000000E+00 0.  1.
          6    2    1    2  501    0 -0.24116717153E+02 -0.82851598444E+01  0.11416588672E+02  0.17471093236E+03  0.17246249293E+03 0.  0.
         24    2    3    3    0    0  0.20373672836E+02  0.37319832694E+02 -0.31714382800E+02  0.97629281846E+02  0.81962297066E+02 0.  0.
         -6    2    1    2    0  502  0.24116717153E+02  0.82851598444E+01  0.49500037683E+03  0.52539274813E+03  0.17424668378E+03 0.  0.
        -24    2    5    5    0    0  0.43488214354E+02 -0.44729876884E+02  0.40636143010E+03  0.42020338602E+03  0.86886633499E+02 0.  0.
          5    1    3    3  501    0 -0.44490389989E+02 -0.45604992538E+02  0.43130971472E+02  0.77081650513E+02  0.47000000000E+01 0. -1.
        -13    1    4    4    0    0 -0.21034595622E+02  0.37169333630E+02 -0.36189793665E+02  0.55979592183E+02  0.00000000000E+00 0.  1.
         14    1    4    4    0    0  0.41408268458E+02  0.15049906387E+00  0.44754108649E+01  0.41649689663E+02  0.00000000000E+00 0. -1.
         -5    1    5    5    0  502 -0.19371497201E+02  0.53015036728E+02  0.88638946728E+02  0.10518936211E+03  0.47000000000E+01 0.  1.
         13    1    6    6    0    0 -0.95442349538E+01  0.18861539453E+02  0.12987848900E+03  0.13158750699E+03  0.00000000000E+00 0. -1.
        -14    1    6    6    0    0  0.53032449308E+02 -0.63591416336E+02  0.27648294110E+03  0.28861587904E+03  0.00000000000E+00 0.  1.
<mgrwt>
<rscale>  2 0.17565975E+03</rscale>
<asrwt>0</asrwt>
<pdfrwt beam="1">  1       21 0.92809278E-01 0.17610272E+03</pdfrwt>
<pdfrwt beam="2">  1       21 0.14898979E-01 0.17610272E+03</pdfrwt>
<totfact> 0.39190604E+04</totfact>
</mgrwt>
</event>
<event>
12    1  0.1013215E-001  0.1918191E+03  0.7546771E-02  0.1159455E+00
         21   -1    0    0  503  502  0.00000000000E+00  0.00000000000E+00  0.64810846956E+03  0.64810846956E+03  0.00000000000E+00 0. -1.
         21   -1    0    0  501  503 -0.00000000000E+00 -0.00000000000E+00 -0.54051135623E+02  0.54051135623E+02  0.00000000000E+00 0. -1.
          6    2    1    2  501    0  0.33480555205E+02  0.52409795123E+02  0.34310576430E+03  0.39308540087E+03  0.18145752306E+03 0.  0.
         24    2    3    3    0    0  0.90870715248E+02  0.51193125414E+02  0.20920619529E+03  0.24732431094E+03  0.80770413242E+02 0.  0.
         -6    2    1    2    0  502 -0.33480555205E+02 -0.52409795123E+02  0.25095156963E+03  0.30907420431E+03  0.16935890667E+03 0.  0.
        -24    2    5    5    0    0  0.26593222552E+02  0.18164831570E+02  0.11692670867E+03  0.14605767122E+03  0.81386900233E+02 0.  0.
          5    1    3    3  501    0 -0.57390160043E+02  0.12166697090E+01  0.13389956901E+03  0.14576108993E+03  0.47000000000E+01 0. -1.
        -13    1    4    4    0    0  0.38057147831E+02  0.47090748433E+02  0.46882778066E+02  0.76575975137E+02  0.00000000000E+00 0.  1.
         14    1    4    4    0    0  0.52813567416E+02  0.41023769801E+01  0.16232341722E+03  0.17074833580E+03  0.00000000000E+00 0. -1.
         -5    1    5    5    0  502 -0.60073777757E+02 -0.70574626693E+02  0.13402486096E+03  0.16301653309E+03  0.47000000000E+01 0.  1.
         11    1    6    6    0    0  0.46782864476E+02  0.62927619846E+01  0.29767233188E+02  0.55806123621E+02  0.00000000000E+00 0. -1.
        -12    1    6    6    0    0 -0.20189641923E+02  0.11872069586E+02  0.87159475485E+02  0.90251547599E+02  0.00000000000E+00 0.  1.
<mgrwt>
<rscale>  2 0.18890265E+03</rscale>
<asrwt>0</asrwt>
<pdfrwt beam="1">  1       21 0.99708990E-01 0.19181910E+03</pdfrwt>
<pdfrwt beam="2">  1       21 0.83155598E-02 0.19181910E+03</pdfrwt>
<totfact> 0.92768743E+04</totfact>
</mgrwt>
</event>
<event>
12    1  0.1013215E-001  0.2664912E+03  0.7546771E-02  0.1103327E+00
         21   -1    0    0  501  502  0.00000000000E+00  0.00000000000E+00  0.14364160273E+03  0.14364160273E+03  0.00000000000E+00 0.  1.
         21   -1    0    0  502  503 -0.00000000000E+00 -0.00000000000E+00 -0.50444852516E+03  0.50444852516E+03  0.00000000000E+00 0. -1.
         -6    2    1    2    0  503  0.19908410196E+03  0.36828749982E+02 -0.13399243286E+03  0.29814390689E+03  0.17304618077E+03 0.  0.
        -24    2    3    3    0    0  0.17861377545E+03  0.83442693492E+02 -0.12224779467E+03  0.24568515621E+03  0.80938920204E+02 0.  0.
          6    2    1    2  501    0 -0.19908410196E+03 -0.36828749982E+02 -0.22681448957E+03  0.34994622099E+03  0.17328216419E+03 0.  0.
         24    2    5    5    0    0 -0.29718365059E+02 -0.26029570233E+02 -0.41434312596E+02  0.98571450707E+02  0.80242188940E+02 0.  0.
          5    1    5    5  501    0 -0.16936573690E+03 -0.10799179749E+02 -0.18538017698E+03  0.25137477028E+03  0.47000000000E+01 0. -1.
        -11    1    6    6    0    0 -0.23818408577E+02  0.25585748174E+02 -0.54593868057E+01  0.35380107421E+02  0.00000000000E+00 0.  1.
         12    1    6    6    0    0 -0.58999564819E+01 -0.51615318407E+02 -0.35974925790E+02  0.63191343286E+02  0.00000000000E+00 0. -1.
         -5    1    3    3    0  503  0.20470326508E+02 -0.46613943510E+02 -0.11744638182E+02  0.52458750681E+02  0.47000000000E+01 0.  1.
         11    1    4    4    0    0  0.94741297941E+02  0.71682562514E+02 -0.10647831134E+03  0.15953662304E+03  0.00000000000E+00 0. -1.
        -12    1    4    4    0    0  0.83872477507E+02  0.11760130978E+02 -0.15769483333E+02  0.86148533176E+02  0.00000000000E+00 0.  1.
<mgrwt>
<rscale>  2 0.26645282E+03</rscale>
<asrwt>0</asrwt>
<pdfrwt beam="1">  1       21 0.22098708E-01 0.26649117E+03</pdfrwt>
<pdfrwt beam="2">  1       21 0.77607464E-01 0.26649117E+03</pdfrwt>
<totfact> 0.27165484E+04</totfact>
</mgrwt>
</event>
<event>
12    1  0.1013215E-001  0.2181852E+03  0.7546771E-02  0.1135416E+00
         21   -1    0    0  501  502  0.00000000000E+00  0.00000000000E+00  0.52444604587E+03  0.52444604587E+03  0.00000000000E+00 0.  1.
         21   -1    0    0  502  503 -0.00000000000E+00 -0.00000000000E+00 -0.12615337013E+03  0.12615337013E+03  0.00000000000E+00 0.  1.
         -6    2    1    2    0  503 -0.90318410314E+02 -0.95261406450E+02  0.26247167928E+02  0.21975831284E+03  0.17427751271E+03 0.  0.
        -24    2    3    3    0    0 -0.20155798487E+02  0.10077206244E+01 -0.29551846023E+02  0.88129452463E+02  0.80537054047E+02 0.  0.
          6    2    1    2  501    0  0.90318410314E+02  0.95261406450E+02  0.37204550781E+03  0.43084110316E+03  0.17313014032E+03 0.  0.
         24    2    5    5    0    0  0.81916003342E+01  0.64203727430E+02  0.94729366675E+02  0.13991890655E+03  0.80090115297E+02 0.  0.
          5    1    5    5  501    0  0.82126809980E+02  0.31057679020E+02  0.27731614114E+03  0.29092219661E+03  0.47000000000E+01 0. -1.
        -13    1    6    6    0    0  0.25204369191E+02  0.55845003353E+02  0.10251349885E+03  0.11942755994E+03  0.00000000000E+00 0.  1.
         14    1    6    6    0    0 -0.17012768856E+02  0.83587240770E+01 -0.77841321771E+01  0.20491346615E+02  0.00000000000E+00 0. -1.
         -5    1    3    3    0  503 -0.70162611828E+02 -0.96269127075E+02  0.55799013951E+02  0.13162886038E+03  0.47000000000E+01 0.  1.
         13    1    4    4    0    0  0.74252357419E+01 -0.17915207234E+02  0.20313922126E+02  0.28084590227E+02  0.00000000000E+00 0. -1.
        -14    1    4    4    0    0 -0.27581034229E+02  0.18922927858E+02 -0.49865768149E+02  0.60044862236E+02  0.00000000000E+00 0.  1.
<mgrwt>
<rscale>  2 0.21795604E+03</rscale>
<asrwt>0</asrwt>
<pdfrwt beam="1">  1       21 0.80684006E-01 0.21818525E+03</pdfrwt>
<pdfrwt beam="2">  1       21 0.19408211E-01 0.21818525E+03</pdfrwt>
<totfact> 0.32488114E+04</totfact>
</mgrwt>
</event>
<event>
12    1  0.1013215E-001  0.2120426E+03  0.7546771E-02  0.1139994E+00
         21   -1    0    0  503  502  0.00000000000E+00  0.00000000000E+00  0.11309206180E+04  0.11309206180E+04  0.00000000000E+00 0.  1.
         21   -1    0    0  501  503 -0.00000000000E+00 -0.00000000000E+00 -0.40417959457E+02  0.40417959457E+02  0.00000000000E+00 0.  1.
          6    2    1    2  501    0  0.23037709673E+02 -0.11964298132E+03  0.46868949274E+03  0.51442387513E+03  0.17354222439E+03 0.  0.
         24    2    3    3    0    0  0.58460320970E+02 -0.41192034171E+02  0.15020353254E+03  0.18447735015E+03  0.79727026300E+02 0.  0.
         -6    2    1    2    0  502 -0.23037709673E+02  0.11964298132E+03  0.62181316576E+03  0.65691470229E+03  0.17332089870E+03 0.  0.
        -24    2    5    5    0    0  0.11285854213E+02  0.10331153256E+03  0.59702937900E+03  0.61129508652E+03  0.80230668416E+02 0.  0.
          5    1    3    3  501    0 -0.35422611296E+02 -0.78450947148E+02  0.31848596020E+03  0.32994652498E+03  0.47000000000E+01 0. -1.
        -11    1    4    4    0    0  0.22992063621E+02 -0.58663155431E+02  0.11682917001E+03  0.13273679128E+03  0.00000000000E+00 0.  1.
         12    1    4    4    0    0  0.35468257349E+02  0.17471121260E+02  0.33374362533E+02  0.51740558867E+02  0.00000000000E+00 0. -1.
         -5    1    5    5    0  502 -0.34323563887E+02  0.16331448763E+02  0.24783786760E+02  0.45619615767E+02  0.47000000000E+01 0.  1.
         11    1    6    6    0    0 -0.27703297503E+02  0.44855464160E+02  0.15512190345E+03  0.16383616904E+03  0.00000000000E+00 0. -1.
        -12    1    6    6    0    0  0.38989151716E+02  0.58456068396E+02  0.44190747555E+03  0.44745891748E+03  0.00000000000E+00 0.  1.
<mgrwt>
<rscale>  2 0.21199735E+03</rscale>
<asrwt>0</asrwt>
<pdfrwt beam="1">  1       21 0.17398776E+00 0.21204264E+03</pdfrwt>
<pdfrwt beam="2">  1       21 0.62181485E-02 0.21204264E+03</pdfrwt>
<totfact> 0.36668067E+04</totfact>
</mgrwt>
</event>
<event>
12    1  0.1013215E-001  0.2248529E+03  0.7546771E-02  0.1130577E+00
         21   -1    0    0  503  502  0.00000000000E+00  0.00000000000E+00  0.18470690770E+03  0.18470690770E+03  0.00000000000E+00 0. -1.
         21   -1    0    0  501  503 -0.00000000000E+00 -0.00000000000E+00 -0.50108768655E+03  0.50108768655E+03  0.00000000000E+00 0. -1.
          6    2    1    2  501    0 -0.80259360518E+02  0.11881360509E+03 -0.38977658345E+03  0.44926601013E+03  0.17133570892E+03 0.  0.
         24    2    3    3    0    0 -0.16246284338E+02 -0.38746258544E+01 -0.17273015259E+03  0.19181442423E+03  0.81719723749E+02 0.  0.
         -6    2    1    2    0  502  0.80259360518E+02 -0.11881360509E+03  0.73395804600E+02  0.23652858412E+03  0.17320678182E+03 0.  0.
        -24    2    5    5    0    0 -0.18900011758E+02 -0.74124719642E+02  0.60862691537E+02  0.12694370143E+03  0.80986119823E+02 0.  0.
          5    1    3    3  501    0 -0.64013076180E+02  0.12268823094E+03 -0.21704643086E+03  0.25745158590E+03  0.47000000000E+01 0. -1.
        -13    1    4    4    0    0 -0.39299770953E+02 -0.12032808545E+01 -0.36588419292E+02  0.53708773101E+02  0.00000000000E+00 0.  1.
         14    1    4    4    0    0  0.23053486614E+02 -0.26713449999E+01 -0.13614173329E+03  0.13810565113E+03  0.00000000000E+00 0. -1.
         -5    1    5    5    0  502  0.99159372276E+02 -0.44688885444E+02  0.12533113063E+02  0.10958488270E+03  0.47000000000E+01 0.  1.
         13    1    6    6    0    0  0.76587266756E+01 -0.66945082609E+02  0.86613675421E+01  0.67936142572E+02  0.00000000000E+00 0. -1.
        -14    1    6    6    0    0 -0.26558738434E+02 -0.71796370332E+01  0.52201323995E+02  0.59007558854E+02  0.00000000000E+00 0.  1.
<mgrwt>
<rscale>  2 0.22449250E+03</rscale>
<asrwt>0</asrwt>
<pdfrwt beam="1">  1       21 0.28416448E-01 0.22485290E+03</pdfrwt>
<pdfrwt beam="2">  1       21 0.77090412E-01 0.22485290E+03</pdfrwt>
<totfact> 0.17363225E+04</totfact>
</mgrwt>
</event>
<event>
12    1  0.1013215E-001  0.1931164E+03  0.7546771E-02  0.1159476E+00
         21   -1    0    0  503  502  0.00000000000E+00  0.00000000000E+00  0.55545585193E+03  0.55545585193E+03  0.00000000000E+00 0. -1.
         21   -1    0    0  501  503 -0.00000000000E+00 -0.00000000000E+00 -0.12395335063E+03  0.12395335063E+03  0.00000000000E+00 0. -1.
          6    2    1    2  501    0 -0.25673415862E+02  0.67312160356E+02 -0.29894880458E+02  0.17922773430E+03  0.16136550329E+03 0.  0.
         24    2    3    3    0    0 -0.55190410496E+02  0.16868346653E+01 -0.36008643603E+02  0.10685782036E+03  0.84101988894E+02 0.  0.
         -6    2    1    2    0  502  0.25673415862E+02 -0.67312160356E+02  0.46139738176E+03  0.50018146825E+03  0.17917562913E+03 0.  0.
        -24    2    5    5    0    0 -0.46577631697E+02 -0.66657985026E+02  0.21717723659E+03  0.24545374867E+03  0.80429023986E+02 0.  0.
          5    1    3    3  501    0  0.29516994634E+02  0.65625325691E+02  0.61137631451E+01  0.72369913942E+02  0.47000000000E+01 0. -1.
        -11    1    4    4    0    0 -0.56964676260E+02  0.34819636249E+02 -0.29751860373E+02  0.73092780804E+02  0.00000000000E+00 0.  1.
         12    1    4    4    0    0  0.17742657637E+01 -0.33132801584E+02 -0.62567832294E+01  0.33765039556E+02  0.00000000000E+00 0. -1.
         -5    1    5    5    0  502  0.72251047559E+02 -0.65417532993E+00  0.24422014517E+03  0.25472771958E+03  0.47000000000E+01 0.  1.
         11    1    6    6    0    0 -0.44861147648E+02 -0.30477522472E+01  0.12975358926E+03  0.13732372442E+03  0.00000000000E+00 0. -1.
        -12    1    6    6    0    0 -0.17164840484E+01 -0.63610232779E+02  0.87423647334E+02  0.10813002425E+03  0.00000000000E+00 0.  1.
<mgrwt>
<rscale>  2 0.18887913E+03</rscale>
<asrwt>0</asrwt>
<pdfrwt beam="1">  1       21 0.85454745E-01 0.19311643E+03</pdfrwt>
<pdfrwt beam="2">  1       21 0.19069747E-01 0.19311643E+03</pdfrwt>
<totfact> 0.29854481E+04</totfact>
</mgrwt>
</event>
<event>
12    1  0.1013215E-001  0.1859965E+03  0.7546771E-02  0.1162673E+00
         21   -1    0    0  501  502  0.00000000000E+00  0.00000000000E+00  0.26328100030E+03  0.26328100030E+03  0.00000000000E+00 0.  1.
         21   -1    0    0  502  503 -0.00000000000E+00 -0.00000000000E+00 -0.15089577366E+03  0.15089577366E+03  0.00000000000E+00 0.  1.
         -6    2    1    2    0  503 -0.49018081590E+02 -0.46268955717E+02 -0.21657617739E+02  0.18491236744E+03  0.17082137641E+03 0.  0.
        -24    2    3    3    0    0 -0.68589399129E+02  0.22406421741E+02 -0.35081544028E+02  0.11210003513E+03  0.78288886415E+02 0.  0.
          6    2    1    2  501    0  0.49018081590E+02  0.46268955717E+02  0.13404284438E+03  0.22926440653E+03  0.17335251767E+03 0.  0.
         24    2    5    5    0    0  0.13719463142E+02  0.25164032702E+02  0.16016924239E+03  0.18031454531E+03  0.77702617931E+02 0.  0.
          5    1    5    5  501    0  0.35298618448E+02  0.21104923016E+02 -0.26126398008E+02  0.48949861212E+02  0.47000000000E+01 0. -1.
        -13    1    6    6    0    0  0.45292321201E+02  0.23398374390E+02  0.10511767898E+03  0.11682724305E+03  0.00000000000E+00 0.  1.
         14    1    6    6    0    0 -0.31572858059E+02  0.17656583119E+01  0.55051563408E+02  0.63487302265E+02  0.00000000000E+00 0. -1.
         -5    1    3    3    0  503  0.19571317538E+02 -0.68675377459E+02  0.13423926288E+02  0.72812332309E+02  0.47000000000E+01 0.  1.
         13    1    4    4    0    0 -0.89920617551E+01  0.23353446414E+02  0.19153592428E+02  0.31513500867E+02  0.00000000000E+00 0. -1.
        -14    1    4    4    0    0 -0.59597337373E+02 -0.94702467299E+00 -0.54235136455E+02  0.80586534260E+02  0.00000000000E+00 0.  1.
<mgrwt>
<rscale>  2 0.18540445E+03</rscale>
<asrwt>0</asrwt>
<pdfrwt beam="1">  1       21 0.40504769E-01 0.18599646E+03</pdfrwt>
<pdfrwt beam="2">  1       21 0.23214734E-01 0.18599646E+03</pdfrwt>
<totfact> 0.10266601E+05</totfact>
</mgrwt>
</event>
<event>
12    1  0.1013215E-001  0.1761664E+03  0.7546771E-02  0.1171700E+00
         21   -1    0    0  503  502  0.00000000000E+00  0.00000000000E+00  0.17932440580E+03  0.17932440580E+03  0.00000000000E+00 0. -1.
         21   -1    0    0  501  503 -0.00000000000E+00 -0.00000000000E+00 -0.18106185633E+03  0.18106185633E+03  0.00000000000E+00 0. -1.
          6    2    1    2  501    0 -0.15803095777E+02 -0.24415899172E+02 -0.39975856465E+02  0.18011762711E+03  0.17320050960E+03 0.  0.
         24    2    3    3    0    0 -0.46088189320E+02 -0.60629059339E+02  0.10073164043E+02  0.11115695488E+03  0.80339255368E+02 0.  0.
         -6    2    1    2    0  502  0.15803095777E+02  0.24415899172E+02  0.38238405931E+02  0.18026863502E+03  0.17374904637E+03 0.  0.
        -24    2    5    5    0    0  0.46815504123E+02  0.57214836631E+02 -0.69173055699E+01  0.11624779427E+03  0.89445355376E+02 0.  0.
          5    1    3    3  501    0  0.30285093543E+02  0.36213160166E+02 -0.50049020508E+02  0.68960672227E+02  0.47000000000E+01 0. -1.
        -11    1    4    4    0    0 -0.40568909759E+01 -0.36120711477E+02  0.39989966854E+02  0.54040370196E+02  0.00000000000E+00 0.  1.
         12    1    4    4    0    0 -0.42031298344E+02 -0.24508347862E+02 -0.29916802811E+02  0.57116584683E+02  0.00000000000E+00 0. -1.
         -5    1    5    5    0  502 -0.31012408347E+02 -0.32798937458E+02  0.45155711501E+02  0.64020840755E+02  0.47000000000E+01 0.  1.
         11    1    6    6    0    0  0.64682533131E+02  0.13582240782E+02  0.85104147636E+01  0.66638836397E+02  0.00000000000E+00 0. -1.
        -12    1    6    6    0    0 -0.17867029008E+02  0.43632595849E+02 -0.15427720334E+02  0.49608957868E+02  0.00000000000E+00 0.  1.
<mgrwt>
<rscale>  2 0.17603101E+03</rscale>
<asrwt>0</asrwt>
<pdfrwt beam="1">  1       21 0.27588370E-01 0.17616641E+03</pdfrwt>
<pdfrwt beam="2">  1       21 0.27855670E-01 0.17616641E+03</pdfrwt>
<totfact> 0.15509237E+05</totfact>
</mgrwt>
</event>
<event>
12    1  0.1013215E-001  0.2195869E+03  0.7546771E-02  0.1136709E+00
         21   -1    0    0  501  502  0.00000000000E+00  0.00000000000E+00  0.38348733848E+03  0.38348733848E+03  0.00000000000E+00 0.  1.
         21   -1    0    0  502  503 -0.00000000000E+00 -0.00000000000E+00 -0.21265476403E+03  0.21265476403E+03  0.00000000000E+00 0.  1.
         -6    2    1    2    0  503 -0.29094025480E+02  0.11189784578E+03 -0.11154092936E+03  0.24629211731E+03  0.18668379125E+03 0.  0.
        -24    2    3    3    0    0 -0.55038934525E+02  0.28383974917E+02  0.39215363760E+01  0.10137360253E+03  0.80164172147E+02 0.  0.
          6    2    1    2  501    0  0.29094025480E+02 -0.11189784578E+03  0.28237350381E+03  0.34984998520E+03  0.17115088746E+03 0.  0.
         24    2    5    5    0    0 -0.34594552019E+02 -0.85801173939E+02  0.11088205226E+03  0.16500226641E+03  0.79826649234E+02 0.  0.
          5    1    5    5  501    0  0.63688577499E+02 -0.26096671843E+02  0.17149145156E+03  0.18484771879E+03  0.47000000000E+01 0. -1.
        -11    1    6    6    0    0  0.66664076808E+01 -0.50047427555E+02  0.95913399995E+02  0.10839080355E+03  0.00000000000E+00 0.  1.
         12    1    6    6    0    0 -0.41260959700E+02 -0.35753746383E+02  0.14968652261E+02  0.56611462853E+02  0.00000000000E+00 0. -1.
         -5    1    3    3    0  503  0.25944909046E+02  0.83513870865E+02 -0.11546246574E+03  0.14491851478E+03  0.47000000000E+01 0.  1.
         13    1    4    4    0    0 -0.46107306175E+02 -0.21280682818E+02  0.29804504144E+00  0.50782280126E+02  0.00000000000E+00 0. -1.
        -14    1    4    4    0    0 -0.89316283498E+01  0.49664657735E+02  0.36234913346E+01  0.50591322401E+02  0.00000000000E+00 0.  1.
<mgrwt>
<rscale>  2 0.21625083E+03</rscale>
<asrwt>0</asrwt>
<pdfrwt beam="1">  1       21 0.58998052E-01 0.21958695E+03</pdfrwt>
<pdfrwt beam="2">  1       21 0.32716117E-01 0.21958695E+03</pdfrwt>
<totfact> 0.23793776E+04</totfact>
</mgrwt>
</event>
<event>
12    1  0.1013215E-001  0.1790867E+03  0.7546771E-02  0.1169130E+00
         21   -1    0    0  501  502  0.00000000000E+00  0.00000000000E+00  0.13563402598E+03  0.13563402598E+03  0.00000000000E+00 0.  1.
         21   -1    0    0  502  503 -0.00000000000E+00 -0.00000000000E+00 -0.34633790910E+03  0.34633790910E+03  0.00000000000E+00 0.  1.
         -6    2    1    2    0  503 -0.23038503818E+00  0.44768452157E+02 -0.24218210894E+03  0.30013984284E+03  0.17154440819E+03 0.  0.
        -24    2    3    3    0    0 -0.43316729154E+02  0.57399102127E+02 -0.88437289552E+02  0.13990399836E+03  0.81123231096E+02 0.  0.
          6    2    1    2  501    0  0.23038503818E+00 -0.44768452157E+02  0.31478225829E+02  0.18183209224E+03  0.17340058731E+03 0.  0.
         24    2    5    5    0    0 -0.20829216303E+02 -0.89898462059E+02  0.59387790579E+02  0.12454982267E+03  0.58908054840E+02 0.  0.
          5    1    5    5  501    0  0.21059601341E+02  0.45130009902E+02 -0.27909564750E+02  0.57282269569E+02  0.47000000000E+01 0. -1.
        -11    1    6    6    0    0 -0.17731742994E+02 -0.74466088331E+02  0.71455243901E+02  0.10471611577E+03  0.00000000000E+00 0.  1.
         12    1    6    6    0    0 -0.30974733088E+01 -0.15432373728E+02 -0.12067453321E+02  0.19833706901E+02  0.00000000000E+00 0. -1.
         -5    1    3    3    0  503  0.43086344116E+02 -0.12630649971E+02 -0.15374481939E+03  0.16023584448E+03  0.47000000000E+01 0.  1.
         13    1    4    4    0    0  0.97040060408E+01 -0.68166263964E+01 -0.43885849343E+02  0.45459893326E+02  0.00000000000E+00 0. -1.
        -14    1    4    4    0    0 -0.53020735195E+02  0.64215728524E+02 -0.44551440209E+02  0.94444105032E+02  0.00000000000E+00 0.  1.
<mgrwt>
<rscale>  2 0.17863580E+03</rscale>
<asrwt>0</asrwt>
<pdfrwt beam="1">  1       21 0.20866773E-01 0.17908666E+03</pdfrwt>
<pdfrwt beam="2">  1       21 0.53282756E-01 0.17908666E+03</pdfrwt>
<totfact> 0.71519831E+04</totfact>
</mgrwt>
</event>
<event>
12    1  0.1013215E-001  0.1800427E+03  0.7546771E-02  0.1168784E+00
         21   -1    0    0  501  502  0.00000000000E+00  0.00000000000E+00  0.18079471008E+03  0.18079471008E+03  0.00000000000E+00 0.  1.
         21   -1    0    0  502  503 -0.00000000000E+00 -0.00000000000E+00 -0.45412887772E+03  0.45412887772E+03  0.00000000000E+00 0.  1.
         -6    2    1    2    0  503  0.10243683502E+02  0.28482420480E+02 -0.38485881796E+03  0.42313805200E+03  0.17324352790E+03 0.  0.
        -24    2    3    3    0    0 -0.13608893307E+02  0.44958964954E+02 -0.38286465971E+03  0.39370187349E+03  0.78799156261E+02 0.  0.
          6    2    1    2  501    0 -0.10243683502E+02 -0.28482420480E+02  0.11152465032E+03  0.21178553579E+03  0.17748009526E+03 0.  0.
         24    2    5    5    0    0  0.60680875223E+01  0.82700198856E+01 -0.96188344076E+01  0.84056722917E+02  0.82872165273E+02 0.  0.
          5    1    5    5  501    0 -0.16311771024E+02 -0.36752440366E+02  0.12114348473E+03  0.12772881288E+03  0.47000000000E+01 0. -1.
        -11    1    6    6    0    0 -0.23480403697E+02  0.28968910583E+02  0.15198308829E+02  0.40268048493E+02  0.00000000000E+00 0.  1.
         12    1    6    6    0    0  0.29548491219E+02 -0.20698890698E+02 -0.24817143236E+02  0.43788674424E+02  0.00000000000E+00 0. -1.
         -5    1    3    3    0  503  0.23852576809E+02 -0.16476544473E+02 -0.19941582511E+01  0.29436178511E+02  0.47000000000E+01 0.  1.
         11    1    4    4    0    0 -0.57719614224E+01  0.63687691684E+02 -0.20656874532E+03  0.21624080131E+03  0.00000000000E+00 0. -1.
        -12    1    4    4    0    0 -0.78369318844E+01 -0.18728726730E+02 -0.17629591439E+03  0.17746107218E+03  0.00000000000E+00 0.  1.
<mgrwt>
<rscale>  2 0.17898977E+03</rscale>
<asrwt>0</asrwt>
<pdfrwt beam="1">  1       21 0.27814571E-01 0.18004268E+03</pdfrwt>
<pdfrwt beam="2">  1       21 0.69865981E-01 0.18004268E+03</pdfrwt>
<totfact> 0.23132554E+04</totfact>
</mgrwt>
</event>
<event>
12    1  0.1013215E-001  0.1994197E+03  0.7546771E-02  0.1150526E+00
         21   -1    0    0  501  502  0.00000000000E+00  0.00000000000E+00  0.12303199644E+03  0.12303199644E+03  0.00000000000E+00 0. -1.
         21   -1    0    0  502  503 -0.00000000000E+00 -0.00000000000E+00 -0.49008157236E+03  0.49008157236E+03  0.00000000000E+00 0.  1.
         -6    2    1    2    0  503  0.35388818380E+01  0.10098580498E+03 -0.36317704211E+03  0.41365622401E+03  0.17030340939E+03 0.  0.
        -24    2    3    3    0    0 -0.36733024620E+02  0.10080535132E+03 -0.17124004662E+03  0.21748344493E+03  0.80404361189E+02 0.  0.
          6    2    1    2  501    0 -0.35388818380E+01 -0.10098580498E+03 -0.38725338095E+01  0.19945734479E+03  0.17192317872E+03 0.  0.
         24    2    5    5    0    0  0.10659691881E+02 -0.13755106120E+03 -0.17294300227E+02  0.15773383496E+03  0.74477824911E+02 0.  0.
          5    1    5    5  501    0 -0.14198573719E+02  0.36565256225E+02  0.13421766417E+02  0.41723509826E+02  0.47000000000E+01 0. -1.
        -13    1    6    6    0    0 -0.19251187377E+02 -0.81673257269E+02 -0.36502794738E+02  0.91507284912E+02  0.00000000000E+00 0.  1.
         14    1    6    6    0    0  0.29910879258E+02 -0.55877803932E+02  0.19208494511E+02  0.66226550051E+02  0.00000000000E+00 0. -1.
         -5    1    3    3    0  503  0.40271906458E+02  0.18045365646E+00 -0.19193699549E+03  0.19617277908E+03  0.47000000000E+01 0.  1.
         11    1    4    4    0    0 -0.12632274462E+02 -0.10839241942E+02 -0.85751759576E+01  0.18724240082E+02  0.00000000000E+00 0. -1.
        -12    1    4    4    0    0 -0.24100750158E+02  0.11164459326E+03 -0.16266487066E+03  0.19875920485E+03  0.00000000000E+00 0.  1.
<mgrwt>
<rscale>  2 0.19907015E+03</rscale>
<asrwt>0</asrwt>
<pdfrwt beam="1">  1       21 0.18927999E-01 0.19941975E+03</pdfrwt>
<pdfrwt beam="2">  1       21 0.75397165E-01 0.19941975E+03</pdfrwt>
<totfact> 0.40048079E+04</totfact>
</mgrwt>
</event>
<event>
12    1  0.1013215E-001  0.1838096E+03  0.7546771E-02  0.1164244E+00
         21   -1    0    0  503  502  0.00000000000E+00  0.00000000000E+00  0.40223719142E+03  0.40223719142E+03  0.00000000000E+00 0.  1.
         21   -1    0    0  501  503 -0.00000000000E+00 -0.00000000000E+00 -0.93213510423E+02  0.93213510423E+02  0.00000000000E+00 0.  1.
          6    2    1    2  501    0  0.44788305299E+02  0.43834387368E+02  0.23317226277E+03  0.29690952255E+03  0.17279616503E+03 0.  0.
         24    2    3    3    0    0  0.13958548358E+02  0.14371954086E+02  0.24437110037E+03  0.25256977908E+03  0.60604162158E+02 0.  0.
         -6    2    1    2    0  502 -0.44788305299E+02 -0.43834387368E+02  0.75851418223E+02  0.19854117929E+03  0.17244627111E+03 0.  0.
        -24    2    5    5    0    0 -0.13748871774E+02  0.26409199719E+02  0.84579124427E+02  0.12110817072E+03  0.81406900331E+02 0.  0.
          5    1    3    3  501    0  0.30829756941E+02  0.29462433282E+02 -0.11198837597E+02  0.44339743475E+02  0.47000000000E+01 0. -1.
        -11    1    4    4    0    0  0.73464419213E+01 -0.17745514969E+02  0.17256808014E+03  0.17363356759E+03  0.00000000000E+00 0.  1.
         12    1    4    4    0    0  0.66121064369E+01  0.32117469056E+02  0.71803020228E+02  0.78936211487E+02  0.00000000000E+00 0. -1.
         -5    1    5    5    0  502 -0.31039433526E+02 -0.70243587087E+02 -0.87277062040E+01  0.77433008569E+02  0.47000000000E+01 0.  1.
         11    1    6    6    0    0 -0.34586223614E+02 -0.22566409301E+01  0.77599822414E+02  0.84988421158E+02  0.00000000000E+00 0. -1.
        -12    1    6    6    0    0  0.20837351840E+02  0.28665840649E+02  0.69793020128E+01  0.36119749562E+02  0.00000000000E+00 0.  1.
<mgrwt>
<rscale>  2 0.18372730E+03</rscale>
<asrwt>0</asrwt>
<pdfrwt beam="1">  1       21 0.61882644E-01 0.18380958E+03</pdfrwt>
<pdfrwt beam="2">  1       21 0.14340540E-01 0.18380958E+03</pdfrwt>
<totfact> 0.10355133E+05</totfact>
</mgrwt>
</event>
<event>
12    1  0.1013215E-001  0.1889972E+03  0.7546771E-02  0.1159626E+00
         21   -1    0    0  503  502  0.00000000000E+00  0.00000000000E+00  0.14268245467E+04  0.14268245467E+04  0.00000000000E+00 0. -1.
         21   -1    0    0  501  503 -0.00000000000E+00 -0.00000000000E+00 -0.31107055683E+02  0.31107055683E+02  0.00000000000E+00 0.  1.
          6    2    1    2  501    0 -0.64511481017E+02  0.41412802170E+02  0.37017237570E+03  0.41511679907E+03  0.17151564879E+03 0.  0.
         24    2    3    3    0    0  0.25856793464E+02  0.25451171234E+01  0.12765656351E+03  0.15336666797E+03  0.80932596941E+02 0.  0.
         -6    2    1    2    0  502  0.64511481017E+02 -0.41412802170E+02  0.10255451153E+04  0.10428148033E+04  0.17275178457E+03 0.  0.
        -24    2    5    5    0    0  0.96784891397E+02 -0.47440032309E+02  0.96047438089E+03  0.96977925717E+03  0.79642321772E+02 0.  0.
          5    1    3    3  501    0 -0.90368274481E+02  0.38867685046E+02  0.24251581219E+03  0.26175013111E+03  0.47000000000E+01 0. -1.
        -11    1    4    4    0    0  0.46593088107E+02  0.25556232222E+02  0.69655467282E+02  0.87612333533E+02  0.00000000000E+00 0.  1.
         12    1    4    4    0    0 -0.20736294643E+02 -0.23011115099E+02  0.58001096227E+02  0.65754334436E+02  0.00000000000E+00 0. -1.
         -5    1    5    5    0  502 -0.32273410379E+02  0.60272301393E+01  0.65070734429E+02  0.73035546139E+02  0.47000000000E+01 0.  1.
         13    1    6    6    0    0  0.37638214835E+02  0.21359996126E+02  0.30418358246E+03  0.30724670297E+03  0.00000000000E+00 0. -1.
        -14    1    6    6    0    0  0.59146676562E+02 -0.68800028435E+02  0.65629079844E+03  0.66253255420E+03  0.00000000000E+00 0.  1.
<mgrwt>
<rscale>  2 0.18871423E+03</rscale>
<asrwt>0</asrwt>
<pdfrwt beam="1">  1       21 0.21951142E+00 0.18899717E+03</pdfrwt>
<pdfrwt beam="2">  1       21 0.47857020E-02 0.18899717E+03</pdfrwt>
<totfact> 0.29427037E+04</totfact>
</mgrwt>
</event>
<event>
12    1  0.1013215E-001  0.1889995E+03  0.7546771E-02  0.1160032E+00
         21   -1    0    0  503  502  0.00000000000E+00  0.00000000000E+00  0.22009016533E+03  0.22009016533E+03  0.00000000000E+00 0. -1.
         21   -1    0    0  501  503 -0.00000000000E+00 -0.00000000000E+00 -0.24197931107E+03  0.24197931107E+03  0.00000000000E+00 0. -1.
          6    2    1    2  501    0 -0.70358142458E+02 -0.28095318801E+02 -0.14551136947E+03  0.23623046518E+03  0.16997546554E+03 0.  0.
         24    2    3    3    0    0 -0.29653744162E+02 -0.86867362366E+01 -0.42126243936E+01  0.87835834290E+02  0.82113236765E+02 0.  0.
         -6    2    1    2    0  502  0.70358142458E+02  0.28095318801E+02  0.12362222373E+03  0.22583901122E+03  0.17315077141E+03 0.  0.
        -24    2    5    5    0    0  0.70683989935E+01  0.64434733197E+02  0.29582204821E+02  0.10670983837E+03  0.79436047590E+02 0.  0.
          5    1    3    3  501    0 -0.40704398297E+02 -0.19408582564E+02 -0.14129874508E+03  0.14839463089E+03  0.47000000000E+01 0. -1.
        -11    1    4    4    0    0 -0.54170676342E+02 -0.35277812439E+01 -0.20417434930E+02  0.57998095357E+02  0.00000000000E+00 0.  1.
         12    1    4    4    0    0  0.24516932181E+02 -0.51589549927E+01  0.16204810536E+02  0.29837738934E+02  0.00000000000E+00 0. -1.
         -5    1    5    5    0  502  0.63289743465E+02 -0.36339414396E+02  0.94040018913E+02  0.11912917285E+03  0.47000000000E+01 0.  1.
         13    1    6    6    0    0 -0.45514937440E+01  0.53707712514E+02  0.54850184147E+02  0.76901086986E+02  0.00000000000E+00 0. -1.
        -14    1    6    6    0    0  0.11619892738E+02  0.10727020683E+02 -0.25267979325E+02  0.29808751385E+02  0.00000000000E+00 0.  1.
<mgrwt>
<rscale>  2 0.18826909E+03</rscale>
<asrwt>0</asrwt>
<pdfrwt beam="1">  1       21 0.33860026E-01 0.18899948E+03</pdfrwt>
<pdfrwt beam="2">  1       21 0.37227586E-01 0.18899948E+03</pdfrwt>
<totfact> 0.58571956E+04</totfact>
</mgrwt>
</event>
<event>
12    1  0.1013215E-001  0.1872427E+03  0.7546771E-02  0.1162055E+00
         21   -1    0    0  501  502  0.00000000000E+00  0.00000000000E+00  0.10920427387E+04  0.10920427387E+04  0.00000000000E+00 0.  1.
         21   -1    0    0  502  503 -0.00000000000E+00 -0.00000000000E+00 -0.31313467955E+02  0.31313467955E+02  0.00000000000E+00 0. -1.
         -6    2    1    2    0  503 -0.29632136227E+01  0.61096052888E+02  0.52107084770E+03  0.55213729021E+03  0.17204432745E+03 0.  0.
        -24    2    3    3    0    0 -0.63266366094E+02  0.33183349837E+02  0.23215367275E+03  0.25563971320E+03  0.79702995001E+02 0.  0.
          6    2    1    2  501    0  0.29632136227E+01 -0.61096052888E+02  0.53965842307E+03  0.57121891646E+03  0.17696985231E+03 0.  0.
         24    2    5    5    0    0  0.20907035935E+02 -0.10285782954E+03  0.32879613808E+03  0.35546206263E+03  0.85026703455E+02 0.  0.
          5    1    5    5  501    0 -0.17943822312E+02  0.41761776652E+02  0.21086228499E+03  0.21575685384E+03  0.47000000000E+01 0. -1.
        -11    1    6    6    0    0  0.16919724383E+02 -0.63950618808E+01  0.15989631440E+03  0.16091614353E+03  0.00000000000E+00 0.  1.
         12    1    6    6    0    0  0.39873115518E+01 -0.96462767659E+02  0.16889982368E+03  0.19454591910E+03  0.00000000000E+00 0. -1.
         -5    1    3    3    0  503  0.60303152471E+02  0.27912703051E+02  0.28891717495E+03  0.29649757701E+03  0.47000000000E+01 0.  1.
         11    1    4    4    0    0  0.14808227218E+02 -0.40300876890E+01  0.13272241759E+02  0.20289839857E+02  0.00000000000E+00 0. -1.
        -12    1    4    4    0    0 -0.78074593312E+02  0.37213437526E+02  0.21888143099E+03  0.23534987335E+03  0.00000000000E+00 0.  1.
<mgrwt>
<rscale>  2 0.18606969E+03</rscale>
<asrwt>0</asrwt>
<pdfrwt beam="1">  1       21 0.16800655E+00 0.18724272E+03</pdfrwt>
<pdfrwt beam="2">  1       21 0.48174575E-02 0.18724272E+03</pdfrwt>
<totfact> 0.63333220E+04</totfact>
</mgrwt>
</event>
<event>
12    1  0.1013215E-001  0.1984747E+03  0.7546771E-02  0.1151393E+00
         21   -1    0    0  501  502  0.00000000000E+00  0.00000000000E+00  0.35016172261E+02  0.35016172261E+02  0.00000000000E+00 0. -1.
         21   -1    0    0  502  503 -0.00000000000E+00 -0.00000000000E+00 -0.22117245177E+04  0.22117245177E+04  0.00000000000E+00 0. -1.
         -6    2    1    2    0  503 -0.92987459016E+02  0.16646262597E+02 -0.18769055435E+04  0.18871938421E+04  0.17263375318E+03 0.  0.
        -24    2    3    3    0    0 -0.90442088984E+02 -0.51120485381E+02 -0.12696154116E+04  0.12761110283E+04  0.75782501761E+02 0.  0.
          6    2    1    2  501    0  0.92987459016E+02 -0.16646262597E+02 -0.29980280192E+03  0.35954684787E+03  0.17455214173E+03 0.  0.
         24    2    5    5    0    0  0.33454162708E+02  0.15018416910E+01 -0.47374705424E+02  0.99516847757E+02  0.80856686443E+02 0.  0.
          5    1    5    5  501    0  0.59533296308E+02 -0.18148104288E+02 -0.25242809650E+03  0.26003000011E+03  0.47000000000E+01 0. -1.
        -13    1    6    6    0    0 -0.26232437390E+02  0.80284951194E+01 -0.16282203347E+02  0.31901530546E+02  0.00000000000E+00 0.  1.
         14    1    6    6    0    0  0.59686600098E+02 -0.65266534284E+01 -0.31092502077E+02  0.67615317212E+02  0.00000000000E+00 0. -1.
         -5    1    3    3    0  503 -0.25453700315E+01  0.67766747978E+02 -0.60729013190E+03  0.61108281381E+03  0.47000000000E+01 0.  1.
         13    1    4    4    0    0 -0.44866648597E+02 -0.27320018937E+02 -0.10148785443E+04  0.10162371078E+04  0.00000000000E+00 0. -1.
        -14    1    4    4    0    0 -0.45575440388E+02 -0.23800466443E+02 -0.25473686727E+03  0.25987392042E+03  0.00000000000E+00 0.  1.
<mgrwt>
<rscale>  2 0.19805211E+03</rscale>
<asrwt>0</asrwt>
<pdfrwt beam="1">  1       21 0.53871027E-02 0.19847472E+03</pdfrwt>
<pdfrwt beam="2">  1       21 0.34026536E+00 0.19847472E+03</pdfrwt>
<totfact> 0.46938327E+03</totfact>
</mgrwt>
</event>
<event>
12    1  0.1013215E-001  0.1775999E+03  0.7546771E-02  0.1170267E+00
         21   -1    0    0  503  502  0.00000000000E+00  0.00000000000E+00  0.85997006038E+02  0.85997006038E+02  0.00000000000E+00 0.  1.
         21   -1    0    0  501  503 -0.00000000000E+00 -0.00000000000E+00 -0.49016882814E+03  0.49016882814E+03  0.00000000000E+00 0.  1.
          6    2    1    2  501    0  0.30220867843E+02  0.25472795951E+02 -0.34700964021E+03  0.38959353638E+03  0.17264202560E+03 0.  0.
         24    2    3    3    0    0 -0.12245683474E+02 -0.22173827698E+02 -0.29182905548E+03  0.30509149110E+03  0.85293522134E+02 0.  0.
         -6    2    1    2    0  502 -0.30220867843E+02 -0.25472795951E+02 -0.57162181888E+02  0.18657229780E+03  0.17314601665E+03 0.  0.
        -24    2    5    5    0    0  0.48478205422E+02 -0.31574857301E+02 -0.31402836882E+02  0.10340732235E+03  0.79748530628E+02 0.  0.
          5    1    3    3  501    0  0.42466551316E+02  0.47646623649E+02 -0.55180584732E+02  0.84502045284E+02  0.47000000000E+01 0. -1.
        -11    1    4    4    0    0  0.24807801506E+02 -0.12168583105E+02 -0.23436833386E+03  0.23599156203E+03  0.00000000000E+00 0.  1.
         12    1    4    4    0    0 -0.37053484979E+02 -0.10005244593E+02 -0.57460721616E+02  0.69099929067E+02  0.00000000000E+00 0. -1.
         -5    1    5    5    0  502 -0.78699073265E+02  0.61020613499E+01 -0.25759345006E+02  0.83164975444E+02  0.47000000000E+01 0.  1.
         11    1    6    6    0    0  0.12123493472E+02  0.54370733986E+01 -0.47312311585E+02  0.49142605635E+02  0.00000000000E+00 0. -1.
        -12    1    6    6    0    0  0.36354711951E+02 -0.37011930699E+02  0.15909474703E+02  0.54264716718E+02  0.00000000000E+00 0.  1.
<mgrwt>
<rscale>  2 0.17747689E+03</rscale>
<asrwt>0</asrwt>
<pdfrwt beam="1">  1       21 0.13230308E-01 0.17759985E+03</pdfrwt>
<pdfrwt beam="2">  1       21 0.75410590E-01 0.17759985E+03</pdfrwt>
<totfact> 0.77847916E+04</totfact>
</mgrwt>
</event>
<event>
12    1  0.1013215E-001  0.2438879E+03  0.7546771E-02  0.1117572E+00
         21   -1    0    0  503  502  0.00000000000E+00  0.00000000000E+00  0.23901686654E+03  0.23901686654E+03  0.00000000000E+00 0.  1.
         21   -1    0    0  501  503 -0.00000000000E+00 -0.00000000000E+00 -0.25576541383E+03  0.25576541383E+03  0.00000000000E+00 0. -1.
          6    2    1    2  501    0 -0.16683455693E+03  0.24767179816E+02 -0.54900423346E+02  0.24999076782E+03  0.17616510702E+03 0.  0.
         24    2    3    3    0    0 -0.16327541100E+03  0.70976287306E+02 -0.60326925038E+02  0.20309208921E+03  0.76880203041E+02 0.  0.
         -6    2    1    2    0  502  0.16683455693E+03 -0.24767179816E+02  0.38151876057E+02  0.24479151254E+03  0.17326319974E+03 0.  0.
        -24    2    5    5    0    0  0.86872076751E+02 -0.68808409003E+02  0.62359230476E+02  0.15023087532E+03  0.79995546152E+02 0.  0.
          5    1    3    3  501    0 -0.35591459318E+01 -0.46209107489E+02  0.54265016914E+01  0.46898678610E+02  0.47000000000E+01 0. -1.
        -13    1    4    4    0    0 -0.89228696132E+02  0.43192391846E+02  0.67881190529E+01  0.99365091894E+02  0.00000000000E+00 0.  1.
         14    1    4    4    0    0 -0.74046714869E+02  0.27783895460E+02 -0.67115044091E+02  0.10372699732E+03  0.00000000000E+00 0. -1.
         -5    1    5    5    0  502  0.79962480181E+02  0.44041229187E+02 -0.24207354419E+02  0.94560637228E+02  0.47000000000E+01 0.  1.
         13    1    6    6    0    0 -0.40535187168E+01  0.10822035585E+02 -0.41447573805E+01  0.12277071391E+02  0.00000000000E+00 0. -1.
        -14    1    6    6    0    0  0.90925595468E+02 -0.79630444589E+02  0.66503987857E+02  0.13795380393E+03  0.00000000000E+00 0.  1.
<mgrwt>
<rscale>  2 0.24336431E+03</rscale>
<asrwt>0</asrwt>
<pdfrwt beam="1">  1       21 0.36771826E-01 0.24388794E+03</pdfrwt>
<pdfrwt beam="2">  1       21 0.39348525E-01 0.24388794E+03</pdfrwt>
<totfact> 0.43364490E+04</totfact>
</mgrwt>
</event>
<event>
12    1  0.1013215E-001  0.2903552E+03  0.7546771E-02  0.1090254E+00
         21   -1    0    0  503  502  0.00000000000E+00  0.00000000000E+00  0.89900565327E+03  0.89900565327E+03  0.00000000000E+00 0. -1.
         21   -1    0    0  501  503 -0.00000000000E+00 -0.00000000000E+00 -0.94160593839E+02  0.94160593839E+02  0.00000000000E+00 0. -1.
          6    2    1    2  501    0  0.48845851778E+02 -0.22733273030E+03  0.36305732046E+03  0.46488360828E+03  0.17389670441E+03 0.  0.
         24    2    3    3    0    0 -0.16713778760E+02 -0.20455578338E+03  0.26266583033E+03  0.34274681710E+03  0.79747246347E+02 0.  0.
         -6    2    1    2    0  502 -0.48845851778E+02  0.22733273030E+03  0.44178773898E+03  0.52828263884E+03  0.17274273555E+03 0.  0.
        -24    2    5    5    0    0 -0.89170269752E+02  0.13019306213E+03  0.33711519745E+03  0.37982185355E+03  0.75606968263E+02 0.  0.
          5    1    3    3  501    0  0.65559630538E+02 -0.22776946922E+02  0.10039149013E+03  0.12213679117E+03  0.47000000000E+01 0. -1.
        -11    1    4    4    0    0 -0.80631005418E+01 -0.84701667466E+02  0.17307715378E+03  0.19286027901E+03  0.00000000000E+00 0.  1.
         12    1    4    4    0    0 -0.86506782182E+01 -0.11985411591E+03  0.89588676550E+02  0.14988653809E+03  0.00000000000E+00 0. -1.
         -5    1    5    5    0  502  0.40324417975E+02  0.97139668173E+02  0.10467254153E+03  0.14846078529E+03  0.47000000000E+01 0.  1.
         11    1    6    6    0    0 -0.86766768320E+02  0.13961074187E+03  0.32570320184E+03  0.36483175166E+03  0.00000000000E+00 0. -1.
        -12    1    6    6    0    0 -0.24035014326E+01 -0.94176797439E+01  0.11411995603E+02  0.14990101886E+02  0.00000000000E+00 0.  1.
<mgrwt>
<rscale>  2 0.29018265E+03</rscale>
<asrwt>0</asrwt>
<pdfrwt beam="1">  1       21 0.13830856E+00 0.29035522E+03</pdfrwt>
<pdfrwt beam="2">  1       21 0.14486246E-01 0.29035522E+03</pdfrwt>
<totfact> 0.14580859E+04</totfact>
</mgrwt>
</event>
<event>
12    1  0.1013215E-001  0.2503625E+03  0.7546771E-02  0.1113290E+00
         21   -1    0    0  503  502  0.00000000000E+00  0.00000000000E+00  0.58157799796E+03  0.58157799796E+03  0.00000000000E+00 0.  1.
         21   -1    0    0  501  503 -0.00000000000E+00 -0.00000000000E+00 -0.17983859009E+03  0.17983859009E+03  0.00000000000E+00 0. -1.
          6    2    1    2  501    0 -0.40215755231E+02  0.17627601214E+03 -0.40767465756E+02  0.25365998306E+03  0.17317869765E+03 0.  0.
         24    2    3    3    0    0  0.32989019390E+02  0.10443881818E+03  0.16889424541E+02  0.13590630600E+03  0.78673561036E+02 0.  0.
         -6    2    1    2    0  502  0.40215755231E+02 -0.17627601214E+03  0.44250687363E+03  0.50775660499E+03  0.17121301728E+03 0.  0.
        -24    2    5    5    0    0  0.51413816124E+02 -0.36380892290E+02  0.27908864386E+03  0.29229512596E+03  0.59824908864E+02 0.  0.
          5    1    3    3  501    0 -0.73204774621E+02  0.71837193960E+02 -0.57656890297E+02  0.11775367706E+03  0.47000000000E+01 0. -1.
        -11    1    4    4    0    0  0.31571888925E+02  0.23634280153E+01  0.11481949302E+02  0.33677961964E+02  0.00000000000E+00 0.  1.
         12    1    4    4    0    0  0.14171304649E+01  0.10207539016E+03  0.54074752396E+01  0.10222834403E+03  0.00000000000E+00 0. -1.
         -5    1    5    5    0  502 -0.11198060893E+02 -0.13989511985E+03  0.16341822977E+03  0.21546147903E+03  0.47000000000E+01 0.  1.
         13    1    6    6    0    0  0.51029996160E+02 -0.43420404268E+01  0.12838702216E+03  0.13822496621E+03  0.00000000000E+00 0. -1.
        -14    1    6    6    0    0  0.38381996396E+00 -0.32038851863E+02  0.15070162169E+03  0.15407015976E+03  0.00000000000E+00 0.  1.
<mgrwt>
<rscale>  2 0.25002294E+03</rscale>
<asrwt>0</asrwt>
<pdfrwt beam="1">  1       21 0.89473537E-01 0.25036254E+03</pdfrwt>
<pdfrwt beam="2">  1       21 0.27667476E-01 0.25036254E+03</pdfrwt>
<totfact> 0.12822541E+04</totfact>
</mgrwt>
</event>
<event>
12    1  0.1013215E-001  0.1968959E+03  0.7546771E-02  0.1152416E+00
         21   -1    0    0  503  502  0.00000000000E+00  0.00000000000E+00  0.38310858771E+03  0.38310858771E+03  0.00000000000E+00 0.  1.
         21   -1    0    0  501  503 -0.00000000000E+00 -0.00000000000E+00 -0.10170617155E+03  0.10170617155E+03  0.00000000000E+00 0.  1.
          6    2    1    2  501    0  0.90355138817E+02  0.24326039226E+02  0.12233060947E+03  0.23180326539E+03  0.17324020473E+03 0.  0.
         24    2    3    3    0    0  0.25597923378E+02  0.59992903391E+02  0.11919017296E+03  0.15765763509E+03  0.79970184647E+02 0.  0.
         -6    2    1    2    0  502 -0.90355138817E+02 -0.24326039226E+02  0.15907180669E+03  0.25301149387E+03  0.17307561658E+03 0.  0.
        -24    2    5    5    0    0 -0.43110940986E+02 -0.62582650804E+02  0.38338326454E+02  0.11775527107E+03  0.81371587025E+02 0.  0.
          5    1    3    3  501    0  0.64757215439E+02 -0.35666864165E+02  0.31404365066E+01  0.74145630297E+02  0.47000000000E+01 0. -1.
        -13    1    4    4    0    0  0.10323822030E+02 -0.12326002357E+02  0.62421376467E+02  0.64458823100E+02  0.00000000000E+00 0.  1.
         14    1    4    4    0    0  0.15274101348E+02  0.72318905748E+02  0.56768796497E+02  0.93198811990E+02  0.00000000000E+00 0. -1.
         -5    1    5    5    0  502 -0.47244197831E+02  0.38256611578E+02  0.12073348023E+03  0.13525622280E+03  0.47000000000E+01 0.  1.
         13    1    6    6    0    0 -0.21799638840E+02 -0.19371363210E+02  0.58624851550E+02  0.65477837361E+02  0.00000000000E+00 0. -1.
        -14    1    6    6    0    0 -0.21311302146E+02 -0.43211287593E+02 -0.20286525097E+02  0.52277433708E+02  0.00000000000E+00 0.  1.
<mgrwt>
<rscale>  2 0.19685964E+03</rscale>
<asrwt>0</asrwt>
<pdfrwt beam="1">  1       21 0.58939782E-01 0.19689585E+03</pdfrwt>
<pdfrwt beam="2">  1       21 0.15647103E-01 0.19689585E+03</pdfrwt>
<totfact> 0.97610775E+04</totfact>
</mgrwt>
</event>
<event>
12    1  0.1013215E-001  0.3456486E+03  0.7546771E-02  0.1064509E+00
         21   -1    0    0  501  502  0.00000000000E+00  0.00000000000E+00  0.13825627632E+03  0.13825627632E+03  0.00000000000E+00 0. -1.
         21   -1    0    0  502  503 -0.00000000000E+00 -0.00000000000E+00 -0.92168661321E+03  0.92168661321E+03  0.00000000000E+00 0. -1.
         -6    2    1    2    0  503 -0.25008575560E+03 -0.16317722331E+03 -0.52621805805E+03  0.62909361743E+03  0.17228941787E+03 0.  0.
        -24    2    3    3    0    0 -0.19114726573E+03 -0.11913762945E+03 -0.26317911746E+03  0.35591820550E+03  0.81752487381E+02 0.  0.
          6    2    1    2  501    0  0.25008575560E+03  0.16317722331E+03 -0.25721227884E+03  0.43084927210E+03  0.17407827988E+03 0.  0.
         24    2    5    5    0    0  0.19724737529E+03  0.18654172132E+03 -0.23688502329E+03  0.36942385783E+03  0.81578990086E+02 0.  0.
          5    1    5    5  501    0  0.52838380313E+02 -0.23364498003E+02 -0.20327255548E+02  0.61425414277E+02  0.47000000000E+01 0. -1.
        -11    1    6    6    0    0  0.48757738519E+01  0.27883453039E+02 -0.51275433307E+02  0.58569874380E+02  0.00000000000E+00 0.  1.
         12    1    6    6    0    0  0.19237160143E+03  0.15865826828E+03 -0.18560958998E+03  0.31085398345E+03  0.00000000000E+00 0. -1.
         -5    1    3    3    0  503 -0.58938489867E+02 -0.44039593865E+02 -0.26303894059E+03  0.27317541193E+03  0.47000000000E+01 0.  1.
         11    1    4    4    0    0 -0.10592220848E+03 -0.10918984037E+03 -0.18799907593E+03  0.24183793755E+03  0.00000000000E+00 0. -1.
        -12    1    4    4    0    0 -0.85225057253E+02 -0.99477890833E+01 -0.75180041531E+02  0.11408026795E+03  0.00000000000E+00 0.  1.
<mgrwt>
<rscale>  2 0.34542399E+03</rscale>
<asrwt>0</asrwt>
<pdfrwt beam="1">  1       21 0.21270196E-01 0.34564858E+03</pdfrwt>
<pdfrwt beam="2">  1       21 0.14179794E+00 0.34564858E+03</pdfrwt>
<totfact> 0.64979412E+03</totfact>
</mgrwt>
</event>
<event>
12    1  0.1013215E-001  0.1818437E+03  0.7546771E-02  0.1166158E+00
         21   -1    0    0  501  502  0.00000000000E+00  0.00000000000E+00  0.13184609722E+03  0.13184609722E+03  0.00000000000E+00 0.  1.
         21   -1    0    0  502  503 -0.00000000000E+00 -0.00000000000E+00 -0.35996733265E+03  0.35996733265E+03  0.00000000000E+00 0.  1.
         -6    2    1    2    0  503  0.20805362077E+02  0.51267577282E+02 -0.24981812957E+03  0.30867987108E+03  0.17266423307E+03 0.  0.
        -24    2    3    3    0    0 -0.32050106757E+02  0.78121754870E+02 -0.12831715323E+03  0.17340450492E+03  0.80458763265E+02 0.  0.
          6    2    1    2  501    0 -0.20805362077E+02 -0.51267577282E+02  0.21696894135E+02  0.18313355878E+03  0.17322216245E+03 0.  0.
         24    2    5    5    0    0  0.51456753064E+02 -0.53240850757E+02  0.20001992076E+02  0.11067205324E+03  0.79786202163E+02 0.  0.
          5    1    5    5  501    0 -0.72262115141E+02  0.19732734751E+01  0.16949020596E+01  0.72461505545E+02  0.47000000000E+01 0. -1.
        -13    1    6    6    0    0 -0.39353785080E+01  0.16208980380E+02  0.13752036264E+02  0.21617972855E+02  0.00000000000E+00 0.  1.
         14    1    6    6    0    0  0.55392131572E+02 -0.69449831137E+02  0.62499558120E+01  0.89054080382E+02  0.00000000000E+00 0. -1.
         -5    1    3    3    0  503  0.52855468834E+02 -0.26854177589E+02 -0.12150097634E+03  0.13527536617E+03  0.47000000000E+01 0.  1.
         11    1    4    4    0    0 -0.32222222742E+02  0.93029109354E+02 -0.12306121484E+03  0.15759679383E+03  0.00000000000E+00 0. -1.
        -12    1    4    4    0    0  0.17211598484E+00 -0.14907354484E+02 -0.52559383829E+01  0.15807711090E+02  0.00000000000E+00 0.  1.
<mgrwt>
<rscale>  2 0.18171074E+03</rscale>
<asrwt>0</asrwt>
<pdfrwt beam="1">  1       21 0.20284015E-01 0.18184374E+03</pdfrwt>
<pdfrwt beam="2">  1       21 0.55379590E-01 0.18184374E+03</pdfrwt>
<totfact> 0.69434082E+04</totfact>
</mgrwt>
</event>
<event>
12    1  0.1013215E-001  0.1991790E+03  0.7546771E-02  0.1150578E+00
         21   -1    0    0  501  502  0.00000000000E+00  0.00000000000E+00  0.55493992428E+03  0.55493992428E+03  0.00000000000E+00 0.  1.
         21   -1    0    0  502  503 -0.00000000000E+00 -0.00000000000E+00 -0.88853347594E+02  0.88853347594E+02  0.00000000000E+00 0.  1.
         -6    2    1    2    0  503 -0.29459595222E+01 -0.98270074465E+02  0.89431861183E+02  0.21771693034E+03  0.17244395538E+03 0.  0.
        -24    2    3    3    0    0 -0.51824879164E+02 -0.44233112605E+02  0.97984838094E+02  0.14420240493E+03  0.80937746072E+02 0.  0.
          6    2    1    2  501    0  0.29459595222E+01  0.98270074465E+02  0.37665471550E+03  0.42607634154E+03  0.17322409732E+03 0.  0.
         24    2    5    5    0    0  0.15092482624E+02  0.22989757326E+02  0.31960185475E+03  0.33072549942E+03  0.80484150201E+02 0.  0.
          5    1    5    5  501    0 -0.12146523102E+02  0.75280317140E+02  0.57052860752E+02  0.95350842115E+02  0.47000000000E+01 0. -1.
        -13    1    6    6    0    0 -0.32818460740E+02  0.16308677096E+02  0.14220826820E+03  0.14685440361E+03  0.00000000000E+00 0.  1.
         14    1    6    6    0    0  0.47910943364E+02  0.66810802299E+01  0.17739358655E+03  0.18387109581E+03  0.00000000000E+00 0. -1.
         -5    1    3    3    0  503  0.48878919641E+02 -0.54036961860E+02 -0.85529769113E+01  0.73514525411E+02  0.47000000000E+01 0.  1.
         11    1    4    4    0    0 -0.87777646453E+01  0.21373085866E+02  0.71893341008E+01  0.24198026291E+02  0.00000000000E+00 0. -1.
        -12    1    4    4    0    0 -0.43047114518E+02 -0.65606198471E+02  0.90795503993E+02  0.12000437863E+03  0.00000000000E+00 0.  1.
<mgrwt>
<rscale>  2 0.19900926E+03</rscale>
<asrwt>0</asrwt>
<pdfrwt beam="1">  1       21 0.85375371E-01 0.19917900E+03</pdfrwt>
<pdfrwt beam="2">  1       21 0.13669746E-01 0.19917900E+03</pdfrwt>
<totfact> 0.54896277E+04</totfact>
</mgrwt>
</event>
<event>
12    1  0.1013215E-001  0.2269662E+03  0.7546771E-02  0.1129298E+00
         21   -1    0    0  501  502  0.00000000000E+00  0.00000000000E+00  0.28802736692E+03  0.28802736692E+03  0.00000000000E+00 0.  1.
         21   -1    0    0  502  503 -0.00000000000E+00 -0.00000000000E+00 -0.23043607878E+03  0.23043607878E+03  0.00000000000E+00 0.  1.
         -6    2    1    2    0  503 -0.60270223475E+02 -0.12989307556E+03 -0.96307099634E+02  0.24655370714E+03  0.17609361757E+03 0.  0.
        -24    2    3    3    0    0  0.33516012395E+02 -0.83533264563E+02 -0.58709106211E+02  0.13528471225E+03  0.82183117734E+02 0.  0.
          6    2    1    2  501    0  0.60270223475E+02  0.12989307556E+03  0.15389838777E+03  0.27190973856E+03  0.17246878340E+03 0.  0.
         24    2    5    5    0    0  0.10233521368E+03  0.10494215559E+03  0.86580300725E+02  0.18856811239E+03  0.81095206755E+02 0.  0.
          5    1    5    5  501    0 -0.42064990205E+02  0.24950919970E+02  0.67318087045E+02  0.83341626165E+02  0.47000000000E+01 0. -1.
        -13    1    6    6    0    0 -0.11290350820E+02  0.23286168246E+02  0.23975580735E+02  0.35278125302E+02  0.00000000000E+00 0.  1.
         14    1    6    6    0    0  0.11362556450E+03  0.81655987343E+02  0.62604719990E+02  0.15328998709E+03  0.00000000000E+00 0. -1.
         -5    1    3    3    0  503 -0.93786235870E+02 -0.46359810997E+02 -0.37597993423E+02  0.11126899489E+03  0.47000000000E+01 0.  1.
         11    1    4    4    0    0  0.36959156379E+02 -0.41014795519E+01 -0.37908733186E+02  0.53102480418E+02  0.00000000000E+00 0. -1.
        -12    1    4    4    0    0 -0.34431439842E+01 -0.79431785011E+02 -0.20800373025E+02  0.82182231830E+02  0.00000000000E+00 0.  1.
<mgrwt>
<rscale>  2 0.22626280E+03</rscale>
<asrwt>0</asrwt>
<pdfrwt beam="1">  1       21 0.44311903E-01 0.22696624E+03</pdfrwt>
<pdfrwt beam="2">  1       21 0.35451704E-01 0.22696624E+03</pdfrwt>
<totfact> 0.36879285E+04</totfact>
</mgrwt>
</event>
<event>
12    1  0.1013215E-001  0.2522633E+03  0.7546771E-02  0.1112087E+00
         21   -1    0    0  503  502  0.00000000000E+00  0.00000000000E+00  0.41518189214E+02  0.41518189214E+02  0.00000000000E+00 0. -1.
         21   -1    0    0  501  503 -0.00000000000E+00 -0.00000000000E+00 -0.16290332723E+04  0.16290332723E+04  0.00000000000E+00 0. -1.
          6    2    1    2  501    0  0.14077825582E+03  0.11523372370E+03 -0.10069555588E+04  0.10380733553E+04  0.17475544372E+03 0.  0.
         24    2    3    3    0    0  0.63530265044E+02  0.13890789634E+03 -0.69629342321E+03  0.71704256076E+03  0.77420956381E+02 0.  0.
         -6    2    1    2    0  502 -0.14077825582E+03 -0.11523372370E+03 -0.58055952427E+03  0.63247810624E+03  0.17286371877E+03 0.  0.
        -24    2    5    5    0    0 -0.16359088885E+03 -0.12864580893E+03 -0.52860924828E+03  0.57398689809E+03  0.81984746959E+02 0.  0.
          5    1    3    3  501    0  0.77247990774E+02 -0.23674172646E+02 -0.31066213560E+03  0.32103079452E+03  0.47000000000E+01 0. -1.
        -13    1    4    4    0    0  0.90241203324E+01  0.19277020104E+02 -0.27243284522E+03  0.27326304801E+03  0.00000000000E+00 0.  1.
         14    1    4    4    0    0  0.54506144711E+02  0.11963087624E+03 -0.42386057799E+03  0.44377951275E+03  0.00000000000E+00 0. -1.
         -5    1    5    5    0  502  0.22812633032E+02  0.13412085238E+02 -0.51950275987E+02  0.58491208155E+02  0.47000000000E+01 0.  1.
         13    1    6    6    0    0 -0.83618350257E+02 -0.11160974063E+03 -0.29075440273E+03  0.32246997598E+03  0.00000000000E+00 0. -1.
        -14    1    6    6    0    0 -0.79972538593E+02 -0.17036068308E+02 -0.23785484556E+03  0.25151692211E+03  0.00000000000E+00 0.  1.
<mgrwt>
<rscale>  2 0.25193601E+03</rscale>
<asrwt>0</asrwt>
<pdfrwt beam="1">  1       21 0.63874125E-02 0.25226334E+03</pdfrwt>
<pdfrwt beam="2">  1       21 0.25062055E+00 0.25226334E+03</pdfrwt>
<totfact> 0.11109910E+04</totfact>
</mgrwt>
</event>
<event>
12    1  0.1013215E-001  0.1814496E+03  0.7546771E-02  0.1166631E+00
         21   -1    0    0  501  502  0.00000000000E+00  0.00000000000E+00  0.45611707741E+03  0.45611707741E+03  0.00000000000E+00 0. -1.
         21   -1    0    0  502  503 -0.00000000000E+00 -0.00000000000E+00 -0.71813860870E+02  0.71813860870E+02  0.00000000000E+00 0. -1.
         -6    2    1    2    0  503 -0.46062936458E+02 -0.27035538908E+02  0.19229579957E+03  0.26438919124E+03  0.17341065548E+03 0.  0.
        -24    2    3    3    0    0 -0.90602585642E+02 -0.46964546266E+02  0.11660293770E+03  0.17420912126E+03  0.79612032498E+02 0.  0.
          6    2    1    2  501    0  0.46062936458E+02  0.27035538908E+02  0.19200741697E+03  0.26354174704E+03  0.17243749529E+03 0.  0.
         24    2    5    5    0    0 -0.34033636079E+02  0.12972272877E+02  0.14379349105E+03  0.16888495100E+03  0.80740264790E+02 0.  0.
          5    1    5    5  501    0  0.80096572537E+02  0.14063266031E+02  0.48213925923E+02  0.94656796040E+02  0.47000000000E+01 0. -1.
        -13    1    6    6    0    0 -0.34522238969E+02  0.36846855505E+02  0.13377884835E+03  0.14299040530E+03  0.00000000000E+00 0.  1.
         14    1    6    6    0    0  0.48860289006E+00 -0.23874582628E+02  0.10014642703E+02  0.25894545698E+02  0.00000000000E+00 0. -1.
         -5    1    3    3    0  503  0.44539649183E+02  0.19929007358E+02  0.75692861872E+02  0.90180069982E+02  0.47000000000E+01 0.  1.
         13    1    4    4    0    0 -0.56074307748E+02  0.14955758701E+02  0.44914272100E+02  0.73384566129E+02  0.00000000000E+00 0. -1.
        -14    1    4    4    0    0 -0.34528277894E+02 -0.61920304967E+02  0.71688665599E+02  0.10082455513E+03  0.00000000000E+00 0.  1.
<mgrwt>
<rscale>  2 0.18121673E+03</rscale>
<asrwt>0</asrwt>
<pdfrwt beam="1">  1       21 0.70171856E-01 0.18144963E+03</pdfrwt>
<pdfrwt beam="2">  1       21 0.11048287E-01 0.18144963E+03</pdfrwt>
<totfact> 0.12582446E+05</totfact>
</mgrwt>
</event>
<event>
12    1  0.1013215E-001  0.1965048E+03  0.7546771E-02  0.1152894E+00
         21   -1    0    0  503  502  0.00000000000E+00  0.00000000000E+00  0.27984546467E+03  0.27984546467E+03  0.00000000000E+00 0.  1.
         21   -1    0    0  501  503 -0.00000000000E+00 -0.00000000000E+00 -0.22047331461E+03  0.22047331461E+03  0.00000000000E+00 0.  1.
          6    2    1    2  501    0 -0.84769407090E+02 -0.38718916674E+02 -0.12388462725E+03  0.23162342540E+03  0.17209591349E+03 0.  0.
         24    2    3    3    0    0 -0.11348998737E+03 -0.68158027728E+02 -0.10028428580E+03  0.18397262155E+03  0.79142236032E+02 0.  0.
         -6    2    1    2    0  502  0.84769407090E+02  0.38718916674E+02  0.18325677732E+03  0.26869535388E+03  0.17300040426E+03 0.  0.
        -24    2    5    5    0    0  0.36958467176E+02 -0.32725332616E+02  0.14629324120E+03  0.17500138537E+03  0.82382624193E+02 0.  0.
          5    1    3    3  501    0  0.28720580281E+02  0.29439111053E+02 -0.23600341446E+02  0.47650803851E+02  0.47000000000E+01 0. -1.
        -13    1    4    4    0    0 -0.30023819506E+02 -0.11776287086E+02 -0.72710074221E+02  0.79541596467E+02  0.00000000000E+00 0.  1.
         14    1    4    4    0    0 -0.83466167865E+02 -0.56381740641E+02 -0.27574211583E+02  0.10443102508E+03  0.00000000000E+00 0. -1.
         -5    1    5    5    0  502  0.47810939913E+02  0.71444249291E+02  0.36963536116E+02  0.93693968506E+02  0.47000000000E+01 0.  1.
         11    1    6    6    0    0  0.52189457015E+02 -0.50175933278E+02  0.10295069706E+03  0.12585789498E+03  0.00000000000E+00 0. -1.
        -12    1    6    6    0    0 -0.15230989838E+02  0.17450600661E+02  0.43342544139E+02  0.49143490386E+02  0.00000000000E+00 0.  1.
<mgrwt>
<rscale>  2 0.19630557E+03</rscale>
<asrwt>0</asrwt>
<pdfrwt beam="1">  1       21 0.43053149E-01 0.19650483E+03</pdfrwt>
<pdfrwt beam="2">  1       21 0.33918971E-01 0.19650483E+03</pdfrwt>
<totfact> 0.43358807E+04</totfact>
</mgrwt>
</event>
<event>
12    1  0.1013215E-001  0.3355661E+03  0.7546771E-02  0.1068719E+00
         21   -1    0    0  503  502  0.00000000000E+00  0.00000000000E+00  0.17107435204E+03  0.17107435204E+03  0.00000000000E+00 0.  1.
         21   -1    0    0  501  503 -0.00000000000E+00 -0.00000000000E+00 -0.71605509419E+03  0.71605509419E+03  0.00000000000E+00 0.  1.
          6    2    1    2  501    0  0.22478804519E+03  0.17917643244E+03 -0.39897433794E+03  0.52133014210E+03  0.17312058087E+03 0.  0.
         24    2    3    3    0    0  0.82066298771E+02  0.14441722855E+03 -0.26237752703E+03  0.32068498788E+03  0.80035501316E+02 0.  0.
         -6    2    1    2    0  502 -0.22478804519E+03 -0.17917643244E+03 -0.14600640421E+03  0.36579930414E+03  0.17279294441E+03 0.  0.
        -24    2    5    5    0    0 -0.10702207661E+03 -0.11998113395E+03 -0.14949323540E+03  0.23386312748E+03  0.80588693876E+02 0.  0.
          5    1    3    3  501    0  0.14272174642E+03  0.34759203892E+02 -0.13659681091E+03  0.20064515421E+03  0.47000000000E+01 0. -1.
        -13    1    4    4    0    0  0.40126213500E+02  0.83030541659E+02 -0.74232063237E+02  0.11838320434E+03  0.00000000000E+00 0.  1.
         14    1    4    4    0    0  0.41940085271E+02  0.61386686887E+02 -0.18814546379E+03  0.20230178354E+03  0.00000000000E+00 0. -1.
         -5    1    5    5    0  502 -0.11776596858E+03 -0.59195298489E+02  0.34868311871E+01  0.13193617666E+03  0.47000000000E+01 0.  1.
         13    1    6    6    0    0 -0.43183425812E+01  0.11621441618E+02 -0.61956186474E+01  0.13859714223E+02  0.00000000000E+00 0. -1.
        -14    1    6    6    0    0 -0.10270373403E+03 -0.13160257557E+03 -0.14329761675E+03  0.22000341326E+03  0.00000000000E+00 0.  1.
<mgrwt>
<rscale>  2 0.33552384E+03</rscale>
<asrwt>0</asrwt>
<pdfrwt beam="1">  1       21 0.26319131E-01 0.33556608E+03</pdfrwt>
<pdfrwt beam="2">  1       21 0.11016232E+00 0.33556608E+03</pdfrwt>
<totfact> 0.82419057E+03</totfact>
</mgrwt>
</event>
<event>
12    1  0.1013215E-001  0.1927214E+03  0.7546771E-02  0.1156094E+00
         21   -1    0    0  501  502  0.00000000000E+00  0.00000000000E+00  0.55255859459E+03  0.55255859459E+03  0.00000000000E+00 0. -1.
         21   -1    0    0  502  503 -0.00000000000E+00 -0.00000000000E+00 -0.90319596208E+02  0.90319596208E+02  0.00000000000E+00 0. -1.
         -6    2    1    2    0  503 -0.35106865968E+01 -0.85525776153E+02  0.68324854919E+02  0.20447450430E+03  0.17266891383E+03 0.  0.
        -24    2    3    3    0    0 -0.83781267593E+01 -0.62353312447E+02 -0.26688260742E+02  0.10644268704E+03  0.81606701818E+02 0.  0.
          6    2    1    2  501    0  0.35106865968E+01  0.85525776153E+02  0.39391414346E+03  0.43840368650E+03  0.17234400659E+03 0.  0.
         24    2    5    5    0    0 -0.34355298224E+02  0.11327459361E+03  0.31871403507E+03  0.34962882531E+03  0.81549121776E+02 0.  0.
          5    1    5    5  501    0  0.37865984820E+02 -0.27748817460E+02  0.75200108396E+02  0.88774861192E+02  0.47000000000E+01 0. -1.
        -11    1    6    6    0    0  0.85015515899E+01  0.18767131276E+02  0.80979463079E+01  0.22137261126E+02  0.00000000000E+00 0.  1.
         12    1    6    6    0    0 -0.42856849814E+02  0.94507462337E+02  0.31061608876E+03  0.32749156418E+03  0.00000000000E+00 0. -1.
         -5    1    3    3    0  503  0.48674401625E+01 -0.23172463706E+02  0.95013115661E+02  0.98031817261E+02  0.47000000000E+01 0.  1.
         13    1    4    4    0    0 -0.39196011121E+02 -0.48444106294E+02  0.16340803401E+01  0.62336417454E+02  0.00000000000E+00 0. -1.
        -14    1    4    4    0    0  0.30817884362E+02 -0.13909206153E+02 -0.28322341082E+02  0.44106269585E+02  0.00000000000E+00 0.  1.
<mgrwt>
<rscale>  2 0.19264859E+03</rscale>
<asrwt>0</asrwt>
<pdfrwt beam="1">  1       21 0.85009013E-01 0.19272140E+03</pdfrwt>
<pdfrwt beam="2">  1       21 0.13895323E-01 0.19272140E+03</pdfrwt>
<totfact> 0.53996617E+04</totfact>
</mgrwt>
</event>
<event>
12    1  0.1013215E-001  0.1880133E+03  0.7546771E-02  0.1161995E+00
         21   -1    0    0  503  502  0.00000000000E+00  0.00000000000E+00  0.20445050610E+03  0.20445050610E+03  0.00000000000E+00 0.  1.
         21   -1    0    0  501  503 -0.00000000000E+00 -0.00000000000E+00 -0.38212403842E+03  0.38212403842E+03  0.00000000000E+00 0. -1.
          6    2    1    2  501    0 -0.63755247442E+02 -0.36760646002E+02 -0.31008115494E+03  0.36262833320E+03  0.17301129650E+03 0.  0.
         24    2    3    3    0    0 -0.40766699421E+02  0.44800093388E+02 -0.14059769447E+03  0.17308319102E+03  0.80753372529E+02 0.  0.
         -6    2    1    2    0  502  0.63755247442E+02  0.36760646002E+02  0.13240762262E+03  0.22394621132E+03  0.16493650405E+03 0.  0.
        -24    2    5    5    0    0  0.24466625359E+02  0.31028260068E+01  0.15073544647E+03  0.16886042551E+03  0.72002952680E+02 0.  0.
          5    1    3    3  501    0 -0.22988548021E+02 -0.81560739389E+02 -0.16948346047E+03  0.18954514217E+03  0.47000000000E+01 0. -1.
        -13    1    4    4    0    0 -0.15474220570E+02  0.12655108652E+02  0.60121420445E+01  0.20874604887E+02  0.00000000000E+00 0.  1.
         14    1    4    4    0    0 -0.25292478851E+02  0.32144984736E+02 -0.14660983652E+03  0.15220858614E+03  0.00000000000E+00 0. -1.
         -5    1    5    5    0  502  0.39288622083E+02  0.33657819995E+02 -0.18327823848E+02  0.55085785816E+02  0.47000000000E+01 0.  1.
         11    1    6    6    0    0 -0.19986748740E+02 -0.17348637069E+02  0.64332037076E+02  0.69563326026E+02  0.00000000000E+00 0. -1.
        -12    1    6    6    0    0  0.44453374099E+02  0.20451463076E+02  0.86403409390E+02  0.99297099479E+02  0.00000000000E+00 0.  1.
<mgrwt>
<rscale>  2 0.18613458E+03</rscale>
<asrwt>0</asrwt>
<pdfrwt beam="1">  1       21 0.31453924E-01 0.18801326E+03</pdfrwt>
<pdfrwt beam="2">  1       21 0.58788314E-01 0.18801326E+03</pdfrwt>
<totfact> 0.26366414E+04</totfact>
</mgrwt>
</event>
<event>
12    1  0.1013215E-001  0.2205595E+03  0.7546771E-02  0.1134968E+00
         21   -1    0    0  501  502  0.00000000000E+00  0.00000000000E+00  0.10125572347E+04  0.10125572347E+04  0.00000000000E+00 0. -1.
         21   -1    0    0  502  503 -0.00000000000E+00 -0.00000000000E+00 -0.20588068929E+03  0.20588068929E+03  0.00000000000E+00 0.  1.
         -6    2    1    2    0  503  0.11322361088E+03  0.51389533421E+02 -0.13128539562E+03  0.25667559580E+03  0.18217034931E+03 0.  0.
        -24    2    3    3    0    0  0.56349531975E+02  0.23742125496E+02  0.62238165115E+01  0.10524933177E+03  0.85438443738E+02 0.  0.
          6    2    1    2  501    0 -0.11322361088E+03 -0.51389533421E+02  0.93796194101E+03  0.96176232817E+03  0.17249261691E+03 0.  0.
         24    2    5    5    0    0 -0.13872297454E+03 -0.74028523331E+02  0.81316321209E+03  0.83230363147E+03  0.82283895889E+02 0.  0.
          5    1    5    5  501    0  0.25499363658E+02  0.22638989910E+02  0.12479872892E+03  0.12945869670E+03  0.47000000000E+01 0. -1.
        -11    1    6    6    0    0 -0.62817724785E+01 -0.35060434429E+02  0.10702103429E+03  0.11279271479E+03  0.00000000000E+00 0.  1.
         12    1    6    6    0    0 -0.13244120206E+03 -0.38968088902E+02  0.70614217780E+03  0.71951091668E+03  0.00000000000E+00 0. -1.
         -5    1    3    3    0  503  0.56874078910E+02  0.27647407924E+02 -0.13750921213E+03  0.15142626403E+03  0.47000000000E+01 0.  1.
         13    1    4    4    0    0  0.58756069029E+01  0.46267159247E+02 -0.98910447341E+01  0.47676047940E+02  0.00000000000E+00 0. -1.
        -14    1    4    4    0    0  0.50473925072E+02 -0.22525033750E+02  0.16114861246E+02  0.57573283826E+02  0.00000000000E+00 0.  1.
<mgrwt>
<rscale>  2 0.21855145E+03</rscale>
<asrwt>0</asrwt>
<pdfrwt beam="1">  1       21 0.15577803E+00 0.22055953E+03</pdfrwt>
<pdfrwt beam="2">  1       21 0.31673953E-01 0.22055953E+03</pdfrwt>
<totfact> 0.25275624E+03</totfact>
</mgrwt>
</event>
<event>
12    1  0.1013215E-001  0.2696803E+03  0.7546771E-02  0.1103359E+00
         21   -1    0    0  503  502  0.00000000000E+00  0.00000000000E+00  0.63250412445E+03  0.63250412445E+03  0.00000000000E+00 0. -1.
         21   -1    0    0  501  503 -0.00000000000E+00 -0.00000000000E+00 -0.18080252859E+03  0.18080252859E+03  0.00000000000E+00 0.  1.
          6    2    1    2  501    0  0.11686270691E+03 -0.15127029950E+03 -0.26029847471E+02  0.27093357664E+03  0.19023105481E+03 0.  0.
         24    2    3    3    0    0  0.45970502930E+02 -0.14613638329E+03 -0.72877231284E+02  0.18567614851E+03  0.75467950989E+02 0.  0.
         -6    2    1    2    0  502 -0.11686270691E+03  0.15127029950E+03  0.47773144332E+03  0.54237307639E+03  0.17146902425E+03 0.  0.
        -24    2    5    5    0    0 -0.72960792638E+02  0.15409352320E+03  0.26665457369E+03  0.32670925569E+03  0.81031999393E+02 0.  0.
          5    1    3    3  501    0  0.70892203982E+02 -0.51339162107E+01  0.46847383813E+02  0.85257428130E+02  0.47000000000E+01 0. -1.
        -13    1    4    4    0    0  0.50007177368E+02 -0.84093865871E+02 -0.11846512188E+02  0.98553720967E+02  0.00000000000E+00 0.  1.
         14    1    4    4    0    0 -0.40366744378E+01 -0.62042517419E+02 -0.61030719096E+02  0.87122427546E+02  0.00000000000E+00 0. -1.
         -5    1    5    5    0  502 -0.43901914275E+02 -0.28232236965E+01  0.21107686963E+03  0.21566382071E+03  0.47000000000E+01 0.  1.
         13    1    6    6    0    0 -0.70267491625E+02  0.14790743663E+03  0.27241161342E+03  0.31783992404E+03  0.00000000000E+00 0. -1.
        -14    1    6    6    0    0 -0.26933010127E+01  0.61860865675E+01 -0.57570397270E+01  0.88693316425E+01  0.00000000000E+00 0.  1.
<mgrwt>
<rscale>  2 0.26639834E+03</rscale>
<asrwt>0</asrwt>
<pdfrwt beam="1">  1       21 0.97308326E-01 0.26968027E+03</pdfrwt>
<pdfrwt beam="2">  1       21 0.27815774E-01 0.26968027E+03</pdfrwt>
<totfact> 0.10311051E+04</totfact>
</mgrwt>
</event>
<event>
12    1  0.1013215E-001  0.1916796E+03  0.7546771E-02  0.1157238E+00
         21   -1    0    0  503  502  0.00000000000E+00  0.00000000000E+00  0.16179940576E+03  0.16179940576E+03  0.00000000000E+00 0. -1.
         21   -1    0    0  501  503 -0.00000000000E+00 -0.00000000000E+00 -0.66288406410E+03  0.66288406410E+03  0.00000000000E+00 0. -1.
          6    2    1    2  501    0  0.55909937340E+02  0.58643371746E+02 -0.58573569806E+03  0.61630137794E+03  0.17371273506E+03 0.  0.
         24    2    3    3    0    0  0.63130411062E+02  0.97837796655E+02 -0.34257159955E+03  0.36984812275E+03  0.76646264307E+02 0.  0.
         -6    2    1    2    0  502 -0.55909937340E+02 -0.58643371746E+02  0.84651039722E+02  0.20838209193E+03  0.17231462958E+03 0.  0.
        -24    2    5    5    0    0 -0.98453704321E+02 -0.68120076562E+02  0.49064928206E+02  0.15191757762E+03  0.79612225733E+02 0.  0.
          5    1    3    3  501    0 -0.72204737215E+01 -0.39194424909E+02 -0.24316409852E+03  0.24645325519E+03  0.47000000000E+01 0. -1.
        -11    1    4    4    0    0 -0.18712452157E+01  0.64988632302E+02 -0.18928076349E+03  0.20013553236E+03  0.00000000000E+00 0.  1.
         12    1    4    4    0    0  0.65001656278E+02  0.32849164353E+02 -0.15329083606E+03  0.16971259039E+03  0.00000000000E+00 0. -1.
         -5    1    5    5    0  502  0.42543766981E+02  0.94767048160E+01  0.35586111516E+02  0.56464514307E+02  0.47000000000E+01 0.  1.
         11    1    6    6    0    0 -0.70053405324E+02 -0.16004725256E+02  0.57418690498E+02  0.91981176588E+02  0.00000000000E+00 0. -1.
        -12    1    6    6    0    0 -0.28400298997E+02 -0.52115351306E+02 -0.83537622917E+01  0.59936401037E+02  0.00000000000E+00 0.  1.
<mgrwt>
<rscale>  2 0.19136231E+03</rscale>
<asrwt>0</asrwt>
<pdfrwt beam="1">  1       21 0.24892216E-01 0.19167963E+03</pdfrwt>
<pdfrwt beam="2">  1       21 0.10198217E+00 0.19167963E+03</pdfrwt>
<totfact> 0.11973534E+04</totfact>
</mgrwt>
</event>
<event>
12    1  0.1013215E-001  0.2131518E+03  0.7546771E-02  0.1139102E+00
         21   -1    0    0  503  502  0.00000000000E+00  0.00000000000E+00  0.64045466660E+03  0.64045466660E+03  0.00000000000E+00 0.  1.
         21   -1    0    0  501  503 -0.00000000000E+00 -0.00000000000E+00 -0.83650308611E+02  0.83650308611E+02  0.00000000000E+00 0.  1.
          6    2    1    2  501    0 -0.11505091262E+03 -0.49608880269E+02  0.41963315928E+03  0.47066516236E+03  0.17244115865E+03 0.  0.
         24    2    3    3    0    0 -0.10867431404E+03 -0.79922635965E+02  0.23419281347E+03  0.28259656677E+03  0.82563983659E+02 0.  0.
         -6    2    1    2    0  502  0.11505091262E+03  0.49608880269E+02  0.13717119872E+03  0.25343981286E+03  0.17238923252E+03 0.  0.
        -24    2    5    5    0    0  0.37139165238E+02  0.78960641608E+02  0.38795451837E+02  0.12447608211E+03  0.79844269786E+02 0.  0.
          5    1    3    3  501    0 -0.63765985795E+01  0.30313755696E+02  0.18544034581E+03  0.18806859559E+03  0.47000000000E+01 0. -1.
        -13    1    4    4    0    0 -0.42957655550E+02  0.11294034479E+02  0.50729412980E+02  0.67426913962E+02  0.00000000000E+00 0.  1.
         14    1    4    4    0    0 -0.65716658485E+02 -0.91216670445E+02  0.18346340049E+03  0.21516965281E+03  0.00000000000E+00 0. -1.
         -5    1    5    5    0  502  0.77911747377E+02 -0.29351761339E+02  0.98375746879E+02  0.12896373074E+03  0.47000000000E+01 0.  1.
         11    1    6    6    0    0  0.56300291805E+02  0.76708834561E+02  0.43490196010E+02  0.10462009991E+03  0.00000000000E+00 0. -1.
        -12    1    6    6    0    0 -0.19161126568E+02  0.22518070470E+01 -0.46947441723E+01  0.19855982201E+02  0.00000000000E+00 0.  1.
<mgrwt>
<rscale>  2 0.21314134E+03</rscale>
<asrwt>0</asrwt>
<pdfrwt beam="1">  1       21 0.98531484E-01 0.21315184E+03</pdfrwt>
<pdfrwt beam="2">  1       21 0.12869279E-01 0.21315184E+03</pdfrwt>
<totfact> 0.43542652E+04</totfact>
</mgrwt>
</event>
<event>
11    1  0.1013215E-001  0.1726662E+03  0.7546771E-02  0.1175675E+00
         21   -1    0    0  501  502  0.00000000000E+00  0.00000000000E+00  0.10853983964E+03  0.10853983964E+03  0.00000000000E+00 0.  1.
         21   -1    0    0  502  503 -0.00000000000E+00 -0.00000000000E+00 -0.33887713000E+03  0.33887713000E+03  0.00000000000E+00 0.  1.
         -6    2    1    2    0  503 -0.83148629481E+01 -0.11820155171E+02 -0.21460360254E+03  0.27403544838E+03  0.16979949273E+03 0.  0.
          6    2    1    2  501    0  0.83148629481E+01  0.11820155171E+02 -0.15733687813E+02  0.17338152125E+03  0.17206030910E+03 0.  0.
         24    2    4    4    0    0  0.32940511997E+02 -0.44105630124E+02  0.23738195994E+02  0.10048271699E+03  0.80640501767E+02 0.  0.
          5    1    4    4  501    0 -0.24625649049E+02  0.55925785295E+02 -0.39471883807E+02  0.72898804265E+02  0.47000000000E+01 0. -1.
        -11    1    5    5    0    0 -0.20603399738E+02  0.28217991233E+01  0.20515255607E+02  0.29211955492E+02  0.00000000000E+00 0.  1.
         12    1    5    5    0    0  0.53543911735E+02 -0.46927429247E+02  0.32229403871E+01  0.71270761497E+02  0.00000000000E+00 0. -1.
         -5    1    3    3    0  503 -0.34868502789E+02  0.22278115828E+02 -0.74260701270E+02  0.85140288258E+02  0.47000000000E+01 0.  1.
         13    1    3    3    0    0  0.12984228500E+02 -0.48405990731E+02 -0.30677559569E+01  0.50210967477E+02  0.00000000000E+00 0. -1.
        -14    1    3    3    0    0  0.13569411340E+02  0.14307719732E+02 -0.13727514532E+03  0.13868419265E+03  0.00000000000E+00 0.  1.
<mgrwt>
<rscale>  2 0.17210019E+03</rscale>
<asrwt>0</asrwt>
<pdfrwt beam="1">  1       21 0.16698437E-01 0.17266616E+03</pdfrwt>
<pdfrwt beam="2">  1       21 0.52134943E-01 0.17266616E+03</pdfrwt>
<totfact> 0.11339493E+05</totfact>
</mgrwt>
</event>
<event>
12    1  0.1013215E-001  0.2035912E+03  0.7546771E-02  0.1147228E+00
         21   -1    0    0  501  502  0.00000000000E+00  0.00000000000E+00  0.32385180861E+02  0.32385180861E+02  0.00000000000E+00 0.  1.
         21   -1    0    0  502  503 -0.00000000000E+00 -0.00000000000E+00 -0.12740459587E+04  0.12740459587E+04  0.00000000000E+00 0.  1.
         -6    2    1    2    0  503 -0.92983303239E+02 -0.51670949386E+02 -0.56303163333E+03  0.59792080095E+03  0.17084754134E+03 0.  0.
        -24    2    3    3    0    0 -0.66823484015E+02  0.12695260234E+02 -0.20895420306E+03  0.23706035464E+03  0.88933711925E+02 0.  0.
          6    2    1    2  501    0  0.92983303239E+02  0.51670949386E+02 -0.67862914446E+03  0.70851033857E+03  0.17359032938E+03 0.  0.
         24    2    5    5    0    0  0.23962649455E+02  0.86989063106E+02 -0.33325882591E+03  0.35451321041E+03  0.80478976393E+02 0.  0.
          5    1    5    5  501    0  0.69020653784E+02 -0.35318113720E+02 -0.34537031855E+03  0.35399712815E+03  0.47000000000E+01 0. -1.
        -13    1    6    6    0    0  0.50347907232E+02  0.31366971435E+02 -0.16006635650E+03  0.17070453170E+03  0.00000000000E+00 0.  1.
         14    1    6    6    0    0 -0.26385257778E+02  0.55622091671E+02 -0.17319246941E+03  0.18380867872E+03  0.00000000000E+00 0. -1.
         -5    1    3    3    0  503 -0.26159819224E+02 -0.64366209620E+02 -0.35407743027E+03  0.36086044631E+03  0.47000000000E+01 0.  1.
         11    1    4    4    0    0 -0.15478874746E+02  0.30185254729E+01  0.52147437797E+01  0.16610256233E+02  0.00000000000E+00 0. -1.
        -12    1    4    4    0    0 -0.51344609269E+02  0.96767347615E+01 -0.21416894684E+03  0.22045009841E+03  0.00000000000E+00 0.  1.
<mgrwt>
<rscale>  2 0.20300532E+03</rscale>
<asrwt>0</asrwt>
<pdfrwt beam="1">  1       21 0.49823346E-02 0.20359122E+03</pdfrwt>
<pdfrwt beam="2">  1       21 0.19600710E+00 0.20359122E+03</pdfrwt>
<totfact> 0.38271997E+04</totfact>
</mgrwt>
</event>
<event>
12    1  0.1013215E-001  0.2621831E+03  0.7546771E-02  0.1106040E+00
         21   -1    0    0  503  502  0.00000000000E+00  0.00000000000E+00  0.37740385043E+03  0.37740385043E+03  0.00000000000E+00 0.  1.
         21   -1    0    0  501  503 -0.00000000000E+00 -0.00000000000E+00 -0.81802182938E+03  0.81802182938E+03  0.00000000000E+00 0.  1.
          6    2    1    2  501    0 -0.99161583422E+02 -0.17004846840E+03 -0.74780947917E+03  0.79243863839E+03  0.17317758875E+03 0.  0.
         24    2    3    3    0    0 -0.26059018077E+02 -0.91970653399E+02 -0.58434579592E+03  0.59703496392E+03  0.76505329379E+02 0.  0.
         -6    2    1    2    0  502  0.99161583422E+02  0.17004846840E+03  0.30719150022E+03  0.40298704143E+03  0.17112111651E+03 0.  0.
        -24    2    5    5    0    0 -0.12685465392E+02  0.50105187656E+02  0.82747518377E+02  0.12497023634E+03  0.78095821341E+02 0.  0.
          5    1    3    3  501    0 -0.73102565346E+02 -0.78077815000E+02 -0.16346368325E+03  0.19540367447E+03  0.47000000000E+01 0. -1.
        -11    1    4    4    0    0  0.10038143862E+02 -0.74962716479E+02 -0.27811880389E+03  0.28821908728E+03  0.00000000000E+00 0.  1.
         12    1    4    4    0    0 -0.36097161939E+02 -0.17007936920E+02 -0.30622699202E+03  0.30881587663E+03  0.00000000000E+00 0. -1.
         -5    1    5    5    0  502  0.11184704881E+03  0.11994328074E+03  0.22444398184E+03  0.27801680509E+03  0.47000000000E+01 0.  1.
         13    1    6    6    0    0 -0.19830853173E+02 -0.61887963421E+01  0.60589379331E+02  0.64051829212E+02  0.00000000000E+00 0. -1.
        -14    1    6    6    0    0  0.71453877818E+01  0.56293983998E+02  0.22158139047E+02  0.60918407128E+02  0.00000000000E+00 0.  1.
<mgrwt>
<rscale>  2 0.26184400E+03</rscale>
<asrwt>0</asrwt>
<pdfrwt beam="1">  1       21 0.58062131E-01 0.26218310E+03</pdfrwt>
<pdfrwt beam="2">  1       21 0.12584951E+00 0.26218310E+03</pdfrwt>
<totfact> 0.12277956E+03</totfact>
</mgrwt>
</event>
<event>
12    1  0.1013215E-001  0.1760135E+03  0.7546771E-02  0.1176690E+00
         21   -1    0    0  503  502  0.00000000000E+00  0.00000000000E+00  0.35447500396E+03  0.35447500396E+03  0.00000000000E+00 0. -1.
         21   -1    0    0  501  503 -0.00000000000E+00 -0.00000000000E+00 -0.78329068960E+02  0.78329068960E+02  0.00000000000E+00 0. -1.
          6    2    1    2  501    0 -0.21694384832E+02  0.20178364130E+02  0.14329093451E+03  0.22696483113E+03  0.17350195948E+03 0.  0.
         24    2    3    3    0    0  0.25896638455E+02  0.19718485228E+02  0.14300881101E+02  0.89394336966E+02  0.82020593380E+02 0.  0.
         -6    2    1    2    0  502  0.21694384832E+02 -0.20178364130E+02  0.13285500050E+03  0.20583924179E+03  0.15440702572E+03 0.  0.
        -24    2    5    5    0    0  0.24374123151E+02  0.22451475526E+01  0.15337069569E+03  0.17496888995E+03  0.80575452744E+02 0.  0.
          5    1    3    3  501    0 -0.47591023288E+02  0.45987890190E+00  0.12899005341E+03  0.13757049416E+03  0.47000000000E+01 0. -1.
        -11    1    4    4    0    0  0.22324972679E+02  0.51460515987E+02  0.61655771858E+01  0.56432290869E+02  0.00000000000E+00 0.  1.
         12    1    4    4    0    0  0.35716657767E+01 -0.31742030759E+02  0.81353039149E+01  0.32962046097E+02  0.00000000000E+00 0. -1.
         -5    1    5    5    0  502 -0.26797383189E+01 -0.22423511683E+02 -0.20515695198E+02  0.30870351846E+02  0.47000000000E+01 0.  1.
         11    1    6    6    0    0  0.32979336063E+02  0.20981005420E+02  0.28416891930E+02  0.48325551653E+02  0.00000000000E+00 0. -1.
        -12    1    6    6    0    0 -0.86052129118E+01 -0.18735857868E+02  0.12495380376E+03  0.12664333829E+03  0.00000000000E+00 0.  1.
<mgrwt>
<rscale>  2 0.17111538E+03</rscale>
<asrwt>0</asrwt>
<pdfrwt beam="1">  1       21 0.54534615E-01 0.17601347E+03</pdfrwt>
<pdfrwt beam="2">  1       21 0.12050626E-01 0.17601347E+03</pdfrwt>
<totfact> 0.18589025E+05</totfact>
</mgrwt>
</event>
<event>
12    1  0.1013215E-001  0.2017923E+03  0.7546771E-02  0.1150106E+00
         21   -1    0    0  503  502  0.00000000000E+00  0.00000000000E+00  0.27216638138E+02  0.27216638138E+02  0.00000000000E+00 0.  1.
         21   -1    0    0  501  503 -0.00000000000E+00 -0.00000000000E+00 -0.15545636249E+04  0.15545636249E+04  0.00000000000E+00 0.  1.
          6    2    1    2  501    0 -0.91059417033E+02 -0.51274643368E+02 -0.10013841924E+04  0.10215138017E+04  0.17262456298E+03 0.  0.
         24    2    3    3    0    0 -0.57732975961E+02  0.14398890431E+02 -0.30633621312E+03  0.32255926223E+03  0.81622163785E+02 0.  0.
         -6    2    1    2    0  502  0.91059417033E+02  0.51274643368E+02 -0.52596279442E+03  0.56026646142E+03  0.16229830620E+03 0.  0.
        -24    2    5    5    0    0  0.66454141257E+02  0.95867497002E+02 -0.40827119256E+03  0.43194130667E+03  0.79253995912E+02 0.  0.
          5    1    3    3  501    0 -0.33326441072E+02 -0.65673533799E+02 -0.69504797925E+03  0.69895453942E+03  0.47000000000E+01 0. -1.
        -11    1    4    4    0    0 -0.54417048582E+02 -0.24165381351E+02 -0.14726018434E+03  0.15884187963E+03  0.00000000000E+00 0.  1.
         12    1    4    4    0    0 -0.33159273790E+01  0.38564271782E+02 -0.15907602878E+03  0.16371738260E+03  0.00000000000E+00 0. -1.
         -5    1    5    5    0  502  0.24605275776E+02 -0.44592853634E+02 -0.11769160187E+03  0.12832515475E+03  0.47000000000E+01 0.  1.
         11    1    6    6    0    0 -0.73862448772E+01 -0.13290449652E+01 -0.20538288273E+01  0.77808217276E+01  0.00000000000E+00 0. -1.
        -12    1    6    6    0    0  0.73840386134E+02  0.97196541967E+02 -0.40621736373E+03  0.42416048495E+03  0.00000000000E+00 0.  1.
<mgrwt>
<rscale>  2 0.19956586E+03</rscale>
<asrwt>0</asrwt>
<pdfrwt beam="1">  1       21 0.41871737E-02 0.20179233E+03</pdfrwt>
<pdfrwt beam="2">  1       21 0.23916371E+00 0.20179233E+03</pdfrwt>
<totfact> 0.27762582E+04</totfact>
</mgrwt>
</event>
<event>
12    1  0.1013215E-001  0.2203788E+03  0.7546771E-02  0.1133967E+00
         21   -1    0    0  503  502  0.00000000000E+00  0.00000000000E+00  0.37556801521E+03  0.37556801521E+03  0.00000000000E+00 0.  1.
         21   -1    0    0  501  503 -0.00000000000E+00 -0.00000000000E+00 -0.15020300178E+03  0.15020300178E+03  0.00000000000E+00 0.  1.
          6    2    1    2  501    0  0.13500819458E+03 -0.12108256378E+02  0.11563595289E+02  0.21872401054E+03  0.17126778323E+03 0.  0.
         24    2    3    3    0    0  0.90043884839E+02  0.56395046594E+02 -0.13061865447E+02  0.13303273336E+03  0.78986032550E+02 0.  0.
         -6    2    1    2    0  502 -0.13500819458E+03  0.12108256378E+02  0.21380141813E+03  0.30704700645E+03  0.17376131703E+03 0.  0.
        -24    2    5    5    0    0 -0.13406165298E+03 -0.15593324217E+02  0.22713389152E+03  0.27593240610E+03  0.79581464529E+02 0.  0.
          5    1    3    3  501    0  0.44964309745E+02 -0.68503302972E+02  0.24625460736E+02  0.85691277184E+02  0.47000000000E+01 0. -1.
        -11    1    4    4    0    0  0.79669229639E+02  0.44186964473E+02 -0.41719597516E+02  0.10020079240E+03  0.00000000000E+00 0.  1.
         12    1    4    4    0    0  0.10374655200E+02  0.12208082122E+02  0.28657732069E+02  0.32831940956E+02  0.00000000000E+00 0. -1.
         -5    1    5    5    0  502 -0.94654160853E+00  0.27701580595E+02 -0.13332473391E+02  0.31114600354E+02  0.47000000000E+01 0.  1.
         11    1    6    6    0    0 -0.18537873884E+02 -0.32912349661E+02  0.37639127012E+02  0.53325223024E+02  0.00000000000E+00 0. -1.
        -12    1    6    6    0    0 -0.11552377909E+03  0.17319025444E+02  0.18949476451E+03  0.22260718307E+03  0.00000000000E+00 0.  1.
<mgrwt>
<rscale>  2 0.21988699E+03</rscale>
<asrwt>0</asrwt>
<pdfrwt beam="1">  1       21 0.57779694E-01 0.22037881E+03</pdfrwt>
<pdfrwt beam="2">  1       21 0.23108154E-01 0.22037881E+03</pdfrwt>
<totfact> 0.48763252E+04</totfact>
</mgrwt>
</event>
<event>
12    1  0.1013215E-001  0.2041383E+03  0.7546771E-02  0.1146329E+00
         21   -1    0    0  501  502  0.00000000000E+00  0.00000000000E+00  0.62517979806E+03  0.62517979806E+03  0.00000000000E+00 0. -1.
         21   -1    0    0  502  503 -0.00000000000E+00 -0.00000000000E+00 -0.69716931084E+02  0.69716931084E+02  0.00000000000E+00 0. -1.
         -6    2    1    2    0  503  0.70606041145E+02  0.81876507475E+02  0.20417132423E+03  0.28859855752E+03  0.17295728445E+03 0.  0.
        -24    2    3    3    0    0 -0.17183966296E+02  0.76526989542E+02  0.87965887242E+02  0.14278533338E+03  0.80610081782E+02 0.  0.
          6    2    1    2  501    0 -0.70606041145E+02 -0.81876507475E+02  0.35129154274E+03  0.40629817162E+03  0.17315738718E+03 0.  0.
         24    2    5    5    0    0  0.21467651111E+02 -0.32250341761E+01  0.11363188289E+03  0.13952519139E+03  0.77998803415E+02 0.  0.
          5    1    5    5  501    0 -0.92073692255E+02 -0.78651473298E+02  0.23765965985E+03  0.26677298023E+03  0.47000000000E+01 0. -1.
        -13    1    6    6    0    0  0.30708334485E+02  0.12657234624E+02  0.10596120634E+02  0.34863808852E+02  0.00000000000E+00 0.  1.
         14    1    6    6    0    0 -0.92406833744E+01 -0.15882268800E+02  0.10303576226E+03  0.10466138254E+03  0.00000000000E+00 0. -1.
         -5    1    3    3    0  503  0.87790007441E+02  0.53495179326E+01  0.11620543699E+03  0.14581322414E+03  0.47000000000E+01 0.  1.
         11    1    4    4    0    0 -0.36387774388E+01  0.40237870396E+02 -0.62825684629E+01  0.40887621376E+02  0.00000000000E+00 0. -1.
        -12    1    4    4    0    0 -0.13545188857E+02  0.36289119146E+02  0.94248455704E+02  0.10189771201E+03  0.00000000000E+00 0.  1.
<mgrwt>
<rscale>  2 0.20409589E+03</rscale>
<asrwt>0</asrwt>
<pdfrwt beam="1">  1       21 0.96181503E-01 0.20413833E+03</pdfrwt>
<pdfrwt beam="2">  1       21 0.10725682E-01 0.20413833E+03</pdfrwt>
<totfact> 0.64147122E+04</totfact>
</mgrwt>
</event>
<event>
12    1  0.1013215E-001  0.1995463E+03  0.7546771E-02  0.1150189E+00
         21   -1    0    0  503  502  0.00000000000E+00  0.00000000000E+00  0.60595465427E+02  0.60595465427E+02  0.00000000000E+00 0. -1.
         21   -1    0    0  501  503 -0.00000000000E+00 -0.00000000000E+00 -0.68257863032E+03  0.68257863032E+03  0.00000000000E+00 0. -1.
          6    2    1    2  501    0  0.78242004175E+02  0.60589054518E+02 -0.38442400754E+03  0.43312878269E+03  0.17327977399E+03 0.  0.
         24    2    3    3    0    0 -0.71135200736E+01  0.60172928056E+02 -0.13169599497E+03  0.16633433556E+03  0.81559135946E+02 0.  0.
         -6    2    1    2    0  502 -0.78242004175E+02 -0.60589054518E+02 -0.23755915735E+03  0.31004531305E+03  0.17291876174E+03 0.  0.
        -24    2    5    5    0    0 -0.85188728429E+02 -0.10270980283E+03 -0.19303550458E+03  0.24818369271E+03  0.80783762289E+02 0.  0.
          5    1    3    3  501    0  0.85355524249E+02  0.41612646186E+00 -0.25272801258E+03  0.26679444714E+03  0.47000000000E+01 0. -1.
        -13    1    4    4    0    0  0.22114516580E+02  0.65020674871E+02 -0.10973747504E+03  0.12945676279E+03  0.00000000000E+00 0.  1.
         14    1    4    4    0    0 -0.29228036653E+02 -0.48477468148E+01 -0.21958519930E+02  0.36877572769E+02  0.00000000000E+00 0. -1.
         -5    1    5    5    0  502  0.69467242536E+01  0.42120748310E+02 -0.44523652770E+02  0.61861620348E+02  0.47000000000E+01 0.  1.
         13    1    6    6    0    0 -0.84323382885E+02 -0.54539510409E+02 -0.16286818777E+03  0.19134010997E+03  0.00000000000E+00 0. -1.
        -14    1    6    6    0    0 -0.86534554383E+00 -0.48170292419E+02 -0.30167316807E+02  0.56843582733E+02  0.00000000000E+00 0.  1.
<mgrwt>
<rscale>  2 0.19946790E+03</rscale>
<asrwt>0</asrwt>
<pdfrwt beam="1">  1       21 0.93223793E-02 0.19954630E+03</pdfrwt>
<pdfrwt beam="2">  1       21 0.10501210E+00 0.19954630E+03</pdfrwt>
<totfact> 0.66847980E+04</totfact>
</mgrwt>
</event>
<event>
12    1  0.1013215E-001  0.1915159E+03  0.7546771E-02  0.1157152E+00
         21   -1    0    0  503  502  0.00000000000E+00  0.00000000000E+00  0.53819634997E+02  0.53819634997E+02  0.00000000000E+00 0. -1.
         21   -1    0    0  501  503 -0.00000000000E+00 -0.00000000000E+00 -0.70119724436E+03  0.70119724436E+03  0.00000000000E+00 0.  1.
          6    2    1    2  501    0 -0.93333330978E+01 -0.81914131340E+02 -0.38804598871E+03  0.43263320476E+03  0.17261160009E+03 0.  0.
         24    2    3    3    0    0  0.73857021926E+01 -0.11159990240E+03 -0.36689948901E+03  0.39225950547E+03  0.82116976218E+02 0.  0.
         -6    2    1    2    0  502  0.93333330978E+01  0.81914131340E+02 -0.25933162066E+03  0.32238367460E+03  0.17286210735E+03 0.  0.
        -24    2    5    5    0    0 -0.19218469398E+02  0.79474716957E+02 -0.78201727902E+02  0.13894081097E+03  0.80644023364E+02 0.  0.
          5    1    3    3  501    0 -0.16719035290E+02  0.29685771062E+02 -0.21146499698E+02  0.40373699287E+02  0.47000000000E+01 0. -1.
        -13    1    4    4    0    0 -0.35699040063E+02 -0.70731933884E+02 -0.21832296679E+03  0.23225491547E+03  0.00000000000E+00 0.  1.
         14    1    4    4    0    0  0.43084742255E+02 -0.40867968518E+02 -0.14857652222E+03  0.16000459000E+03  0.00000000000E+00 0. -1.
         -5    1    5    5    0  502  0.28551802496E+02  0.24394143834E+01 -0.18112989275E+03  0.18344286363E+03  0.47000000000E+01 0.  1.
         11    1    6    6    0    0 -0.20660250211E+02 -0.10775902813E+02 -0.24959176766E+02  0.34145666271E+02  0.00000000000E+00 0. -1.
        -12    1    6    6    0    0  0.14417808132E+01  0.90250619770E+02 -0.53242551136E+02  0.10479514470E+03  0.00000000000E+00 0.  1.
<mgrwt>
<rscale>  2 0.19145937E+03</rscale>
<asrwt>0</asrwt>
<pdfrwt beam="1">  1       21 0.82799450E-02 0.19151591E+03</pdfrwt>
<pdfrwt beam="2">  1       21 0.10787648E+00 0.19151591E+03</pdfrwt>
<totfact> 0.77416833E+04</totfact>
</mgrwt>
</event>
<event>
12    1  0.1013215E-001  0.2213698E+03  0.7546771E-02  0.1133251E+00
         21   -1    0    0  501  502  0.00000000000E+00  0.00000000000E+00  0.21931442230E+03  0.21931442230E+03  0.00000000000E+00 0. -1.
         21   -1    0    0  502  503 -0.00000000000E+00 -0.00000000000E+00 -0.30853024818E+03  0.30853024818E+03  0.00000000000E+00 0. -1.
         -6    2    1    2    0  503  0.11188772005E+02 -0.13383648873E+03  0.95528427309E+02  0.24110223301E+03  0.17597503233E+03 0.  0.
        -24    2    3    3    0    0  0.41476222083E+02 -0.94172121108E+01  0.22777079886E+02  0.93751174044E+02  0.80383620124E+02 0.  0.
          6    2    1    2  501    0 -0.11188772005E+02  0.13383648873E+03 -0.18474425318E+03  0.28674243747E+03  0.17335914175E+03 0.  0.
         24    2    5    5    0    0 -0.65072434396E+02  0.45912426522E+02 -0.67460073235E+02  0.13049980995E+03  0.78338791728E+02 0.  0.
          5    1    5    5  501    0  0.53883662391E+02  0.87924062205E+02 -0.11728417995E+03  0.15624262752E+03  0.47000000000E+01 0. -1.
        -13    1    6    6    0    0 -0.44947969076E+02  0.28145544728E+02  0.49599361803E+01  0.53264365001E+02  0.00000000000E+00 0.  1.
         14    1    6    6    0    0 -0.20124465320E+02  0.17766881794E+02 -0.72420009415E+02  0.77235444951E+02  0.00000000000E+00 0. -1.
         -5    1    3    3    0  503 -0.30287450078E+02 -0.12441927662E+03  0.72751347423E+02  0.14735105896E+03  0.47000000000E+01 0.  1.
         13    1    4    4    0    0  0.55668131445E+02  0.10156116125E+02  0.35126315064E+02  0.66602894557E+02  0.00000000000E+00 0. -1.
        -14    1    4    4    0    0 -0.14191909362E+02 -0.19573328236E+02 -0.12349235179E+02  0.27148279487E+02  0.00000000000E+00 0.  1.
<mgrwt>
<rscale>  2 0.22084958E+03</rscale>
<asrwt>0</asrwt>
<pdfrwt beam="1">  1       21 0.33740680E-01 0.22136984E+03</pdfrwt>
<pdfrwt beam="2">  1       21 0.47466192E-01 0.22136984E+03</pdfrwt>
<totfact> 0.35395453E+04</totfact>
</mgrwt>
</event>
<event>
12    1  0.1013215E-001  0.1889329E+03  0.7546771E-02  0.1159577E+00
         21   -1    0    0  503  502  0.00000000000E+00  0.00000000000E+00  0.37719151172E+02  0.37719151172E+02  0.00000000000E+00 0.  1.
         21   -1    0    0  501  503 -0.00000000000E+00 -0.00000000000E+00 -0.14148119254E+04  0.14148119254E+04  0.00000000000E+00 0.  1.
          6    2    1    2  501    0  0.68224058910E+02  0.35116221509E+02 -0.11071181548E+04  0.11230133435E+04  0.17193222449E+03 0.  0.
         24    2    3    3    0    0 -0.37703283157E+01  0.47072267067E+02 -0.33333439615E+03  0.34578137431E+03  0.78885521240E+02 0.  0.
         -6    2    1    2    0  502 -0.68224058910E+02 -0.35116221509E+02 -0.26997461941E+03  0.32951773303E+03  0.17264984804E+03 0.  0.
        -24    2    5    5    0    0  0.12427566359E+02  0.27226800397E+02 -0.10948363733E+03  0.13933155485E+03  0.80813812374E+02 0.  0.
          5    1    3    3  501    0  0.71994387225E+02 -0.11956045558E+02 -0.77378375864E+03  0.77723196921E+03  0.47000000000E+01 0. -1.
        -11    1    4    4    0    0  0.94440732442E+01  0.64771286428E+02 -0.28810021551E+03  0.29544245504E+03  0.00000000000E+00 0.  1.
         12    1    4    4    0    0 -0.13214401560E+02 -0.17699019361E+02 -0.45234180644E+02  0.50338919272E+02  0.00000000000E+00 0. -1.
         -5    1    5    5    0  502 -0.80651625268E+02 -0.62343021906E+02 -0.16049098208E+03  0.19018617817E+03  0.47000000000E+01 0.  1.
         11    1    6    6    0    0 -0.78715008557E+01 -0.25483996566E+02 -0.53624903751E+02  0.59891776639E+02  0.00000000000E+00 0. -1.
        -12    1    6    6    0    0  0.20299067214E+02  0.52710796962E+02 -0.55858733574E+02  0.79439778214E+02  0.00000000000E+00 0.  1.
<mgrwt>
<rscale>  2 0.18876880E+03</rscale>
<asrwt>0</asrwt>
<pdfrwt beam="1">  1       21 0.58029468E-02 0.18893290E+03</pdfrwt>
<pdfrwt beam="2">  1       21 0.21766335E+00 0.18893290E+03</pdfrwt>
<totfact> 0.21772067E+04</totfact>
</mgrwt>
</event>
<event>
12    1  0.1013215E-001  0.2257452E+03  0.7546771E-02  0.1129689E+00
         21   -1    0    0  501  502  0.00000000000E+00  0.00000000000E+00  0.17676496460E+03  0.17676496460E+03  0.00000000000E+00 0. -1.
         21   -1    0    0  502  503 -0.00000000000E+00 -0.00000000000E+00 -0.46901968486E+03  0.46901968486E+03  0.00000000000E+00 0. -1.
         -6    2    1    2    0  503 -0.89396548425E+02  0.11405963941E+03 -0.34661174904E+03  0.41358737953E+03  0.17295511476E+03 0.  0.
        -24    2    3    3    0    0  0.21469821995E+02  0.43889809965E+02 -0.13232914122E+03  0.16228222027E+03  0.80232466782E+02 0.  0.
          6    2    1    2  501    0  0.89396548425E+02 -0.11405963941E+03  0.54357028781E+02  0.23219726993E+03  0.17308824736E+03 0.  0.
         24    2    5    5    0    0  0.36362246279E+02 -0.25211736268E+01  0.63629337922E+02  0.10825562128E+03  0.79636785615E+02 0.  0.
          5    1    5    5  501    0  0.53034302146E+02 -0.11153846579E+03 -0.92723091408E+01  0.12394164865E+03  0.47000000000E+01 0. -1.
        -11    1    6    6    0    0 -0.12615831545E+02  0.21177437776E+02  0.15276999131E+00  0.24650890755E+02  0.00000000000E+00 0.  1.
         12    1    6    6    0    0  0.48978077824E+02 -0.23698611403E+02  0.63476567931E+02  0.83604730524E+02  0.00000000000E+00 0. -1.
         -5    1    3    3    0  503 -0.11086637042E+03  0.70169829450E+02 -0.21428260782E+03  0.25130515926E+03  0.47000000000E+01 0.  1.
         13    1    4    4    0    0  0.42939055136E+02  0.49599999726E+02 -0.69184907880E+02  0.95343976774E+02  0.00000000000E+00 0. -1.
        -14    1    4    4    0    0 -0.21469233140E+02 -0.57101897616E+01 -0.63144233339E+02  0.66938243499E+02  0.00000000000E+00 0.  1.
<mgrwt>
<rscale>  2 0.22571966E+03</rscale>
<asrwt>0</asrwt>
<pdfrwt beam="1">  1       21 0.27194610E-01 0.22574518E+03</pdfrwt>
<pdfrwt beam="2">  1       21 0.72156875E-01 0.22574518E+03</pdfrwt>
<totfact> 0.21916647E+04</totfact>
</mgrwt>
</event>
<event>
12    1  0.1013215E-001  0.1838243E+03  0.7546771E-02  0.1165263E+00
         21   -1    0    0  503  502  0.00000000000E+00  0.00000000000E+00  0.34631820251E+02  0.34631820251E+02  0.00000000000E+00 0.  1.
         21   -1    0    0  501  503 -0.00000000000E+00 -0.00000000000E+00 -0.97700095135E+03  0.97700095135E+03  0.00000000000E+00 0. -1.
          6    2    1    2  501    0 -0.58975354695E+02  0.11598858904E+02 -0.54752186236E+03  0.57609202336E+03  0.16878745100E+03 0.  0.
         24    2    3    3    0    0 -0.64577763470E+02  0.66804720058E+02 -0.39485239517E+03  0.41358316113E+03  0.80681218619E+02 0.  0.
         -6    2    1    2    0  502  0.58975354695E+02 -0.11598858904E+02 -0.39484726873E+03  0.43554074825E+03  0.17372032629E+03 0.  0.
        -24    2    5    5    0    0  0.58162521733E+02  0.38591878166E+02 -0.35697318247E+03  0.37248278130E+03  0.80258067293E+02 0.  0.
          5    1    3    3  501    0  0.56024087748E+01 -0.55205861154E+02 -0.15266946719E+03  0.16250886223E+03  0.47000000000E+01 0. -1.
        -11    1    4    4    0    0 -0.14039248416E+02  0.51203624276E+02 -0.92628047199E+02  0.10676547552E+03  0.00000000000E+00 0.  1.
         12    1    4    4    0    0 -0.50538515054E+02  0.15601095782E+02 -0.30222434798E+03  0.30681768561E+03  0.00000000000E+00 0. -1.
         -5    1    5    5    0  502  0.81283296243E+00 -0.50190737070E+02 -0.37874086260E+02  0.63057966943E+02  0.47000000000E+01 0.  1.
         13    1    6    6    0    0  0.28480907786E+02  0.61837004680E+02 -0.24786389297E+03  0.25704374471E+03  0.00000000000E+00 0. -1.
        -14    1    6    6    0    0  0.29681613947E+02 -0.23245126514E+02 -0.10910928950E+03  0.11543903659E+03  0.00000000000E+00 0.  1.
<mgrwt>
<rscale>  2 0.18264948E+03</rscale>
<asrwt>0</asrwt>
<pdfrwt beam="1">  1       21 0.53279724E-02 0.18382431E+03</pdfrwt>
<pdfrwt beam="2">  1       21 0.15030784E+00 0.18382431E+03</pdfrwt>
<totfact> 0.72116948E+04</totfact>
</mgrwt>
</event>
<event>
12    1  0.1013215E-001  0.2194342E+03  0.7546771E-02  0.1134329E+00
         21   -1    0    0  501  502  0.00000000000E+00  0.00000000000E+00  0.43776698684E+02  0.43776698684E+02  0.00000000000E+00 0. -1.
         21   -1    0    0  502  503 -0.00000000000E+00 -0.00000000000E+00 -0.12281808141E+04  0.12281808141E+04  0.00000000000E+00 0.  1.
         -6    2    1    2    0  503  0.13171798472E+03 -0.33029994791E+02 -0.38634553311E+03  0.44431323209E+03  0.17236812120E+03 0.  0.
        -24    2    3    3    0    0  0.12946695041E+03 -0.66373266278E+02 -0.36997090904E+03  0.40680244402E+03  0.86270813113E+02 0.  0.
          6    2    1    2  501    0 -0.13171798472E+03  0.33029994791E+02 -0.79805858232E+03  0.82764428070E+03  0.17221192324E+03 0.  0.
         24    2    5    5    0    0 -0.45805759797E+02  0.75457193591E+02 -0.36607511187E+03  0.38513689508E+03  0.80792850691E+02 0.  0.
          5    1    5    5  501    0 -0.85912224927E+02 -0.42427198800E+02 -0.43198347045E+03  0.44250738562E+03  0.47000000000E+01 0. -1.
        -13    1    6    6    0    0 -0.48192507890E+02  0.45934629950E+01 -0.16316777169E+03  0.17019794193E+03  0.00000000000E+00 0.  1.
         14    1    6    6    0    0  0.23867480928E+01  0.70863730596E+02 -0.20290734018E+03  0.21493895315E+03  0.00000000000E+00 0. -1.
         -5    1    3    3    0  503  0.22510343135E+01  0.33343271487E+02 -0.16374624064E+02  0.37510788077E+02  0.47000000000E+01 0.  1.
         11    1    4    4    0    0  0.49846087030E+02 -0.24510293999E+02 -0.51064610650E+02  0.75451847989E+02  0.00000000000E+00 0. -1.
        -12    1    4    4    0    0  0.79620863381E+02 -0.41862972279E+02 -0.31890629839E+03  0.33135059603E+03  0.00000000000E+00 0.  1.
<mgrwt>
<rscale>  2 0.21940355E+03</rscale>
<asrwt>0</asrwt>
<pdfrwt beam="1">  1       21 0.67348766E-02 0.21943422E+03</pdfrwt>
<pdfrwt beam="2">  1       21 0.18895090E+00 0.21943422E+03</pdfrwt>
<totfact> 0.25154738E+04</totfact>
</mgrwt>
</event>
<event>
12    1  0.1013215E-001  0.1840110E+03  0.7546771E-02  0.1164113E+00
         21   -1    0    0  501  502  0.00000000000E+00  0.00000000000E+00  0.58151163256E+03  0.58151163256E+03  0.00000000000E+00 0.  1.
         21   -1    0    0  502  503 -0.00000000000E+00 -0.00000000000E+00 -0.66374965404E+02  0.66374965404E+02  0.00000000000E+00 0.  1.
         -6    2    1    2    0  503  0.50290185757E+02 -0.34806294340E+02  0.14315818698E+03  0.23314009111E+03  0.17354957410E+03 0.  0.
        -24    2    3    3    0    0  0.53676066371E+02 -0.17484050032E+02  0.10754703156E+02  0.99482704982E+02  0.81205497622E+02 0.  0.
          6    2    1    2  501    0 -0.50290185757E+02  0.34806294340E+02  0.37197848017E+03  0.41474650686E+03  0.17293378597E+03 0.  0.
         24    2    5    5    0    0 -0.60233869386E+02  0.61339182475E+02  0.36703324432E+03  0.38560175854E+03  0.81146160860E+02 0.  0.
          5    1    5    5  501    0  0.99436836292E+01 -0.26532888136E+02  0.49452358472E+01  0.29144748318E+02  0.47000000000E+01 0. -1.
        -13    1    6    6    0    0 -0.11107671551E+02  0.88140127198E+01  0.29501218898E+01  0.14483452857E+02  0.00000000000E+00 0.  1.
         14    1    6    6    0    0 -0.49126197836E+02  0.52525169756E+02  0.36408312243E+03  0.37111830568E+03  0.00000000000E+00 0. -1.
         -5    1    3    3    0  503 -0.33858806135E+01 -0.17322244308E+02  0.13240348383E+03  0.13365738612E+03  0.47000000000E+01 0.  1.
         11    1    4    4    0    0  0.35641161962E+02  0.29277001539E+02 -0.62772952436E+01  0.46549325244E+02  0.00000000000E+00 0. -1.
        -12    1    4    4    0    0  0.18034904408E+02 -0.46761051571E+02  0.17031998400E+02  0.52933379738E+02  0.00000000000E+00 0.  1.
<mgrwt>
<rscale>  2 0.18386563E+03</rscale>
<asrwt>0</asrwt>
<pdfrwt beam="1">  1       21 0.89463325E-01 0.18401097E+03</pdfrwt>
<pdfrwt beam="2">  1       21 0.10211534E-01 0.18401097E+03</pdfrwt>
<totfact> 0.83601529E+04</totfact>
</mgrwt>
</event>
<event>
12    1  0.1013215E-001  0.2686889E+03  0.7546771E-02  0.1103310E+00
         21   -1    0    0  503  502  0.00000000000E+00  0.00000000000E+00  0.72484842480E+02  0.72484842480E+02  0.00000000000E+00 0. -1.
         21   -1    0    0  501  503 -0.00000000000E+00 -0.00000000000E+00 -0.15003213808E+04  0.15003213808E+04  0.00000000000E+00 0.  1.
          6    2    1    2  501    0 -0.19346470435E+03  0.37683461976E+01 -0.11916563460E+04  0.12215721722E+04  0.18641602041E+03 0.  0.
         24    2    3    3    0    0 -0.39596228016E+02  0.21664038837E+02 -0.70755598609E+03  0.71327008457E+03  0.77984281988E+02 0.  0.
         -6    2    1    2    0  502  0.19346470435E+03 -0.37683461976E+01 -0.23618019239E+03  0.35123405115E+03  0.17361302702E+03 0.  0.
        -24    2    5    5    0    0  0.18137220099E+03  0.48164381622E+00 -0.11528339272E+03  0.22956886622E+03  0.80718625046E+02 0.  0.
          5    1    3    3  501    0 -0.15386847633E+03 -0.17895692639E+02 -0.48410035988E+03  0.50830208760E+03  0.47000000000E+01 0. -1.
        -13    1    4    4    0    0 -0.63250266631E+02  0.12083153889E+02 -0.48524546855E+03  0.48949950316E+03  0.00000000000E+00 0.  1.
         14    1    4    4    0    0  0.23654038615E+02  0.95808849476E+01 -0.22231051753E+03  0.22377058141E+03  0.00000000000E+00 0. -1.
         -5    1    5    5    0  502  0.12092503354E+02 -0.42499900138E+01 -0.12089679967E+03  0.12166518493E+03  0.47000000000E+01 0.  1.
         13    1    6    6    0    0  0.19514582425E+00 -0.16085628158E+02 -0.51182980209E+01  0.16881424400E+02  0.00000000000E+00 0. -1.
        -14    1    6    6    0    0  0.18117705517E+03  0.16567271975E+02 -0.11016509470E+03  0.21268744182E+03  0.00000000000E+00 0.  1.
<mgrwt>
<rscale>  2 0.26648208E+03</rscale>
<asrwt>0</asrwt>
<pdfrwt beam="1">  1       21 0.11151514E-01 0.26868890E+03</pdfrwt>
<pdfrwt beam="2">  1       21 0.23081867E+00 0.26868890E+03</pdfrwt>
<totfact> 0.54249609E+03</totfact>
</mgrwt>
</event>
<event>
12    1  0.1013215E-001  0.1823940E+03  0.7546771E-02  0.1165743E+00
         21   -1    0    0  503  502  0.00000000000E+00  0.00000000000E+00  0.45791098671E+02  0.45791098671E+02  0.00000000000E+00 0. -1.
         21   -1    0    0  501  503 -0.00000000000E+00 -0.00000000000E+00 -0.82301726872E+03  0.82301726872E+03  0.00000000000E+00 0. -1.
          6    2    1    2  501    0  0.46300348351E+01  0.53245746249E+02 -0.54132213676E+03  0.57122433628E+03  0.17438761396E+03 0.  0.
         24    2    3    3    0    0  0.66985016276E+02  0.52828944046E+02 -0.31146205252E+03  0.33301000892E+03  0.81296778213E+02 0.  0.
         -6    2    1    2    0  502 -0.46300348351E+01 -0.53245746249E+02 -0.23590403329E+03  0.29758403111E+03  0.17334646212E+03 0.  0.
        -24    2    5    5    0    0  0.18916159330E+02 -0.49941373532E+02 -0.48212688431E+02  0.10833426737E+03  0.80993137284E+02 0.  0.
          5    1    3    3  501    0 -0.62354981441E+02  0.41680220291E+00 -0.22986008424E+03  0.23821432736E+03  0.47000000000E+01 0. -1.
        -11    1    4    4    0    0  0.24358909203E+02 -0.10252912609E+02 -0.24214848206E+02  0.35844630674E+02  0.00000000000E+00 0.  1.
         12    1    4    4    0    0  0.42626107073E+02  0.63081856655E+02 -0.28724720431E+03  0.29716537825E+03  0.00000000000E+00 0. -1.
         -5    1    5    5    0  502 -0.23546194165E+02 -0.33043727165E+01 -0.18769134486E+03  0.18924976374E+03  0.47000000000E+01 0.  1.
         11    1    6    6    0    0  0.16113415474E+02  0.20302254646E+02 -0.70131047909E+01  0.26851579856E+02  0.00000000000E+00 0. -1.
        -12    1    6    6    0    0  0.28027438563E+01 -0.70243628178E+02 -0.41199583640E+02  0.81482687516E+02  0.00000000000E+00 0.  1.
<mgrwt>
<rscale>  2 0.18214473E+03</rscale>
<asrwt>0</asrwt>
<pdfrwt beam="1">  1       21 0.70447837E-02 0.18239404E+03</pdfrwt>
<pdfrwt beam="2">  1       21 0.12661805E+00 0.18239404E+03</pdfrwt>
<totfact> 0.69448243E+04</totfact>
</mgrwt>
</event>
<event>
12    1  0.1013215E-001  0.1864877E+03  0.7546771E-02  0.1162504E+00
         21   -1    0    0  501  502  0.00000000000E+00  0.00000000000E+00  0.87353278758E+02  0.87353278758E+02  0.00000000000E+00 0.  1.
         21   -1    0    0  502  503 -0.00000000000E+00 -0.00000000000E+00 -0.97503838209E+03  0.97503838209E+03  0.00000000000E+00 0.  1.
         -6    2    1    2    0  503 -0.64485729041E+02  0.23485160722E+01 -0.85339697909E+03  0.87277800784E+03  0.17114649360E+03 0.  0.
        -24    2    3    3    0    0 -0.97689790838E+02  0.25935644352E+02 -0.76006610934E+03  0.77083879267E+03  0.79221214604E+02 0.  0.
          6    2    1    2  501    0  0.64485729041E+02 -0.23485160722E+01 -0.34288124237E+02  0.18961365300E+03  0.17496781751E+03 0.  0.
         24    2    5    5    0    0 -0.34132114302E+02  0.48842614254E+01 -0.11732185920E+02  0.88082118744E+02  0.80199490145E+02 0.  0.
          5    1    5    5  501    0  0.98617843342E+02 -0.72327774976E+01 -0.22555938317E+02  0.10153153426E+03  0.47000000000E+01 0. -1.
        -13    1    6    6    0    0 -0.69395617622E+01  0.40358405893E+02  0.28934478461E+01  0.41052776813E+02  0.00000000000E+00 0.  1.
         14    1    6    6    0    0 -0.27192552540E+02 -0.35474144467E+02 -0.14625633766E+02  0.47029341930E+02  0.00000000000E+00 0. -1.
         -5    1    3    3    0  503  0.33204061798E+02 -0.23587128280E+02 -0.93330869756E+02  0.10193921517E+03  0.47000000000E+01 0.  1.
         13    1    4    4    0    0 -0.47684404471E+02 -0.19732936532E+01 -0.13562050007E+03  0.14377279422E+03  0.00000000000E+00 0. -1.
        -14    1    4    4    0    0 -0.50005386367E+02  0.27908938005E+02 -0.62444560926E+03  0.62706599845E+03  0.00000000000E+00 0.  1.
<mgrwt>
<rscale>  2 0.18558606E+03</rscale>
<asrwt>0</asrwt>
<pdfrwt beam="1">  1       21 0.13438966E-01 0.18648770E+03</pdfrwt>
<pdfrwt beam="2">  1       21 0.15000590E+00 0.18648770E+03</pdfrwt>
<totfact> 0.14372048E+04</totfact>
</mgrwt>
</event>
<event>
12    1  0.1013215E-001  0.2559719E+03  0.7546771E-02  0.1109760E+00
         21   -1    0    0  501  502  0.00000000000E+00  0.00000000000E+00  0.61630949051E+03  0.61630949051E+03  0.00000000000E+00 0.  1.
         21   -1    0    0  502  503 -0.00000000000E+00 -0.00000000000E+00 -0.10585064896E+03  0.10585064896E+03  0.00000000000E+00 0.  1.
         -6    2    1    2    0  503 -0.15875177864E+03 -0.10005698089E+03  0.25298263846E+03  0.35909597540E+03  0.17244180914E+03 0.  0.
        -24    2    3    3    0    0 -0.18057494278E+03 -0.99854293186E+02  0.25339576660E+03  0.33676769177E+03  0.81393328101E+02 0.  0.
          6    2    1    2  501    0  0.15875177864E+03  0.10005698089E+03  0.25747620309E+03  0.36306416407E+03  0.17409211765E+03 0.  0.
         24    2    5    5    0    0  0.92580629197E+02  0.11609725458E+03  0.23886889531E+03  0.29232355832E+03  0.79655308550E+02 0.  0.
          5    1    5    5  501    0  0.66171149443E+02 -0.16040273691E+02  0.18607307780E+02  0.70740605747E+02  0.47000000000E+01 0. -1.
        -13    1    6    6    0    0  0.28738210330E+02  0.45662964917E+02  0.27491820254E+02  0.60554036024E+02  0.00000000000E+00 0.  1.
         14    1    6    6    0    0  0.63842418867E+02  0.70434289661E+02  0.21137707506E+03  0.23176952230E+03  0.00000000000E+00 0. -1.
         -5    1    3    3    0  503  0.21823164136E+02 -0.20268770058E+00 -0.41312814057E+00  0.22328283635E+02  0.47000000000E+01 0.  1.
         13    1    4    4    0    0 -0.94753558644E+02 -0.92109779864E+02  0.12338824810E+03  0.18079576376E+03  0.00000000000E+00 0. -1.
        -14    1    4    4    0    0 -0.85821384131E+02 -0.77445133227E+01  0.13000751850E+03  0.15597192801E+03  0.00000000000E+00 0.  1.
<mgrwt>
<rscale>  2 0.25569151E+03</rscale>
<asrwt>0</asrwt>
<pdfrwt beam="1">  1       21 0.94816843E-01 0.25597186E+03</pdfrwt>
<pdfrwt beam="2">  1       21 0.16284716E-01 0.25597186E+03</pdfrwt>
<totfact> 0.30417129E+04</totfact>
</mgrwt>
</event>
<event>
12    1  0.1013215E-001  0.2155593E+03  0.7546771E-02  0.1138592E+00
         21   -1    0    0  503  502  0.00000000000E+00  0.00000000000E+00  0.13836817208E+03  0.13836817208E+03  0.00000000000E+00 0.  1.
         21   -1    0    0  501  503 -0.00000000000E+00 -0.00000000000E+00 -0.37610631199E+03  0.37610631199E+03  0.00000000000E+00 0. -1.
          6    2    1    2  501    0  0.10684328890E+02 -0.11699461041E+03 -0.21193494577E+03  0.29737633911E+03  0.17237857198E+03 0.  0.
         24    2    3    3    0    0 -0.51626009812E+02 -0.39163244586E+02 -0.75292523555E+02  0.12816185580E+03  0.80978346257E+02 0.  0.
         -6    2    1    2    0  502 -0.10684328890E+02  0.11699461041E+03 -0.25803194135E+02  0.21709814496E+03  0.18073158542E+03 0.  0.
        -24    2    5    5    0    0  0.34233421954E+02  0.28674361562E+02  0.37172603738E+02  0.99598732978E+02  0.80894739956E+02 0.  0.
          5    1    3    3  501    0  0.62310338702E+02 -0.77831365823E+02 -0.13664242221E+03  0.16921448332E+03  0.47000000000E+01 0. -1.
        -11    1    4    4    0    0 -0.47127217894E+02  0.14809471689E+02 -0.32430263873E+02  0.59093291777E+02  0.00000000000E+00 0.  1.
         12    1    4    4    0    0 -0.44987919178E+01 -0.53972716275E+02 -0.42862259682E+02  0.69068564021E+02  0.00000000000E+00 0. -1.
         -5    1    5    5    0  502 -0.44917750844E+02  0.88320248847E+02 -0.62975797873E+02  0.11749941198E+03  0.47000000000E+01 0.  1.
         13    1    6    6    0    0  0.55366727314E+02  0.20903520489E+02  0.37514244804E+01  0.59300125193E+02  0.00000000000E+00 0. -1.
        -14    1    6    6    0    0 -0.21133305360E+02  0.77708410734E+01  0.33421179258E+02  0.40298607785E+02  0.00000000000E+00 0.  1.
<mgrwt>
<rscale>  2 0.21379940E+03</rscale>
<asrwt>0</asrwt>
<pdfrwt beam="1">  1       21 0.21287411E-01 0.21555927E+03</pdfrwt>
<pdfrwt beam="2">  1       21 0.57862509E-01 0.21555927E+03</pdfrwt>
<totfact> 0.56902959E+04</totfact>
</mgrwt>
</event>
<event>
12    1  0.1013215E-001  0.1785348E+03  0.7546771E-02  0.1169938E+00
         21   -1    0    0  503  502  0.00000000000E+00  0.00000000000E+00  0.16184927094E+02  0.16184927094E+02  0.00000000000E+00 0. -1.
         21   -1    0    0  501  503 -0.00000000000E+00 -0.00000000000E+00 -0.23517651075E+04  0.23517651075E+04  0.00000000000E+00 0. -1.
          6    2    1    2  501    0 -0.25970346098E+02  0.40442167426E+02 -0.16723112290E+04  0.16818143506E+04  0.17194369887E+03 0.  0.
         24    2    3    3    0    0  0.36542628497E+02  0.49213645584E+02 -0.67434491593E+03  0.68184251961E+03  0.80067529612E+02 0.  0.
         -6    2    1    2    0  502  0.25970346098E+02 -0.40442167426E+02 -0.66326895144E+03  0.68613568399E+03  0.16895693866E+03 0.  0.
        -24    2    5    5    0    0 -0.41701553154E+02 -0.29576097370E+02 -0.22775604204E+03  0.24523757595E+03  0.75198995326E+02 0.  0.
          5    1    3    3  501    0 -0.62512974595E+02 -0.87714781580E+01 -0.99796631304E+03  0.99997183100E+03  0.47000000000E+01 0. -1.
        -11    1    4    4    0    0 -0.14617217574E+02  0.12030636438E+01 -0.27170927944E+02  0.30876685979E+02  0.00000000000E+00 0.  1.
         12    1    4    4    0    0  0.51159846072E+02  0.48010581940E+02 -0.64717398798E+03  0.65096583363E+03  0.00000000000E+00 0. -1.
         -5    1    5    5    0  502  0.67671899251E+02 -0.10866070055E+02 -0.43551290940E+03  0.44089810805E+03  0.47000000000E+01 0.  1.
         11    1    6    6    0    0  0.73062621796E+01 -0.17106615941E+02 -0.89108244790E+01  0.20625725900E+02  0.00000000000E+00 0. -1.
        -12    1    6    6    0    0 -0.49007815333E+02 -0.12469481430E+02 -0.21884521757E+03  0.22461185005E+03  0.00000000000E+00 0.  1.
<mgrwt>
<rscale>  2 0.17781172E+03</rscale>
<asrwt>0</asrwt>
<pdfrwt beam="1">  1       21 0.24899909E-02 0.17853477E+03</pdfrwt>
<pdfrwt beam="2">  1       21 0.36180971E+00 0.17853477E+03</pdfrwt>
<totfact> 0.13027426E+04</totfact>
</mgrwt>
</event>
<event>
12    1  0.1013215E-001  0.2164834E+03  0.7546771E-02  0.1136628E+00
         21   -1    0    0  503  502  0.00000000000E+00  0.00000000000E+00  0.20491127991E+04  0.20491127991E+04  0.00000000000E+00 0.  1.
         21   -1    0    0  501  503 -0.00000000000E+00 -0.00000000000E+00 -0.67578671416E+02  0.67578671416E+02  0.00000000000E+00 0. -1.
          6    2    1    2  501    0 -0.12913812650E+03  0.14867532570E+02  0.12904014182E+03  0.25159119945E+03  0.17247919933E+03 0.  0.
         24    2    3    3    0    0  0.41139573135E+01 -0.51934995643E+01  0.53410852332E+02  0.96993520687E+02  0.80691553622E+02 0.  0.
         -6    2    1    2    0  502  0.12913812650E+03 -0.14867532570E+02  0.18524939859E+04  0.18651002711E+04  0.17311081484E+03 0.  0.
        -24    2    5    5    0    0  0.52236847593E+02 -0.35463229148E+01  0.15479492415E+04  0.15507571977E+04  0.77199528051E+02 0.  0.
          5    1    3    3  501    0 -0.13325208382E+03  0.20061032134E+02  0.75629289490E+02  0.15459767877E+03  0.47000000000E+01 0. -1.
        -13    1    4    4    0    0  0.47198682270E+01 -0.33871752082E+02  0.58594183030E+02  0.67844314648E+02  0.00000000000E+00 0.  1.
         14    1    4    4    0    0 -0.60591091348E+00  0.28678252518E+02 -0.51833306980E+01  0.29149206038E+02  0.00000000000E+00 0. -1.
         -5    1    5    5    0  502  0.76901278910E+02 -0.11321209655E+02  0.30454474432E+03  0.31434307337E+03  0.47000000000E+01 0.  1.
         11    1    6    6    0    0 -0.29317160129E+01 -0.31334022218E+02  0.54327649402E+03  0.54418725165E+03  0.00000000000E+00 0. -1.
        -12    1    6    6    0    0  0.55168563606E+02  0.27787699303E+02  0.10046727475E+04  0.10065699460E+04  0.00000000000E+00 0.  1.
<mgrwt>
<rscale>  2 0.21635708E+03</rscale>
<asrwt>0</asrwt>
<pdfrwt beam="1">  1       21 0.31524808E+00 0.21648338E+03</pdfrwt>
<pdfrwt beam="2">  1       21 0.10396720E-01 0.21648338E+03</pdfrwt>
<totfact> 0.20507641E+03</totfact>
</mgrwt>
</event>
<event>
12    1  0.1013215E-001  0.1736036E+03  0.7546771E-02  0.1175128E+00
         21   -1    0    0  503  502  0.00000000000E+00  0.00000000000E+00  0.26305032171E+03  0.26305032171E+03  0.00000000000E+00 0.  1.
         21   -1    0    0  501  503 -0.00000000000E+00 -0.00000000000E+00 -0.13634280334E+03  0.13634280334E+03  0.00000000000E+00 0.  1.
          6    2    1    2  501    0  0.98713225085E+01 -0.10849925114E+02 -0.21520106202E+02  0.17111779793E+03  0.16912427949E+03 0.  0.
         24    2    3    3    0    0  0.43723450758E+02 -0.31769904144E+02 -0.61694209644E+02  0.11437574389E+03  0.79715546355E+02 0.  0.
         -6    2    1    2    0  502 -0.98713225085E+01  0.10849925114E+02  0.14822762457E+03  0.22827532712E+03  0.17298275175E+03 0.  0.
        -24    2    5    5    0    0  0.55533422001E+02  0.34526478049E+02  0.81823647899E+02  0.13199481050E+03  0.80321118001E+02 0.  0.
          5    1    3    3  501    0 -0.33852128250E+02  0.20919979030E+02  0.40174103442E+02  0.56742054043E+02  0.47000000000E+01 0. -1.
        -11    1    4    4    0    0  0.24331309260E+02 -0.37399043439E+02  0.48079063785E+01  0.44875572689E+02  0.00000000000E+00 0.  1.
         12    1    4    4    0    0  0.19392141498E+02  0.56291392949E+01 -0.66502116022E+02  0.69500171197E+02  0.00000000000E+00 0. -1.
         -5    1    5    5    0  502 -0.65404744510E+02 -0.23676552934E+02  0.66403976670E+02  0.96280516621E+02  0.47000000000E+01 0.  1.
         13    1    6    6    0    0  0.56316066003E+02  0.50779662925E+02  0.86531412721E+02  0.11505545986E+03  0.00000000000E+00 0. -1.
        -14    1    6    6    0    0 -0.78264400195E+00 -0.16253184876E+02 -0.47077648221E+01  0.16939350633E+02  0.00000000000E+00 0.  1.
<mgrwt>
<rscale>  2 0.17263438E+03</rscale>
<asrwt>0</asrwt>
<pdfrwt beam="1">  1       21 0.40469280E-01 0.17360356E+03</pdfrwt>
<pdfrwt beam="2">  1       21 0.20975816E-01 0.17360356E+03</pdfrwt>
<totfact> 0.12504685E+05</totfact>
</mgrwt>
</event>
<event>
12    1  0.1013215E-001  0.1937192E+03  0.7546771E-02  0.1155417E+00
         21   -1    0    0  503  502  0.00000000000E+00  0.00000000000E+00  0.11117540403E+04  0.11117540403E+04  0.00000000000E+00 0.  1.
         21   -1    0    0  501  503 -0.00000000000E+00 -0.00000000000E+00 -0.47838306401E+02  0.47838306401E+02  0.00000000000E+00 0.  1.
          6    2    1    2  501    0 -0.82794167415E+02 -0.52038516826E+01  0.21384933777E+03  0.28773226310E+03  0.17371344719E+03 0.  0.
         24    2    3    3    0    0 -0.39840158745E+02 -0.88019394422E+01  0.22052998247E+02  0.91095748309E+02  0.78405281974E+02 0.  0.
         -6    2    1    2    0  502  0.82794167415E+02  0.52038516826E+01  0.85006639612E+03  0.87186008359E+03  0.17505762855E+03 0.  0.
        -24    2    5    5    0    0 -0.90655850258E+01 -0.26446704527E+02  0.55662602615E+03  0.56271721604E+03  0.77695039936E+02 0.  0.
          5    1    3    3  501    0 -0.42954008670E+02  0.35980877596E+01  0.19179633952E+03  0.19663651479E+03  0.47000000000E+01 0. -1.
        -11    1    4    4    0    0  0.13325703883E+02 -0.28457877420E+02  0.11355210607E+02  0.33412063378E+02  0.00000000000E+00 0.  1.
         12    1    4    4    0    0 -0.53165862629E+02  0.19655937977E+02  0.10697787640E+02  0.57683684931E+02  0.00000000000E+00 0. -1.
         -5    1    5    5    0  502  0.91859752441E+02  0.31650556210E+02  0.29344036997E+03  0.30914286755E+03  0.47000000000E+01 0.  1.
         11    1    6    6    0    0  0.24332954390E+00  0.98204448698E+01  0.76110500867E+01  0.12426923599E+02  0.00000000000E+00 0. -1.
        -12    1    6    6    0    0 -0.93089145697E+01 -0.36267149397E+02  0.54901497606E+03  0.55029029244E+03  0.00000000000E+00 0.  1.
<mgrwt>
<rscale>  2 0.19341502E+03</rscale>
<asrwt>0</asrwt>
<pdfrwt beam="1">  1       21 0.17103906E+00 0.19371920E+03</pdfrwt>
<pdfrwt beam="2">  1       21 0.73597403E-02 0.19371920E+03</pdfrwt>
<totfact> 0.29084994E+04</totfact>
</mgrwt>
</event>
<event>
12    1  0.1013215E-001  0.2217588E+03  0.7546771E-02  0.1134888E+00
         21   -1    0    0  503  502  0.00000000000E+00  0.00000000000E+00  0.21280207538E+03  0.21280207538E+03  0.00000000000E+00 0.  1.
         21   -1    0    0  501  503 -0.00000000000E+00 -0.00000000000E+00 -0.22809986214E+03  0.22809986214E+03  0.00000000000E+00 0.  1.
          6    2    1    2  501    0  0.10496103003E+03  0.61445988014E+02 -0.52399152184E+02  0.21606092399E+03  0.17071679606E+03 0.  0.
         24    2    3    3    0    0 -0.10716347584E+02  0.40909308495E+02 -0.83513274579E+01  0.90500931312E+02  0.79575513011E+02 0.  0.
         -6    2    1    2    0  502 -0.10496103003E+03 -0.61445988014E+02  0.37101365424E+02  0.22484101354E+03  0.18543069537E+03 0.  0.
        -24    2    5    5    0    0 -0.86163839449E+02 -0.93651007438E+02  0.78330015242E+02  0.16905222241E+03  0.79046468551E+02 0.  0.
          5    1    3    3  501    0  0.11567737762E+03  0.20536679519E+02 -0.44047824726E+02  0.12555999268E+03  0.47000000000E+01 0. -1.
        -11    1    4    4    0    0  0.50091048476E+01  0.62048180817E+02 -0.13397578469E+02  0.63675450394E+02  0.00000000000E+00 0.  1.
         12    1    4    4    0    0 -0.15725452432E+02 -0.21138872322E+02  0.50462510107E+01  0.26825480918E+02  0.00000000000E+00 0. -1.
         -5    1    5    5    0  502 -0.18797190583E+02  0.32205019424E+02 -0.41228649817E+02  0.55788791130E+02  0.47000000000E+01 0.  1.
         11    1    6    6    0    0 -0.73928666002E+02 -0.33051761973E+02  0.69278590366E+02  0.10657105474E+03  0.00000000000E+00 0. -1.
        -12    1    6    6    0    0 -0.12235173448E+02 -0.60599245465E+02  0.90514248756E+01  0.62481167663E+02  0.00000000000E+00 0.  1.
<mgrwt>
<rscale>  2 0.21865733E+03</rscale>
<asrwt>0</asrwt>
<pdfrwt beam="1">  1       21 0.32738781E-01 0.22175881E+03</pdfrwt>
<pdfrwt beam="2">  1       21 0.35092286E-01 0.22175881E+03</pdfrwt>
<totfact> 0.69419396E+04</totfact>
</mgrwt>
</event>
<event>
12    1  0.1013215E-001  0.1822042E+03  0.7546771E-02  0.1166197E+00
         21   -1    0    0  503  502  0.00000000000E+00  0.00000000000E+00  0.16386155725E+04  0.16386155725E+04  0.00000000000E+00 0.  1.
         21   -1    0    0  501  503 -0.00000000000E+00 -0.00000000000E+00 -0.36063918580E+02  0.36063918580E+02  0.00000000000E+00 0.  1.
          6    2    1    2  501    0  0.47865308821E+02  0.10499733149E+02  0.24546670434E+03  0.30569965009E+03  0.17549085714E+03 0.  0.
         24    2    3    3    0    0  0.51482850439E+02 -0.30621698576E+02  0.24461652520E+03  0.26414400596E+03  0.79665796726E+02 0.  0.
         -6    2    1    2    0  502 -0.47865308821E+02 -0.10499733149E+02  0.13570849496E+04  0.13689798410E+04  0.17327698199E+03 0.  0.
        -24    2    5    5    0    0 -0.20433224322E+02  0.19347493065E+01  0.13124215147E+04  0.13149053736E+04  0.78132254896E+02 0.  0.
          5    1    3    3  501    0 -0.36175416174E+01  0.41121431725E+02  0.85017913715E+00  0.41555644130E+02  0.47000000000E+01 0. -1.
        -13    1    4    4    0    0  0.18915788151E+02  0.26665763926E+02  0.10031028336E+03  0.10550366323E+03  0.00000000000E+00 0.  1.
         14    1    4    4    0    0  0.32567062288E+02 -0.57287462502E+02  0.14430624184E+03  0.15864034273E+03  0.00000000000E+00 0. -1.
         -5    1    5    5    0  502 -0.27432084499E+02 -0.12434482455E+02  0.44663434924E+02  0.54074467479E+02  0.47000000000E+01 0.  1.
         13    1    6    6    0    0  0.77320595938E+01  0.30340305747E+02  0.28678805225E+03  0.28849212435E+03  0.00000000000E+00 0. -1.
        -14    1    6    6    0    0 -0.28165283916E+02 -0.28405556441E+02  0.10256334625E+04  0.10264132492E+04  0.00000000000E+00 0.  1.
<mgrwt>
<rscale>  2 0.18166902E+03</rscale>
<asrwt>0</asrwt>
<pdfrwt beam="1">  1       21 0.25209465E+00 0.18220421E+03</pdfrwt>
<pdfrwt beam="2">  1       21 0.55482964E-02 0.18220421E+03</pdfrwt>
<totfact> 0.14710435E+04</totfact>
</mgrwt>
</event>
<event>
12    1  0.1013215E-001  0.2134350E+03  0.7546771E-02  0.1138949E+00
         21   -1    0    0  503  502  0.00000000000E+00  0.00000000000E+00  0.70194522644E+03  0.70194522644E+03  0.00000000000E+00 0. -1.
         21   -1    0    0  501  503 -0.00000000000E+00 -0.00000000000E+00 -0.64784441098E+02  0.64784441098E+02  0.00000000000E+00 0. -1.
          6    2    1    2  501    0  0.31203386183E+02  0.12070188836E+03  0.31524783312E+03  0.38048823827E+03  0.17276430770E+03 0.  0.
         24    2    3    3    0    0 -0.32342600959E+02  0.67734548414E+02  0.25641391010E+03  0.27886564196E+03  0.79899562516E+02 0.  0.
         -6    2    1    2    0  502 -0.31203386183E+02 -0.12070188836E+03  0.32191295222E+03  0.38624142926E+03  0.17323941730E+03 0.  0.
        -24    2    5    5    0    0  0.21259543574E+02 -0.54561307564E+01  0.15770532928E+03  0.17882837018E+03  0.81405635823E+02 0.  0.
          5    1    3    3  501    0  0.63545987142E+02  0.52967339945E+02  0.58833923019E+02  0.10162259631E+03  0.47000000000E+01 0. -1.
        -13    1    4    4    0    0 -0.72215345432E+01  0.23989860308E+02  0.20610477000E+03  0.20762186825E+03  0.00000000000E+00 0.  1.
         14    1    4    4    0    0 -0.25121066416E+02  0.43744688106E+02  0.50309140093E+02  0.71243773709E+02  0.00000000000E+00 0. -1.
         -5    1    5    5    0  502 -0.52462929757E+02 -0.11524575760E+03  0.16420762295E+03  0.20741305908E+03  0.47000000000E+01 0.  1.
         11    1    6    6    0    0 -0.17302737540E+02 -0.15403237364E+02  0.12547541356E+03  0.12759593981E+03  0.00000000000E+00 0. -1.
        -12    1    6    6    0    0  0.38562281114E+02  0.99471066076E+01  0.32229915711E+02  0.51232430367E+02  0.00000000000E+00 0.  1.
<mgrwt>
<rscale>  2 0.21333856E+03</rscale>
<asrwt>0</asrwt>
<pdfrwt beam="1">  1       21 0.10799157E+00 0.21343499E+03</pdfrwt>
<pdfrwt beam="2">  1       21 0.99668376E-02 0.21343499E+03</pdfrwt>
<totfact> 0.55158504E+04</totfact>
</mgrwt>
</event>
<event>
12    1  0.1013215E-001  0.2636051E+03  0.7546771E-02  0.1105062E+00
         21   -1    0    0  501  502  0.00000000000E+00  0.00000000000E+00  0.93475218766E+03  0.93475218766E+03  0.00000000000E+00 0. -1.
         21   -1    0    0  502  503 -0.00000000000E+00 -0.00000000000E+00 -0.13619797602E+03  0.13619797602E+03  0.00000000000E+00 0.  1.
         -6    2    1    2    0  503  0.18991216621E+03  0.61264206594E+02  0.37848766414E+02  0.26586605978E+03  0.17155844118E+03 0.  0.
        -24    2    3    3    0    0  0.16882761808E+03  0.10491596685E+03  0.33801627124E+02  0.21699373960E+03  0.80209776856E+02 0.  0.
          6    2    1    2  501    0 -0.18991216621E+03 -0.61264206594E+02  0.76070544523E+03  0.80508410390E+03  0.17224315973E+03 0.  0.
         24    2    5    5    0    0 -0.26279025880E+02  0.33148451359E+02  0.24665736665E+03  0.25740073581E+03  0.60215240963E+02 0.  0.
          5    1    5    5  501    0 -0.16363314033E+03 -0.94412657953E+02  0.51404807858E+03  0.54768336810E+03  0.47000000000E+01 0. -1.
        -11    1    6    6    0    0 -0.42248874059E+02  0.23211974006E+02  0.21694016254E+03  0.22223140467E+03  0.00000000000E+00 0.  1.
         12    1    6    6    0    0  0.15969848179E+02  0.99364773533E+01  0.29717204103E+02  0.35169331139E+02  0.00000000000E+00 0. -1.
         -5    1    3    3    0  503  0.21084548135E+02 -0.43651760256E+02  0.40471392907E+01  0.48872320182E+02  0.47000000000E+01 0.  1.
         13    1    4    4    0    0  0.43133311036E+02  0.50658031362E+02 -0.20639530512E+02  0.69661387311E+02  0.00000000000E+00 0. -1.
        -14    1    4    4    0    0  0.12569430704E+03  0.54257935488E+02  0.54441157635E+02  0.14733235229E+03  0.00000000000E+00 0.  1.
<mgrwt>
<rscale>  2 0.26349329E+03</rscale>
<asrwt>0</asrwt>
<pdfrwt beam="1">  1       21 0.14380802E+00 0.26360508E+03</pdfrwt>
<pdfrwt beam="2">  1       21 0.20953535E-01 0.26360508E+03</pdfrwt>
<totfact> 0.67201882E+03</totfact>
</mgrwt>
</event>
<event>
12    1  0.1013215E-001  0.1903057E+03  0.7546771E-02  0.1158669E+00
         21   -1    0    0  503  502  0.00000000000E+00  0.00000000000E+00  0.16488504232E+03  0.16488504232E+03  0.00000000000E+00 0. -1.
         21   -1    0    0  501  503 -0.00000000000E+00 -0.00000000000E+00 -0.82695136524E+03  0.82695136524E+03  0.00000000000E+00 0. -1.
          6    2    1    2  501    0 -0.63595433205E+02 -0.41536441315E+02 -0.75736660436E+03  0.78090999816E+03  0.17448953192E+03 0.  0.
         24    2    3    3    0    0 -0.39564653925E+02 -0.93627035068E+02 -0.56929502013E+03  0.58422771857E+03  0.83029053150E+02 0.  0.
         -6    2    1    2    0  502  0.63595433205E+02  0.41536441315E+02  0.95300281439E+02  0.21092640940E+03  0.17215734505E+03 0.  0.
        -24    2    5    5    0    0  0.91194975602E+02  0.66531753760E+02  0.39695617328E+02  0.14384087403E+03  0.79821407983E+02 0.  0.
          5    1    3    3  501    0 -0.24030779280E+02  0.52090593754E+02 -0.18807158423E+03  0.19668227959E+03  0.47000000000E+01 0. -1.
        -13    1    4    4    0    0 -0.39209328490E+02 -0.48428183271E+01 -0.23728265719E+03  0.24054912957E+03  0.00000000000E+00 0.  1.
         14    1    4    4    0    0 -0.35532543416E+00 -0.88784216741E+02 -0.33201236293E+03  0.34367858900E+03  0.00000000000E+00 0. -1.
         -5    1    5    5    0  502 -0.27599542397E+02 -0.24995312445E+02  0.55604664111E+02  0.67085535368E+02  0.47000000000E+01 0.  1.
         11    1    6    6    0    0  0.79556191263E+02  0.83373758819E+02  0.43198558266E+02  0.12307106347E+03  0.00000000000E+00 0. -1.
        -12    1    6    6    0    0  0.11638784339E+02 -0.16842005059E+02 -0.35029409380E+01  0.20769810555E+02  0.00000000000E+00 0.  1.
<mgrwt>
<rscale>  2 0.18976940E+03</rscale>
<asrwt>0</asrwt>
<pdfrwt beam="1">  1       21 0.25366930E-01 0.19030568E+03</pdfrwt>
<pdfrwt beam="2">  1       21 0.12722329E+00 0.19030568E+03</pdfrwt>
<totfact> 0.67356311E+03</totfact>
</mgrwt>
</event>
<event>
12    1  0.1013215E-001  0.1829438E+03  0.7546771E-02  0.1165073E+00
         21   -1    0    0  503  502  0.00000000000E+00  0.00000000000E+00  0.18616142690E+03  0.18616142690E+03  0.00000000000E+00 0.  1.
         21   -1    0    0  501  503 -0.00000000000E+00 -0.00000000000E+00 -0.41339674124E+03  0.41339674124E+03  0.00000000000E+00 0. -1.
          6    2    1    2  501    0 -0.60236233989E+02  0.47837007379E+00 -0.33910017534E+03  0.38512361353E+03  0.17234452722E+03 0.  0.
         24    2    3    3    0    0  0.32822610974E+01 -0.56394171082E+02 -0.19110045076E+03  0.21425789540E+03  0.78714596440E+02 0.  0.
         -6    2    1    2    0  502  0.60236233989E+02 -0.47837007379E+00  0.11186486099E+03  0.21443455461E+03  0.17274199942E+03 0.  0.
        -24    2    5    5    0    0  0.42464375164E+02  0.27995250878E+02 -0.26499713408E+01  0.95009587039E+02  0.80205000165E+02 0.  0.
          5    1    3    3  501    0 -0.63518495087E+02  0.56872541155E+02 -0.14799972458E+03  0.17086571813E+03  0.47000000000E+01 0. -1.
        -13    1    4    4    0    0  0.40617543126E+02 -0.23317506885E+02 -0.86167813855E+02  0.98073355614E+02  0.00000000000E+00 0.  1.
         14    1    4    4    0    0 -0.37335282028E+02 -0.33076664197E+02 -0.10493263690E+03  0.11618453979E+03  0.00000000000E+00 0. -1.
         -5    1    5    5    0  502  0.17771858826E+02 -0.28473620952E+02  0.11451483233E+03  0.11942496757E+03  0.47000000000E+01 0.  1.
         11    1    6    6    0    0 -0.67372843032E+01  0.40326305518E+02 -0.13656699780E+02  0.43105769514E+02  0.00000000000E+00 0. -1.
        -12    1    6    6    0    0  0.49201659467E+02 -0.12331054640E+02  0.11006728439E+02  0.51903817526E+02  0.00000000000E+00 0.  1.
<mgrwt>
<rscale>  2 0.18284990E+03</rscale>
<asrwt>0</asrwt>
<pdfrwt beam="1">  1       21 0.28640220E-01 0.18294379E+03</pdfrwt>
<pdfrwt beam="2">  1       21 0.63599498E-01 0.18294379E+03</pdfrwt>
<totfact> 0.26792457E+04</totfact>
</mgrwt>
</event>
<event>
12    1  0.1013215E-001  0.1776065E+03  0.7546771E-02  0.1170546E+00
         21   -1    0    0  503  502  0.00000000000E+00  0.00000000000E+00  0.17518029754E+03  0.17518029754E+03  0.00000000000E+00 0.  1.
         21   -1    0    0  501  503 -0.00000000000E+00 -0.00000000000E+00 -0.18157436611E+03  0.18157436611E+03  0.00000000000E+00 0.  1.
          6    2    1    2  501    0 -0.33030298567E+01 -0.28917003292E+02 -0.26739622438E+02  0.17798663211E+03  0.17354287861E+03 0.  0.
         24    2    3    3    0    0  0.25830829492E+02 -0.76355658650E+02 -0.38397363883E+02  0.12091474132E+03  0.81538940111E+02 0.  0.
         -6    2    1    2    0  502  0.33030298567E+01  0.28917003292E+02  0.20345553873E+02  0.17876803154E+03  0.17520549208E+03 0.  0.
        -24    2    5    5    0    0  0.66851120392E+02  0.40961714024E+02  0.91319201311E+01  0.11295564328E+03  0.80800068504E+02 0.  0.
          5    1    3    3  501    0 -0.29133859348E+02  0.47438655358E+02  0.11657741445E+02  0.57071890790E+02  0.47000000000E+01 0. -1.
        -11    1    4    4    0    0  0.40142869699E+02 -0.69477868380E+01 -0.27649336322E+02  0.49236242024E+02  0.00000000000E+00 0.  1.
         12    1    4    4    0    0 -0.14312040207E+02 -0.69407871812E+02 -0.10748027560E+02  0.71678499292E+02  0.00000000000E+00 0. -1.
         -5    1    5    5    0  502 -0.63548090535E+02 -0.12044710732E+02  0.11213633742E+02  0.65812388264E+02  0.47000000000E+01 0.  1.
         11    1    6    6    0    0  0.22096743747E+02  0.12726843720E+02 -0.35514414454E+02  0.43720844792E+02  0.00000000000E+00 0. -1.
        -12    1    6    6    0    0  0.44754376645E+02  0.28234870304E+02  0.44646334585E+02  0.69234798489E+02  0.00000000000E+00 0.  1.
<mgrwt>
<rscale>  2 0.17719509E+03</rscale>
<asrwt>0</asrwt>
<pdfrwt beam="1">  1       21 0.26950815E-01 0.17760650E+03</pdfrwt>
<pdfrwt beam="2">  1       21 0.27934518E-01 0.17760650E+03</pdfrwt>
<totfact> 0.16126945E+05</totfact>
</mgrwt>
</event>
<event>
12    1  0.1013215E-001  0.1852745E+03  0.7546771E-02  0.1163373E+00
         21   -1    0    0  501  502  0.00000000000E+00  0.00000000000E+00  0.22884621983E+03  0.22884621983E+03  0.00000000000E+00 0. -1.
         21   -1    0    0  502  503 -0.00000000000E+00 -0.00000000000E+00 -0.25242582244E+03  0.25242582244E+03  0.00000000000E+00 0.  1.
         -6    2    1    2    0  503  0.61512554495E+02  0.13743561055E+02 -0.16650997998E+03  0.24727257703E+03  0.17159683590E+03 0.  0.
        -24    2    3    3    0    0  0.82694435306E+02  0.53301830353E+02 -0.80395514224E+02  0.15005467767E+03  0.79834283581E+02 0.  0.
          6    2    1    2  501    0 -0.61512554495E+02 -0.13743561055E+02  0.14293037736E+03  0.23399946524E+03  0.17422392812E+03 0.  0.
         24    2    5    5    0    0 -0.10501223508E+02 -0.70620061806E+02  0.91435766551E+02  0.14174504979E+03  0.81447473326E+02 0.  0.
          5    1    5    5  501    0 -0.51011330987E+02  0.56876500751E+02  0.51494610809E+02  0.92254415445E+02  0.47000000000E+01 0. -1.
        -11    1    6    6    0    0 -0.62785486486E+01 -0.24293663665E+02 -0.12382798609E+02  0.27980992992E+02  0.00000000000E+00 0.  1.
         12    1    6    6    0    0 -0.42226748594E+01 -0.46326398140E+02  0.10381856516E+03  0.11376405680E+03  0.00000000000E+00 0. -1.
         -5    1    3    3    0  503 -0.21181880811E+02 -0.39558269299E+02 -0.86114465751E+02  0.97217899361E+02  0.47000000000E+01 0.  1.
         13    1    4    4    0    0  0.67926163168E+02  0.41294837452E+02 -0.13660857224E+02  0.80658826318E+02  0.00000000000E+00 0. -1.
        -14    1    4    4    0    0  0.14768272138E+02  0.12006992902E+02 -0.66734657000E+02  0.69395851356E+02  0.00000000000E+00 0.  1.
<mgrwt>
<rscale>  2 0.18465438E+03</rscale>
<asrwt>0</asrwt>
<pdfrwt beam="1">  1       21 0.35207111E-01 0.18527454E+03</pdfrwt>
<pdfrwt beam="2">  1       21 0.38834742E-01 0.18527454E+03</pdfrwt>
<totfact> 0.49897943E+04</totfact>
</mgrwt>
</event>
<event>
12    1  0.1013215E-001  0.2112097E+03  0.7546771E-02  0.1140627E+00
         21   -1    0    0  501  502  0.00000000000E+00  0.00000000000E+00  0.18196667997E+04  0.18196667997E+04  0.00000000000E+00 0.  1.
         21   -1    0    0  502  503 -0.00000000000E+00 -0.00000000000E+00 -0.24599990242E+02  0.24599990242E+02  0.00000000000E+00 0. -1.
         -6    2    1    2    0  503  0.10698764097E+03  0.54740112598E+02  0.84046572625E+03  0.86657934118E+03  0.17359228757E+03 0.  0.
        -24    2    3    3    0    0  0.52111256763E+02  0.84013527793E+02  0.35391519829E+03  0.37604712344E+03  0.79885014437E+02 0.  0.
          6    2    1    2  501    0 -0.10698764097E+03 -0.54740112598E+02  0.95460108322E+03  0.97768744877E+03  0.17368558998E+03 0.  0.
         24    2    5    5    0    0 -0.89289888612E+02 -0.25673814467E+02  0.92292775319E+03  0.93096111829E+03  0.79127347997E+02 0.  0.
          5    1    5    5  501    0 -0.17697752359E+02 -0.29066298130E+02  0.31673330023E+02  0.46726330482E+02  0.47000000000E+01 0. -1.
        -13    1    6    6    0    0 -0.63130650387E+02  0.22494427472E+02  0.53437688278E+03  0.53856302430E+03  0.00000000000E+00 0.  1.
         14    1    6    6    0    0 -0.26159238225E+02 -0.48168241940E+02  0.38855087041E+03  0.39239809400E+03  0.00000000000E+00 0. -1.
         -5    1    3    3    0  503  0.54876384208E+02 -0.29273415195E+02  0.48655052796E+03  0.49053221774E+03  0.47000000000E+01 0.  1.
         13    1    4    4    0    0  0.47441960582E+02  0.24699675423E+02  0.83484375796E+02  0.99148648967E+02  0.00000000000E+00 0. -1.
        -14    1    4    4    0    0  0.46692961813E+01  0.59313852370E+02  0.27043082249E+03  0.27689847447E+03  0.00000000000E+00 0.  1.
<mgrwt>
<rscale>  2 0.21119048E+03</rscale>
<asrwt>0</asrwt>
<pdfrwt beam="1">  1       21 0.27994863E+00 0.21120966E+03</pdfrwt>
<pdfrwt beam="2">  1       21 0.37846153E-02 0.21120966E+03</pdfrwt>
<totfact> 0.18818683E+04</totfact>
</mgrwt>
</event>
<event>
12    1  0.1013215E-001  0.2047062E+03  0.7546771E-02  0.1145849E+00
         21   -1    0    0  501  502  0.00000000000E+00  0.00000000000E+00  0.71028730435E+02  0.71028730435E+02  0.00000000000E+00 0. -1.
         21   -1    0    0  502  503 -0.00000000000E+00 -0.00000000000E+00 -0.65378028639E+03  0.65378028639E+03  0.00000000000E+00 0.  1.
         -6    2    1    2    0  503 -0.79601982513E+02 -0.73759781999E+02 -0.40479243976E+03  0.45356358362E+03  0.17345323299E+03 0.  0.
        -24    2    3    3    0    0 -0.50715658426E+02 -0.93208911994E+02 -0.39438195672E+03  0.41691448357E+03  0.83788898701E+02 0.  0.
          6    2    1    2  501    0  0.79601982513E+02  0.73759781999E+02 -0.17795911619E+03  0.27124543321E+03  0.17357320340E+03 0.  0.
         24    2    5    5    0    0  0.41405794049E+02  0.87902039645E+02 -0.19055422090E+03  0.22835395472E+03  0.79958796769E+02 0.  0.
          5    1    5    5  501    0  0.38196188464E+02 -0.14142257646E+02  0.12595104701E+02  0.42891478488E+02  0.47000000000E+01 0. -1.
        -13    1    6    6    0    0 -0.18517570130E+02  0.49865681957E+02 -0.63654313131E+02  0.82953952412E+02  0.00000000000E+00 0.  1.
         14    1    6    6    0    0  0.59923364180E+02  0.38036357689E+02 -0.12689990776E+03  0.14540000231E+03  0.00000000000E+00 0. -1.
         -5    1    3    3    0  503 -0.28886324087E+02  0.19449129995E+02 -0.10410483047E+02  0.36649100045E+02  0.47000000000E+01 0.  1.
         13    1    4    4    0    0  0.81626728425E+01 -0.24176313868E+01 -0.59940357131E+00  0.85342518182E+01  0.00000000000E+00 0. -1.
        -14    1    4    4    0    0 -0.58878331269E+02 -0.90791280608E+02 -0.39378255314E+03  0.40838023176E+03  0.00000000000E+00 0.  1.
<mgrwt>
<rscale>  2 0.20468079E+03</rscale>
<asrwt>0</asrwt>
<pdfrwt beam="1">  1       21 0.10927497E-01 0.20470622E+03</pdfrwt>
<pdfrwt beam="2">  1       21 0.10058158E+00 0.20470622E+03</pdfrwt>
<totfact> 0.55811529E+04</totfact>
</mgrwt>
</event>
<event>
12    1  0.1013215E-001  0.2057532E+03  0.7546771E-02  0.1145002E+00
         21   -1    0    0  503  502  0.00000000000E+00  0.00000000000E+00  0.27899934792E+03  0.27899934792E+03  0.00000000000E+00 0. -1.
         21   -1    0    0  501  503 -0.00000000000E+00 -0.00000000000E+00 -0.25166308606E+03  0.25166308606E+03  0.00000000000E+00 0. -1.
          6    2    1    2  501    0  0.10640023216E+03 -0.30353237557E+02 -0.15360897923E+03  0.25676855365E+03  0.17347058313E+03 0.  0.
         24    2    3    3    0    0 -0.92646799836E+00 -0.19215431811E+01 -0.11260732460E+03  0.13831768833E+03  0.80292108470E+02 0.  0.
         -6    2    1    2    0  502 -0.10640023216E+03  0.30353237557E+02  0.18094524109E+03  0.27389388032E+03  0.17330420933E+03 0.  0.
        -24    2    5    5    0    0 -0.17560500370E+02  0.53212865443E+02  0.46021148233E+02  0.11067114488E+03  0.83607272430E+02 0.  0.
          5    1    3    3  501    0  0.10732670016E+03 -0.28431694376E+02 -0.41001654634E+02  0.11845086532E+03  0.47000000000E+01 0. -1.
        -13    1    4    4    0    0 -0.58507587403E+01 -0.37891073199E+02 -0.32102792128E+02  0.50005540378E+02  0.00000000000E+00 0.  1.
         14    1    4    4    0    0  0.49242907419E+01  0.35969530018E+02 -0.80504532467E+02  0.88312147957E+02  0.00000000000E+00 0. -1.
         -5    1    5    5    0  502 -0.88839731792E+02 -0.22859627887E+02  0.13492409285E+03  0.16322273544E+03  0.47000000000E+01 0.  1.
         13    1    6    6    0    0 -0.49242670364E+02  0.16270755917E+02  0.26445633121E+02  0.58214685380E+02  0.00000000000E+00 0. -1.
        -14    1    6    6    0    0  0.31682169994E+02  0.36942109526E+02  0.19575515113E+02  0.52456459504E+02  0.00000000000E+00 0.  1.
<mgrwt>
<rscale>  2 0.20571811E+03</rscale>
<asrwt>0</asrwt>
<pdfrwt beam="1">  1       21 0.42922977E-01 0.20575318E+03</pdfrwt>
<pdfrwt beam="2">  1       21 0.38717398E-01 0.20575318E+03</pdfrwt>
<totfact> 0.33341932E+04</totfact>
</mgrwt>
</event>
<event>
12    1  0.1013215E-001  0.4362250E+03  0.7546771E-02  0.1031930E+00
         21   -1    0    0  501  502  0.00000000000E+00  0.00000000000E+00  0.11002568230E+04  0.11002568230E+04  0.00000000000E+00 0. -1.
         21   -1    0    0  502  503 -0.00000000000E+00 -0.00000000000E+00 -0.66588052132E+03  0.66588052132E+03  0.00000000000E+00 0.  1.
         -6    2    1    2    0  503 -0.14776633284E+03 -0.37202806671E+03 -0.54267886276E+03  0.69612376186E+03  0.17276623572E+03 0.  0.
        -24    2    3    3    0    0 -0.17113475742E+03 -0.36493673225E+03 -0.50837629818E+03  0.65375483187E+03  0.80517053554E+02 0.  0.
          6    2    1    2  501    0  0.14776633284E+03  0.37202806671E+03  0.97705516448E+03  0.10700135825E+04  0.17335657107E+03 0.  0.
         24    2    5    5    0    0  0.31304498597E+02  0.12012906134E+03  0.46843901768E+03  0.49059236910E+03  0.76385838500E+02 0.  0.
          5    1    5    5  501    0  0.11646183425E+03  0.25189900536E+03  0.50861614680E+03  0.57942121339E+03  0.47000000000E+01 0. -1.
        -11    1    6    6    0    0 -0.24269740907E+02  0.35465382105E+02  0.10922566250E+03  0.11737571725E+03  0.00000000000E+00 0.  1.
         12    1    6    6    0    0  0.55574239504E+02  0.84663679239E+02  0.35921335517E+03  0.37321665184E+03  0.00000000000E+00 0. -1.
         -5    1    3    3    0  503  0.23368424571E+02 -0.70913344613E+01 -0.34302564585E+02  0.42368929990E+02  0.47000000000E+01 0.  1.
         11    1    4    4    0    0 -0.61053391329E+02 -0.80125222153E+02 -0.85297674273E+02  0.13199720093E+03  0.00000000000E+00 0. -1.
        -12    1    4    4    0    0 -0.11008136609E+03 -0.28481151009E+03 -0.42307862390E+03  0.52175763094E+03  0.00000000000E+00 0.  1.
<mgrwt>
<rscale>  2 0.43616645E+03</rscale>
<asrwt>0</asrwt>
<pdfrwt beam="1">  1       21 0.16927028E+00 0.43622502E+03</pdfrwt>
<pdfrwt beam="2">  1       21 0.10244316E+00 0.43622502E+03</pdfrwt>
<totfact> 0.13598211E+02</totfact>
</mgrwt>
</event>
<event>
12    1  0.1013215E-001  0.1837335E+03  0.7546771E-02  0.1164384E+00
         21   -1    0    0  501  502  0.00000000000E+00  0.00000000000E+00  0.82489419070E+02  0.82489419070E+02  0.00000000000E+00 0. -1.
         21   -1    0    0  502  503 -0.00000000000E+00 -0.00000000000E+00 -0.61690271882E+03  0.61690271882E+03  0.00000000000E+00 0. -1.
         -6    2    1    2    0  503  0.60062272190E+02  0.11194769152E+02 -0.47106644458E+03  0.50562990591E+03  0.17327783223E+03 0.  0.
        -24    2    3    3    0    0  0.81547531973E+02 -0.35152956227E+02 -0.40417113871E+03  0.42132806735E+03  0.79229417979E+02 0.  0.
          6    2    1    2  501    0 -0.60062272190E+02 -0.11194769152E+02 -0.63346855169E+02  0.19376223198E+03  0.17262149080E+03 0.  0.
         24    2    5    5    0    0  0.31421875392E+02 -0.12339523541E+02 -0.64620460402E+02  0.10214142762E+03  0.71536488869E+02 0.  0.
          5    1    5    5  501    0 -0.91484147582E+02  0.11447543894E+01  0.12736052333E+01  0.91620804361E+02  0.47000000000E+01 0. -1.
        -11    1    6    6    0    0  0.58779325782E+01  0.30341087383E+01 -0.71285750417E+02  0.71591997596E+02  0.00000000000E+00 0.  1.
         12    1    6    6    0    0  0.25543942814E+02 -0.15373632279E+02  0.66652900152E+01  0.30549430026E+02  0.00000000000E+00 0. -1.
         -5    1    3    3    0  503 -0.21485259783E+02  0.46347725379E+02 -0.66895305876E+02  0.84301838556E+02  0.47000000000E+01 0.  1.
         11    1    4    4    0    0 -0.72216688526E+01  0.93452586088E+01 -0.11455375716E+03  0.11516097273E+03  0.00000000000E+00 0. -1.
        -12    1    4    4    0    0  0.88769200826E+02 -0.44498214836E+02 -0.28961738155E+03  0.30616709463E+03  0.00000000000E+00 0.  1.
<mgrwt>
<rscale>  2 0.18357861E+03</rscale>
<asrwt>0</asrwt>
<pdfrwt beam="1">  1       21 0.12690680E-01 0.18373352E+03</pdfrwt>
<pdfrwt beam="2">  1       21 0.94908109E-01 0.18373352E+03</pdfrwt>
<totfact> 0.49500002E+04</totfact>
</mgrwt>
</event>
<event>
12    1  0.1013215E-001  0.2160909E+03  0.7546771E-02  0.1137212E+00
         21   -1    0    0  501  502  0.00000000000E+00  0.00000000000E+00  0.52405984487E+03  0.52405984487E+03  0.00000000000E+00 0.  1.
         21   -1    0    0  502  503 -0.00000000000E+00 -0.00000000000E+00 -0.16497998484E+03  0.16497998484E+03  0.00000000000E+00 0.  1.
         -6    2    1    2    0  503  0.10211249224E+03 -0.74786777453E+02 -0.55799437548E+02  0.22125773558E+03  0.17268869439E+03 0.  0.
        -24    2    3    3    0    0  0.13959563052E+03 -0.51120410169E+02 -0.49130581931E+02  0.17618394906E+03  0.80788201065E+02 0.  0.
          6    2    1    2  501    0 -0.10211249224E+03  0.74786777453E+02  0.41487929757E+03  0.46778209413E+03  0.17514346371E+03 0.  0.
         24    2    5    5    0    0  0.41044543475E+00  0.33343487345E+02  0.28172273133E+03  0.29463111903E+03  0.79547736232E+02 0.  0.
          5    1    5    5  501    0 -0.10252293767E+03  0.41443290108E+02  0.13315656624E+03  0.17315097510E+03  0.47000000000E+01 0. -1.
        -11    1    6    6    0    0 -0.31292272924E+02  0.54938001180E+01  0.20147764713E+03  0.20396722893E+03  0.00000000000E+00 0.  1.
         12    1    6    6    0    0  0.31702718358E+02  0.27849687227E+02  0.80245084202E+02  0.90663890103E+02  0.00000000000E+00 0. -1.
         -5    1    3    3    0  503 -0.37483138281E+02 -0.23666367284E+02 -0.66688556171E+01  0.45073786518E+02  0.47000000000E+01 0.  1.
         13    1    4    4    0    0  0.10774769025E+03 -0.14088837802E+02 -0.25566225406E+01  0.10869496963E+03  0.00000000000E+00 0. -1.
        -14    1    4    4    0    0  0.31847940269E+02 -0.37031572367E+02 -0.46573959391E+02  0.67488979431E+02  0.00000000000E+00 0.  1.
<mgrwt>
<rscale>  2 0.21559294E+03</rscale>
<asrwt>0</asrwt>
<pdfrwt beam="1">  1       21 0.80624591E-01 0.21609085E+03</pdfrwt>
<pdfrwt beam="2">  1       21 0.25381536E-01 0.21609085E+03</pdfrwt>
<totfact> 0.19608385E+04</totfact>
</mgrwt>
</event>
<event>
12    1  0.1013215E-001  0.2305713E+03  0.7546771E-02  0.1127527E+00
         21   -1    0    0  501  502  0.00000000000E+00  0.00000000000E+00  0.12883738399E+03  0.12883738399E+03  0.00000000000E+00 0.  1.
         21   -1    0    0  502  503 -0.00000000000E+00 -0.00000000000E+00 -0.87827014514E+03  0.87827014514E+03  0.00000000000E+00 0.  1.
         -6    2    1    2    0  503 -0.29851842245E+02  0.14011763286E+03 -0.74907756566E+03  0.78376036960E+03  0.18066276333E+03 0.  0.
        -24    2    3    3    0    0 -0.45481142079E+02  0.13719040593E+03 -0.38159472088E+03  0.41590363814E+03  0.80446028179E+02 0.  0.
          6    2    1    2  501    0  0.29851842245E+02 -0.14011763286E+03 -0.35519549190E+00  0.22334715954E+03  0.17134685287E+03 0.  0.
         24    2    5    5    0    0  0.27021619267E+02 -0.12859887249E+03 -0.57038925865E+02  0.16524528959E+03  0.82369464943E+02 0.  0.
          5    1    5    5  501    0  0.28302229782E+01 -0.11518760363E+02  0.56683730373E+02  0.58101869948E+02  0.47000000000E+01 0. -1.
        -13    1    6    6    0    0 -0.27673349888E+02 -0.68075081023E+02 -0.25468452078E+02  0.77773215193E+02  0.00000000000E+00 0.  1.
         14    1    6    6    0    0  0.54694969155E+02 -0.60523791471E+02 -0.31570473787E+02  0.87472074401E+02  0.00000000000E+00 0. -1.
         -5    1    3    3    0  503  0.15629299834E+02  0.29272269217E+01 -0.36748284478E+03  0.36785673145E+03  0.47000000000E+01 0.  1.
         11    1    4    4    0    0 -0.18860039558E+02  0.12037312376E+03 -0.35275484410E+03  0.37320419351E+03  0.00000000000E+00 0. -1.
        -12    1    4    4    0    0 -0.26621102521E+02  0.16817282173E+02 -0.28839876777E+02  0.42699444629E+02  0.00000000000E+00 0.  1.
<mgrwt>
<rscale>  2 0.22874357E+03</rscale>
<asrwt>0</asrwt>
<pdfrwt beam="1">  1       21 0.19821136E-01 0.23057129E+03</pdfrwt>
<pdfrwt beam="2">  1       21 0.13511849E+00 0.23057129E+03</pdfrwt>
<totfact> 0.89562383E+03</totfact>
</mgrwt>
</event>
<event>
12    1  0.1013215E-001  0.1713845E+03  0.7546771E-02  0.1176424E+00
         21   -1    0    0  503  502  0.00000000000E+00  0.00000000000E+00  0.11205426859E+03  0.11205426859E+03  0.00000000000E+00 0. -1.
         21   -1    0    0  501  503 -0.00000000000E+00 -0.00000000000E+00 -0.26213956562E+03  0.26213956562E+03  0.00000000000E+00 0. -1.
          6    2    1    2  501    0 -0.42722061959E+01  0.67673859972E+01 -0.71682304199E+02  0.18577132524E+03  0.17119749790E+03 0.  0.
         24    2    3    3    0    0 -0.65730978207E+02  0.23829593855E+02 -0.54050338477E+02  0.11942921336E+03  0.80333597421E+02 0.  0.
         -6    2    1    2    0  502  0.42722061959E+01 -0.67673859972E+01 -0.78402992831E+02  0.18842250897E+03  0.17114895074E+03 0.  0.
        -24    2    5    5    0    0  0.29430043368E+02 -0.27612979639E+02  0.16451075878E+02  0.87989248060E+02  0.76438640618E+02 0.  0.
          5    1    3    3  501    0  0.61458772011E+02 -0.17062207858E+02 -0.17631965722E+02  0.66342111884E+02  0.47000000000E+01 0. -1.
        -13    1    4    4    0    0 -0.30331702175E+02  0.34103777721E+02 -0.66384317135E+02  0.80560271680E+02  0.00000000000E+00 0.  1.
         14    1    4    4    0    0 -0.35399276032E+02 -0.10274183866E+02  0.12333978658E+02  0.38868941678E+02  0.00000000000E+00 0. -1.
         -5    1    5    5    0  502 -0.25157837172E+02  0.20845593641E+02 -0.94854068709E+02  0.10043326091E+03  0.47000000000E+01 0.  1.
         13    1    6    6    0    0 -0.18719285937E+02  0.11621261507E+02 -0.44080290273E+01  0.22469893300E+02  0.00000000000E+00 0. -1.
        -14    1    6    6    0    0  0.48149329305E+02 -0.39234241146E+02  0.20859104906E+02  0.65519354760E+02  0.00000000000E+00 0.  1.
<mgrwt>
<rscale>  2 0.17137233E+03</rscale>
<asrwt>0</asrwt>
<pdfrwt beam="1">  1       21 0.17239118E-01 0.17138446E+03</pdfrwt>
<pdfrwt beam="2">  1       21 0.40329164E-01 0.17138446E+03</pdfrwt>
<totfact> 0.18129841E+05</totfact>
</mgrwt>
</event>
<event>
12    1  0.1013215E-001  0.1846987E+03  0.7546771E-02  0.1163364E+00
         21   -1    0    0  501  502  0.00000000000E+00  0.00000000000E+00  0.55800620292E+02  0.55800620292E+02  0.00000000000E+00 0.  1.
         21   -1    0    0  502  503 -0.00000000000E+00 -0.00000000000E+00 -0.62702983763E+03  0.62702983763E+03  0.00000000000E+00 0.  1.
         -6    2    1    2    0  503 -0.29082240899E+02 -0.59472293113E+02 -0.34048310805E+03  0.38735300856E+03  0.17242643645E+03 0.  0.
        -24    2    3    3    0    0 -0.25386099019E+02 -0.10496523372E+03 -0.28425069965E+03  0.31477585744E+03  0.81383203806E+02 0.  0.
          6    2    1    2  501    0  0.29082240899E+02  0.59472293113E+02 -0.23074610929E+03  0.29547744937E+03  0.17228007937E+03 0.  0.
         24    2    5    5    0    0 -0.46767938269E+01  0.46593712732E+01 -0.21390192503E+03  0.22876953852E+03  0.80857195608E+02 0.  0.
          5    1    5    5  501    0  0.33759034726E+02  0.54812921840E+02 -0.16844184256E+02  0.66707910846E+02  0.47000000000E+01 0. -1.
        -11    1    6    6    0    0 -0.30952538607E+01 -0.35288170577E+02 -0.59232919116E+02  0.69017202827E+02  0.00000000000E+00 0.  1.
         12    1    6    6    0    0 -0.15815399662E+01  0.39947541850E+02 -0.15466900591E+03  0.15975233569E+03  0.00000000000E+00 0. -1.
         -5    1    3    3    0  503 -0.36961418801E+01  0.45492940606E+02 -0.56232408399E+02  0.72577151116E+02  0.47000000000E+01 0.  1.
         13    1    4    4    0    0  0.82656134135E+01 -0.22640462444E+02 -0.16096158741E+03  0.16275608599E+03  0.00000000000E+00 0. -1.
        -14    1    4    4    0    0 -0.33651712432E+02 -0.82324771274E+02 -0.12328911224E+03  0.15201977145E+03  0.00000000000E+00 0.  1.
<mgrwt>
<rscale>  2 0.18466453E+03</rscale>
<asrwt>0</asrwt>
<pdfrwt beam="1">  1       21 0.85847103E-02 0.18469869E+03</pdfrwt>
<pdfrwt beam="2">  1       21 0.96466134E-01 0.18469869E+03</pdfrwt>
<totfact> 0.95135866E+04</totfact>
</mgrwt>
</event>
<event>
12    1  0.1013215E-001  0.1861285E+03  0.7546771E-02  0.1162313E+00
         21   -1    0    0  503  502  0.00000000000E+00  0.00000000000E+00  0.86567396072E+02  0.86567396072E+02  0.00000000000E+00 0.  1.
         21   -1    0    0  501  503 -0.00000000000E+00 -0.00000000000E+00 -0.83897118882E+03  0.83897118882E+03  0.00000000000E+00 0.  1.
          6    2    1    2  501    0 -0.43429833015E+02 -0.46047021915E+02 -0.71132124094E+03  0.73493011439E+03  0.17360266877E+03 0.  0.
         24    2    3    3    0    0 -0.42215858562E+02  0.10115851015E+02 -0.62632475023E+03  0.63293876445E+03  0.80276258241E+02 0.  0.
         -6    2    1    2    0  502  0.43429833015E+02  0.46047021915E+02 -0.41082551811E+02  0.19060847051E+03  0.17503523743E+03 0.  0.
        -24    2    5    5    0    0  0.15617974436E+02 -0.36978162738E+01 -0.85372463644E+02  0.11827773918E+03  0.80271857248E+02 0.  0.
          5    1    3    3  501    0 -0.12139744528E+01 -0.56162872930E+02 -0.84996490711E+02  0.10199134994E+03  0.47000000000E+01 0. -1.
        -11    1    4    4    0    0  0.80366636993E+01 -0.27650087236E+01 -0.42348247667E+03  0.42356775288E+03  0.00000000000E+00 0.  1.
         12    1    4    4    0    0 -0.50252522261E+02  0.12880859738E+02 -0.20284227356E+03  0.20937101156E+03  0.00000000000E+00 0. -1.
         -5    1    5    5    0  502  0.27811858579E+02  0.49744838189E+02  0.44289911833E+02  0.72330731326E+02  0.47000000000E+01 0.  1.
         13    1    6    6    0    0  0.43074178230E+02 -0.22475407811E+02 -0.51676338616E+02  0.70929350478E+02  0.00000000000E+00 0. -1.
        -14    1    6    6    0    0 -0.27456203794E+02  0.18777591537E+02 -0.33696125027E+02  0.47348388701E+02  0.00000000000E+00 0.  1.
<mgrwt>
<rscale>  2 0.18579093E+03</rscale>
<asrwt>0</asrwt>
<pdfrwt beam="1">  1       21 0.13318061E-01 0.18612849E+03</pdfrwt>
<pdfrwt beam="2">  1       21 0.12907249E+00 0.18612849E+03</pdfrwt>
<totfact> 0.21507076E+04</totfact>
</mgrwt>
</event>
<event>
12    1  0.1013215E-001  0.3754718E+03  0.7546771E-02  0.1052707E+00
         21   -1    0    0  501  502  0.00000000000E+00  0.00000000000E+00  0.54866064817E+03  0.54866064817E+03  0.00000000000E+00 0.  1.
         21   -1    0    0  502  503 -0.00000000000E+00 -0.00000000000E+00 -0.29213105365E+03  0.29213105365E+03  0.00000000000E+00 0.  1.
         -6    2    1    2    0  503 -0.18998387600E+03  0.27367199067E+03 -0.18786973168E+02  0.37594155362E+03  0.17317294754E+03 0.  0.
        -24    2    3    3    0    0 -0.52737256402E+02  0.19179618241E+03  0.12674765762E+01  0.21480635100E+03  0.81075077137E+02 0.  0.
          6    2    1    2  501    0  0.18998387600E+03 -0.27367199067E+03  0.27531656769E+03  0.46485014821E+03  0.17116137483E+03 0.  0.
         24    2    5    5    0    0  0.61279259429E+02 -0.52603752635E+02  0.51278803474E+02  0.12477507711E+03  0.80106190482E+02 0.  0.
          5    1    5    5  501    0  0.12870461657E+03 -0.22106823803E+03  0.22403776422E+03  0.34007507111E+03  0.47000000000E+01 0. -1.
        -13    1    6    6    0    0  0.57651707520E+02 -0.44121791782E+02  0.71904841594E+02  0.10218002806E+03  0.00000000000E+00 0.  1.
         14    1    6    6    0    0  0.36275519090E+01 -0.84819608532E+01 -0.20626038120E+02  0.22595049044E+02  0.00000000000E+00 0. -1.
         -5    1    3    3    0  503 -0.13724661960E+03  0.81875808257E+02 -0.20054449744E+02  0.16113520262E+03  0.47000000000E+01 0.  1.
         11    1    4    4    0    0 -0.21728418372E+02  0.13009928153E+01 -0.10041710280E+01  0.21790482021E+02  0.00000000000E+00 0. -1.
        -12    1    4    4    0    0 -0.31008838031E+02  0.19049518959E+03  0.22716476042E+01  0.19301586898E+03  0.00000000000E+00 0.  1.
<mgrwt>
<rscale>  2 0.37524075E+03</rscale>
<asrwt>0</asrwt>
<pdfrwt beam="1">  1       21 0.84409331E-01 0.37547184E+03</pdfrwt>
<pdfrwt beam="2">  1       21 0.44943239E-01 0.37547184E+03</pdfrwt>
<totfact> 0.52276130E+03</totfact>
</mgrwt>
</event>
<event>
12    1  0.1013215E-001  0.3048104E+03  0.7546771E-02  0.1083475E+00
         21   -1    0    0  501  502  0.00000000000E+00  0.00000000000E+00  0.71555666339E+02  0.71555666339E+02  0.00000000000E+00 0. -1.
         21   -1    0    0  502  503 -0.00000000000E+00 -0.00000000000E+00 -0.17420940776E+04  0.17420940776E+04  0.00000000000E+00 0.  1.
         -6    2    1    2    0  503 -0.18710169747E+03  0.15805727099E+03 -0.13086976631E+04  0.13437257691E+04  0.18143930921E+03 0.  0.
        -24    2    3    3    0    0 -0.10338592900E+03  0.57454792009E+02 -0.97581921881E+03  0.98601172497E+03  0.77500132513E+02 0.  0.
          6    2    1    2  501    0  0.18710169747E+03 -0.15805727099E+03 -0.36184074813E+03  0.46992397484E+03  0.17294701217E+03 0.  0.
         24    2    5    5    0    0  0.14017521232E+03 -0.40898104559E+02 -0.15519078039E+03  0.22773672403E+03  0.80362255141E+02 0.  0.
          5    1    5    5  501    0  0.46926485153E+02 -0.11715916643E+03 -0.20664996774E+03  0.24218725081E+03  0.47000000000E+01 0. -1.
        -11    1    6    6    0    0  0.10998435300E+03 -0.27400454096E+02 -0.15810622609E+03  0.19453771233E+03  0.00000000000E+00 0.  1.
         12    1    6    6    0    0  0.30190859317E+02 -0.13497650463E+02  0.29154457059E+01  0.33199011702E+02  0.00000000000E+00 0. -1.
         -5    1    3    3    0  503 -0.83715768470E+02  0.10060247898E+03 -0.33287844429E+03  0.35771404410E+03  0.47000000000E+01 0.  1.
         13    1    4    4    0    0  0.34961825189E+01  0.20758672889E+02 -0.30629666445E+03  0.30701920534E+03  0.00000000000E+00 0. -1.
        -14    1    4    4    0    0 -0.10688211152E+03  0.36696119120E+02 -0.66952255435E+03  0.67899251963E+03  0.00000000000E+00 0.  1.
<mgrwt>
<rscale>  2 0.30355834E+03</rscale>
<asrwt>0</asrwt>
<pdfrwt beam="1">  1       21 0.11008564E-01 0.30481038E+03</pdfrwt>
<pdfrwt beam="2">  1       21 0.26801448E+00 0.30481038E+03</pdfrwt>
<totfact> 0.32317867E+03</totfact>
</mgrwt>
</event>
<event>
12    1  0.1013215E-001  0.1891422E+03  0.7546771E-02  0.1161584E+00
         21   -1    0    0  503  502  0.00000000000E+00  0.00000000000E+00  0.62617913554E+03  0.62617913554E+03  0.00000000000E+00 0. -1.
         21   -1    0    0  501  503 -0.00000000000E+00 -0.00000000000E+00 -0.73361948862E+02  0.73361948862E+02  0.00000000000E+00 0. -1.
          6    2    1    2  501    0 -0.23204593607E+02  0.39365344729E+02  0.10296972069E+03  0.21535446822E+03  0.18353936928E+03 0.  0.
         24    2    3    3    0    0  0.51021203171E+02 -0.11374217670E+02  0.35500006349E+02  0.10284569322E+03  0.81144624978E+02 0.  0.
         -6    2    1    2    0  502  0.23204593607E+02 -0.39365344729E+02  0.44984746599E+03  0.48418661618E+03  0.17316423735E+03 0.  0.
        -24    2    5    5    0    0  0.93146869164E+01 -0.21689398128E+01  0.12546965323E+03  0.15735400236E+03  0.94478465714E+02 0.  0.
          5    1    3    3  501    0 -0.74225796778E+02  0.50739562399E+02  0.67469714337E+02  0.11250877500E+03  0.47000000000E+01 0. -1.
        -13    1    4    4    0    0  0.36284407948E+02  0.30844454858E+02  0.32906766592E+01  0.47736434811E+02  0.00000000000E+00 0.  1.
         14    1    4    4    0    0  0.14736795223E+02 -0.42218672528E+02  0.32209329690E+02  0.55109258410E+02  0.00000000000E+00 0. -1.
         -5    1    5    5    0  502  0.13889906690E+02 -0.37196404916E+02  0.32437781276E+03  0.32683261382E+03  0.47000000000E+01 0.  1.
         11    1    6    6    0    0  0.18454833378E+02 -0.43214234514E+02  0.93103783439E+02  0.10428981460E+03  0.00000000000E+00 0. -1.
        -12    1    6    6    0    0 -0.91401464611E+01  0.41045294701E+02  0.32365869794E+02  0.53064187754E+02  0.00000000000E+00 0.  1.
<mgrwt>
<rscale>  2 0.18657799E+03</rscale>
<asrwt>0</asrwt>
<pdfrwt beam="1">  1       21 0.96335248E-01 0.18914223E+03</pdfrwt>
<pdfrwt beam="2">  1       21 0.11286454E-01 0.18914223E+03</pdfrwt>
<totfact> 0.58792165E+04</totfact>
</mgrwt>
</event>
<event>
12    1  0.1013215E-001  0.2290778E+03  0.7546771E-02  0.1128090E+00
         21   -1    0    0  501  502  0.00000000000E+00  0.00000000000E+00  0.96398496644E+02  0.96398496644E+02  0.00000000000E+00 0. -1.
         21   -1    0    0  502  503 -0.00000000000E+00 -0.00000000000E+00 -0.10669575625E+04  0.10669575625E+04  0.00000000000E+00 0. -1.
         -6    2    1    2    0  503  0.31270194043E+02 -0.14678029869E+03 -0.89885286465E+03  0.92758454823E+03  0.17307322353E+03 0.  0.
        -24    2    3    3    0    0 -0.75998398421E+01 -0.47748957766E+02 -0.65230569061E+03  0.65902229279E+03  0.80435986087E+02 0.  0.
          6    2    1    2  501    0 -0.31270194043E+02  0.14678029869E+03 -0.71706201221E+02  0.23577151093E+03  0.16710519129E+03 0.  0.
         24    2    5    5    0    0 -0.22572539529E+02  0.11045353226E+02 -0.63790691618E+01  0.84810096007E+02  0.80749863732E+02 0.  0.
          5    1    5    5  501    0 -0.86976545139E+01  0.13573494546E+03 -0.65327132059E+02  0.15096141492E+03  0.47000000000E+01 0. -1.
        -11    1    6    6    0    0  0.30099156177E+02  0.11739355232E+01  0.34786263961E+01  0.30322238849E+02  0.00000000000E+00 0.  1.
         12    1    6    6    0    0 -0.52671695706E+02  0.98714177026E+01 -0.98576955578E+01  0.54487857159E+02  0.00000000000E+00 0. -1.
         -5    1    3    3    0  503  0.38870033885E+02 -0.99031340919E+02 -0.24654717404E+03  0.26856225544E+03  0.47000000000E+01 0.  1.
         11    1    4    4    0    0  0.32898654667E+02 -0.41227935203E+02 -0.35305493152E+03  0.35697317657E+03  0.00000000000E+00 0. -1.
        -12    1    4    4    0    0 -0.40498494509E+02 -0.65210225628E+01 -0.29925075909E+03  0.30204911622E+03  0.00000000000E+00 0.  1.
<mgrwt>
<rscale>  2 0.22795074E+03</rscale>
<asrwt>0</asrwt>
<pdfrwt beam="1">  1       21 0.14830538E-01 0.22907776E+03</pdfrwt>
<pdfrwt beam="2">  1       21 0.16414732E+00 0.22907776E+03</pdfrwt>
<totfact> 0.91524566E+03</totfact>
</mgrwt>
</event>
<event>
12    1  0.1013215E-001  0.1846464E+03  0.7546771E-02  0.1163549E+00
         21   -1    0    0  503  502  0.00000000000E+00  0.00000000000E+00  0.28844174960E+03  0.28844174960E+03  0.00000000000E+00 0.  1.
         21   -1    0    0  501  503 -0.00000000000E+00 -0.00000000000E+00 -0.28640600758E+03  0.28640600758E+03  0.00000000000E+00 0.  1.
          6    2    1    2  501    0 -0.51509561708E+02  0.39323382968E+02 -0.21954916028E+03  0.28687298629E+03  0.17290087648E+03 0.  0.
         24    2    3    3    0    0 -0.70512518070E+02  0.80505845016E+02 -0.18829190539E+03  0.23158995531E+03  0.82017434004E+02 0.  0.
         -6    2    1    2    0  502  0.51509561708E+02 -0.39323382968E+02  0.22158490230E+03  0.28797477090E+03  0.17213377458E+03 0.  0.
        -24    2    5    5    0    0  0.28789729431E+02 -0.68827313690E+02  0.66461589430E+02  0.12837525679E+03  0.80604069727E+02 0.  0.
          5    1    3    3  501    0  0.19002956362E+02 -0.41182462048E+02 -0.31257254891E+02  0.55283030979E+02  0.47000000000E+01 0. -1.
        -13    1    4    4    0    0  0.14358092445E+02  0.13865267651E+01 -0.62635135761E+01  0.15726057276E+02  0.00000000000E+00 0.  1.
         14    1    4    4    0    0 -0.84870610515E+02  0.79119318251E+02 -0.18202839181E+03  0.21586389803E+03  0.00000000000E+00 0. -1.
         -5    1    5    5    0  502  0.22719832276E+02  0.29503930722E+02  0.15512331287E+03  0.15959951410E+03  0.47000000000E+01 0.  1.
         11    1    6    6    0    0 -0.20855149428E+02 -0.22866330117E+02 -0.33879953082E+01  0.31133339411E+02  0.00000000000E+00 0. -1.
        -12    1    6    6    0    0  0.49644878859E+02 -0.45960983573E+02  0.69849584739E+02  0.97241917382E+02  0.00000000000E+00 0.  1.
<mgrwt>
<rscale>  2 0.18446657E+03</rscale>
<asrwt>0</asrwt>
<pdfrwt beam="1">  1       21 0.44375654E-01 0.18464636E+03</pdfrwt>
<pdfrwt beam="2">  1       21 0.44062463E-01 0.18464636E+03</pdfrwt>
<totfact> 0.24236722E+04</totfact>
</mgrwt>
</event>
<event>
12    1  0.1013215E-001  0.1866309E+03  0.7546771E-02  0.1162111E+00
         21   -1    0    0  503  502  0.00000000000E+00  0.00000000000E+00  0.61505000969E+02  0.61505000969E+02  0.00000000000E+00 0.  1.
         21   -1    0    0  501  503 -0.00000000000E+00 -0.00000000000E+00 -0.58179229667E+03  0.58179229667E+03  0.00000000000E+00 0.  1.
          6    2    1    2  501    0  0.56860713373E+02  0.12145339635E+02 -0.32570598318E+03  0.37538710620E+03  0.17734272473E+03 0.  0.
         24    2    3    3    0    0 -0.19984931544E+02  0.17204349463E+01 -0.69979016771E+02  0.10811888300E+03  0.79939181177E+02 0.  0.
         -6    2    1    2    0  502 -0.56860713373E+02 -0.12145339635E+02 -0.19458131252E+03  0.26791019145E+03  0.17473789943E+03 0.  0.
        -24    2    5    5    0    0 -0.30781070315E+02  0.10324550009E+01 -0.17640845726E+02  0.88511694120E+02  0.81083785710E+02 0.  0.
          5    1    3    3  501    0  0.76845644917E+02  0.10424904689E+02 -0.25572696641E+03  0.26726822320E+03  0.47000000000E+01 0. -1.
        -13    1    4    4    0    0  0.22244879864E+02 -0.65484216588E+01 -0.59457733996E+02  0.63819578801E+02  0.00000000000E+00 0.  1.
         14    1    4    4    0    0 -0.42229811408E+02  0.82688566050E+01 -0.10521282775E+02  0.44299304197E+02  0.00000000000E+00 0. -1.
         -5    1    5    5    0  502 -0.26079643059E+02 -0.13177794636E+02 -0.17694046680E+03  0.17939849733E+03  0.47000000000E+01 0.  1.
         13    1    6    6    0    0  0.17283059556E+02  0.24429648967E+02  0.52114526809E+01  0.30375502224E+02  0.00000000000E+00 0. -1.
        -14    1    6    6    0    0 -0.48064129871E+02 -0.23397193967E+02 -0.22852298407E+02  0.58136191896E+02  0.00000000000E+00 0.  1.
<mgrwt>
<rscale>  2 0.18600945E+03</rscale>
<asrwt>0</asrwt>
<pdfrwt beam="1">  1       21 0.94623083E-02 0.18663090E+03</pdfrwt>
<pdfrwt beam="2">  1       21 0.89506503E-01 0.18663090E+03</pdfrwt>
<totfact> 0.95412191E+04</totfact>
</mgrwt>
</event>
<event>
12    1  0.1013215E-001  0.2110284E+03  0.7546771E-02  0.1140759E+00
         21   -1    0    0  503  502  0.00000000000E+00  0.00000000000E+00  0.60816389244E+03  0.60816389244E+03  0.00000000000E+00 0. -1.
         21   -1    0    0  501  503 -0.00000000000E+00 -0.00000000000E+00 -0.12080618975E+03  0.12080618975E+03  0.00000000000E+00 0.  1.
          6    2    1    2  501    0 -0.94776119714E+02 -0.74645017859E+02  0.14922213901E+02  0.21155533160E+03  0.17314327680E+03 0.  0.
         24    2    3    3    0    0 -0.25263380253E+02  0.15817926046E+02  0.45898289857E+02  0.93245685128E+02  0.75496090077E+02 0.  0.
         -6    2    1    2    0  502  0.94776119714E+02  0.74645017859E+02  0.47243548879E+03  0.51741475059E+03  0.17311366639E+03 0.  0.
        -24    2    5    5    0    0  0.21565388617E+02 -0.19986501931E+02  0.13371410085E+03  0.15815272318E+03  0.79172576293E+02 0.  0.
          5    1    3    3  501    0 -0.69512739461E+02 -0.90462943905E+02 -0.30976075956E+02  0.11830964647E+03  0.47000000000E+01 0. -1.
        -11    1    4    4    0    0  0.25951907375E+02  0.12343087118E+02  0.93113461836E+01  0.30208516411E+02  0.00000000000E+00 0.  1.
         12    1    4    4    0    0 -0.51215287628E+02  0.34748389277E+01  0.36586943674E+02  0.63037168716E+02  0.00000000000E+00 0. -1.
         -5    1    5    5    0  502  0.73210731098E+02  0.94631519790E+02  0.33872138794E+03  0.35926202740E+03  0.47000000000E+01 0.  1.
         11    1    6    6    0    0 -0.78892660401E+01 -0.12279619375E+01  0.12057943689E+03  0.12084348972E+03  0.00000000000E+00 0. -1.
        -12    1    6    6    0    0  0.29454654657E+02 -0.18758539993E+02  0.13134663969E+02  0.37309233458E+02  0.00000000000E+00 0.  1.
<mgrwt>
<rscale>  2 0.21102233E+03</rscale>
<asrwt>0</asrwt>
<pdfrwt beam="1">  1       21 0.93563674E-01 0.21102840E+03</pdfrwt>
<pdfrwt beam="2">  1       21 0.18585568E-01 0.21102840E+03</pdfrwt>
<totfact> 0.25129350E+04</totfact>
</mgrwt>
</event>
<event>
12    1  0.1013215E-001  0.2230302E+03  0.7546771E-02  0.1132095E+00
         21   -1    0    0  501  502  0.00000000000E+00  0.00000000000E+00  0.64526351184E+03  0.64526351184E+03  0.00000000000E+00 0.  1.
         21   -1    0    0  502  503 -0.00000000000E+00 -0.00000000000E+00 -0.83050907133E+02  0.83050907133E+02  0.00000000000E+00 0.  1.
         -6    2    1    2    0  503  0.15382409726E+01 -0.14036098349E+03  0.38392552088E+03  0.44278203580E+03  0.17015743819E+03 0.  0.
        -24    2    3    3    0    0  0.42880938043E+02 -0.13338338584E+03  0.36080138544E+03  0.39467048719E+03  0.77183231704E+02 0.  0.
          6    2    1    2  501    0 -0.15382409726E+01  0.14036098349E+03  0.17828708383E+03  0.28553238317E+03  0.17331729778E+03 0.  0.
         24    2    5    5    0    0  0.55040654067E+02  0.13790512303E+03  0.12558306147E+03  0.20802750212E+03  0.73871779138E+02 0.  0.
          5    1    5    5  501    0 -0.56578895039E+02  0.24558604680E+01  0.52704022358E+02  0.77504881054E+02  0.47000000000E+01 0. -1.
        -11    1    6    6    0    0  0.33037732183E+02  0.79030006434E+02  0.11638087003E+03  0.14450515761E+03  0.00000000000E+00 0.  1.
         12    1    6    6    0    0  0.22002921884E+02  0.58875116593E+02  0.92021914335E+01  0.63522344513E+02  0.00000000000E+00 0. -1.
         -5    1    3    3    0  503 -0.41342697070E+02 -0.69775976537E+01  0.23124135442E+02  0.48111548613E+02  0.47000000000E+01 0.  1.
         11    1    4    4    0    0  0.89890340684E+01 -0.36699630394E+02  0.20328540764E+03  0.20676707321E+03  0.00000000000E+00 0. -1.
        -12    1    4    4    0    0  0.33891903974E+02 -0.96683755446E+02  0.15751597780E+03  0.18790341398E+03  0.00000000000E+00 0.  1.
<mgrwt>
<rscale>  2 0.22241600E+03</rscale>
<asrwt>0</asrwt>
<pdfrwt beam="1">  1       21 0.99271306E-01 0.22303017E+03</pdfrwt>
<pdfrwt beam="2">  1       21 0.12777063E-01 0.22303017E+03</pdfrwt>
<totfact> 0.43125833E+04</totfact>
</mgrwt>
</event>
<event>
12    1  0.1013215E-001  0.2138945E+03  0.7546771E-02  0.1138918E+00
         21   -1    0    0  503  502  0.00000000000E+00  0.00000000000E+00  0.88373336000E+02  0.88373336000E+02  0.00000000000E+00 0.  1.
         21   -1    0    0  501  503 -0.00000000000E+00 -0.00000000000E+00 -0.59400240076E+03  0.59400240076E+03  0.00000000000E+00 0.  1.
          6    2    1    2  501    0 -0.50753176768E+02 -0.11113013944E+03 -0.38007083456E+03  0.43612464078E+03  0.17557069851E+03 0.  0.
         24    2    3    3    0    0  0.22267743977E+02 -0.10216197267E+03 -0.21578939816E+03  0.25606086534E+03  0.89828621943E+02 0.  0.
         -6    2    1    2    0  502  0.50753176768E+02  0.11113013944E+03 -0.12555823020E+03  0.24625109597E+03  0.17305762119E+03 0.  0.
        -24    2    5    5    0    0  0.22832108842E+01  0.28645456076E+02 -0.12578122565E+03  0.15046383007E+03  0.77412351907E+02 0.  0.
          5    1    3    3  501    0 -0.73020920746E+02 -0.89681667711E+01 -0.16428143640E+03  0.18006377544E+03  0.47000000000E+01 0. -1.
        -11    1    4    4    0    0 -0.24208164331E+02 -0.84704866539E+02 -0.14277612250E+03  0.16776760949E+03  0.00000000000E+00 0.  1.
         12    1    4    4    0    0  0.46475908308E+02 -0.17457106129E+02 -0.73013275657E+02  0.88293255856E+02  0.00000000000E+00 0. -1.
         -5    1    5    5    0  502  0.48469965884E+02  0.82484683362E+02  0.22299544927E+00  0.95787265903E+02  0.47000000000E+01 0.  1.
         11    1    6    6    0    0 -0.35170570561E+01 -0.16923833810E+02 -0.79558200696E+00  0.17303721908E+02  0.00000000000E+00 0. -1.
        -12    1    6    6    0    0  0.58002679403E+01  0.45569289886E+02 -0.12498564364E+03  0.13316010816E+03  0.00000000000E+00 0.  1.
<mgrwt>
<rscale>  2 0.21337816E+03</rscale>
<asrwt>0</asrwt>
<pdfrwt beam="1">  1       21 0.13595898E-01 0.21389451E+03</pdfrwt>
<pdfrwt beam="2">  1       21 0.91384985E-01 0.21389451E+03</pdfrwt>
<totfact> 0.47034293E+04</totfact>
</mgrwt>
</event>
<event>
12    1  0.1013215E-001  0.1746881E+03  0.7546771E-02  0.1173361E+00
         21   -1    0    0  503  502  0.00000000000E+00  0.00000000000E+00  0.11011908059E+04  0.11011908059E+04  0.00000000000E+00 0. -1.
         21   -1    0    0  501  503 -0.00000000000E+00 -0.00000000000E+00 -0.41085514833E+02  0.41085514833E+02  0.00000000000E+00 0. -1.
          6    2    1    2  501    0  0.22280718393E+02  0.20020689465E+01  0.20051697493E+03  0.26511727505E+03  0.17198742280E+03 0.  0.
         24    2    3    3    0    0  0.41536239567E+02 -0.11967581186E+02  0.21729524723E+03  0.23562953791E+03  0.80222019860E+02 0.  0.
         -6    2    1    2    0  502 -0.22280718393E+02 -0.20020689465E+01  0.85958831611E+03  0.87715904566E+03  0.17324976045E+03 0.  0.
        -24    2    5    5    0    0 -0.31952043789E+02 -0.37898308621E+02  0.24714838042E+03  0.26357381166E+03  0.77016993893E+02 0.  0.
          5    1    3    3  501    0 -0.19255521174E+02  0.13969650133E+02 -0.16778272295E+02  0.29487737142E+02  0.47000000000E+01 0. -1.
        -11    1    4    4    0    0 -0.10458221208E+02 -0.33228225306E+02  0.89069715469E+02  0.95639445636E+02  0.00000000000E+00 0.  1.
         12    1    4    4    0    0  0.51994460775E+02  0.21260644120E+02  0.12822553176E+03  0.13999009227E+03  0.00000000000E+00 0. -1.
         -5    1    5    5    0  502  0.96713253961E+01  0.35896239674E+02  0.61243993569E+03  0.61358523401E+03  0.47000000000E+01 0.  1.
         13    1    6    6    0    0 -0.29128322644E+02 -0.22185087833E+02  0.24469767689E+03  0.24742188742E+03  0.00000000000E+00 0. -1.
        -14    1    6    6    0    0 -0.28237211451E+01 -0.15713220787E+02  0.24507035325E+01  0.16151924233E+02  0.00000000000E+00 0.  1.
<mgrwt>
<rscale>  2 0.17437425E+03</rscale>
<asrwt>0</asrwt>
<pdfrwt beam="1">  1       21 0.16941395E+00 0.17468806E+03</pdfrwt>
<pdfrwt beam="2">  1       21 0.63208493E-02 0.17468806E+03</pdfrwt>
<totfact> 0.39290702E+04</totfact>
</mgrwt>
</event>
<event>
12    1  0.1013215E-001  0.2464628E+03  0.7546771E-02  0.1115799E+00
         21   -1    0    0  501  502  0.00000000000E+00  0.00000000000E+00  0.30004674972E+03  0.30004674972E+03  0.00000000000E+00 0. -1.
         21   -1    0    0  502  503 -0.00000000000E+00 -0.00000000000E+00 -0.51527527915E+03  0.51527527915E+03  0.00000000000E+00 0. -1.
         -6    2    1    2    0  503  0.15916386147E+03 -0.76587714764E+02 -0.42599073495E+03  0.49215039913E+03  0.17188687050E+03 0.  0.
        -24    2    3    3    0    0  0.12564252870E+03 -0.82354675988E+02 -0.19602888843E+03  0.25963915544E+03  0.80105107571E+02 0.  0.
          6    2    1    2  501    0 -0.15916386147E+03  0.76587714764E+02  0.21076220551E+03  0.32317162974E+03  0.16976566834E+03 0.  0.
         24    2    5    5    0    0 -0.10323668414E+03 -0.95116915644E+01  0.13489102085E+03  0.19542389553E+03  0.96159379205E+02 0.  0.
          5    1    5    5  501    0 -0.55927177325E+02  0.86099406329E+02  0.75871184661E+02  0.12774773421E+03  0.47000000000E+01 0. -1.
        -11    1    6    6    0    0 -0.23045179538E+02 -0.12849350752E+02 -0.11257828739E+02  0.28686666286E+02  0.00000000000E+00 0.  1.
         12    1    6    6    0    0 -0.80191504605E+02  0.33376591876E+01  0.14614884959E+03  0.16673722925E+03  0.00000000000E+00 0. -1.
         -5    1    3    3    0  503  0.33521332770E+02  0.57669612240E+01 -0.22996184651E+03  0.23251124369E+03  0.47000000000E+01 0.  1.
         13    1    4    4    0    0  0.40811650730E+02 -0.57292370076E+02 -0.41743981780E+02  0.81795883265E+02  0.00000000000E+00 0. -1.
        -14    1    4    4    0    0  0.84830877969E+02 -0.25062305912E+02 -0.15428490666E+03  0.17784327217E+03  0.00000000000E+00 0.  1.
<mgrwt>
<rscale>  2 0.24609330E+03</rscale>
<asrwt>0</asrwt>
<pdfrwt beam="1">  1       21 0.46161038E-01 0.24646279E+03</pdfrwt>
<pdfrwt beam="2">  1       21 0.79273120E-01 0.24646279E+03</pdfrwt>
<totfact> 0.60839808E+03</totfact>
</mgrwt>
</event>
<event>
12    1  0.1013215E-001  0.2563812E+03  0.7546771E-02  0.1109602E+00
         21   -1    0    0  501  502  0.00000000000E+00  0.00000000000E+00  0.11066501431E+04  0.11066501431E+04  0.00000000000E+00 0.  1.
         21   -1    0    0  502  503 -0.00000000000E+00 -0.00000000000E+00 -0.11404338964E+03  0.11404338964E+03  0.00000000000E+00 0. -1.
         -6    2    1    2    0  503  0.20776011830E+02  0.18718975042E+03  0.71404495016E+02  0.26447968283E+03  0.17140377881E+03 0.  0.
        -24    2    3    3    0    0  0.91665409768E+01  0.15190771580E+03  0.11522776080E+03  0.20684141078E+03  0.79661488572E+02 0.  0.
          6    2    1    2  501    0 -0.20776011830E+02 -0.18718975042E+03  0.92120225842E+03  0.95621384988E+03  0.17395309842E+03 0.  0.
         24    2    5    5    0    0  0.32560517811E+02 -0.47091277836E+02  0.48877798756E+03  0.49851830976E+03  0.79616633146E+02 0.  0.
          5    1    5    5  501    0 -0.53336529641E+02 -0.14009847259E+03  0.43242427086E+03  0.45769554012E+03  0.47000000000E+01 0. -1.
        -11    1    6    6    0    0  0.32170567310E+02 -0.67986735548E+02  0.33586313694E+03  0.34418191174E+03  0.00000000000E+00 0.  1.
         12    1    6    6    0    0  0.38995050091E+00  0.20895457712E+02  0.15291485062E+03  0.15433639803E+03  0.00000000000E+00 0. -1.
         -5    1    3    3    0  503  0.11609470853E+02  0.35282034626E+02 -0.43823265786E+02  0.57638272050E+02  0.47000000000E+01 0.  1.
         11    1    4    4    0    0 -0.20124556285E+02  0.45990139852E+02  0.38062553391E+01  0.50344595629E+02  0.00000000000E+00 0. -1.
        -12    1    4    4    0    0  0.29291097261E+02  0.10591757595E+03  0.11142150546E+03  0.15649681515E+03  0.00000000000E+00 0.  1.
<mgrwt>
<rscale>  2 0.25594942E+03</rscale>
<asrwt>0</asrwt>
<pdfrwt beam="1">  1       21 0.17025386E+00 0.25638121E+03</pdfrwt>
<pdfrwt beam="2">  1       21 0.17545138E-01 0.25638121E+03</pdfrwt>
<totfact> 0.59617110E+03</totfact>
</mgrwt>
</event>
<event>
12    1  0.1013215E-001  0.2067131E+03  0.7546771E-02  0.1144574E+00
         21   -1    0    0  503  502  0.00000000000E+00  0.00000000000E+00  0.74934074690E+03  0.74934074690E+03  0.00000000000E+00 0. -1.
         21   -1    0    0  501  503 -0.00000000000E+00 -0.00000000000E+00 -0.61981237446E+02  0.61981237446E+02  0.00000000000E+00 0. -1.
          6    2    1    2  501    0  0.96426802647E+02 -0.54809512035E+02  0.22174539659E+03  0.30188423947E+03  0.17222329184E+03 0.  0.
         24    2    3    3    0    0  0.37977930743E+02  0.20321997011E+02  0.17015417819E+03  0.19351100433E+03  0.81478571760E+02 0.  0.
         -6    2    1    2    0  502 -0.96426802647E+02  0.54809512035E+02  0.46561411286E+03  0.50943774487E+03  0.17443652980E+03 0.  0.
        -24    2    5    5    0    0 -0.80895736730E+02  0.21885325906E+02  0.45727949709E+03  0.47179771484E+03  0.80408069001E+02 0.  0.
          5    1    3    3  501    0  0.58448871904E+02 -0.75131509046E+02  0.51591218400E+02  0.10837323514E+03  0.47000000000E+01 0. -1.
        -13    1    4    4    0    0 -0.22582228736E+02 -0.57818942849E+01  0.68331141591E+02  0.72197868856E+02  0.00000000000E+00 0.  1.
         14    1    4    4    0    0  0.60560159479E+02  0.26103891296E+02  0.10182303660E+03  0.12131313548E+03  0.00000000000E+00 0. -1.
         -5    1    5    5    0  502 -0.15531065917E+02  0.32924186129E+02  0.83346157727E+01  0.37640030033E+02  0.47000000000E+01 0.  1.
         13    1    6    6    0    0 -0.90632132145E+02  0.47192266379E+01  0.30414101762E+03  0.31739283715E+03  0.00000000000E+00 0. -1.
        -14    1    6    6    0    0  0.97363954157E+01  0.17166099268E+02  0.15313847947E+03  0.15440487769E+03  0.00000000000E+00 0.  1.
<mgrwt>
<rscale>  2 0.20624548E+03</rscale>
<asrwt>0</asrwt>
<pdfrwt beam="1">  1       21 0.11528319E+00 0.20671312E+03</pdfrwt>
<pdfrwt beam="2">  1       21 0.95355755E-02 0.20671312E+03</pdfrwt>
<totfact> 0.51049213E+04</totfact>
</mgrwt>
</event>
<event>
12    1  0.1013215E-001  0.1846655E+03  0.7546771E-02  0.1163394E+00
         21   -1    0    0  501  502  0.00000000000E+00  0.00000000000E+00  0.59844778303E+03  0.59844778303E+03  0.00000000000E+00 0. -1.
         21   -1    0    0  502  503 -0.00000000000E+00 -0.00000000000E+00 -0.56987625563E+02  0.56987625563E+02  0.00000000000E+00 0.  1.
         -6    2    1    2    0  503  0.36131714557E+02 -0.54250721382E+02  0.28007098819E+03  0.33547147191E+03  0.17277936356E+03 0.  0.
        -24    2    3    3    0    0  0.90282100717E+02 -0.24401606747E+02  0.19079397766E+03  0.22677138647E+03  0.79225145547E+02 0.  0.
          6    2    1    2  501    0 -0.36131714557E+02  0.54250721382E+02  0.26138916928E+03  0.31996393669E+03  0.17263829644E+03 0.  0.
         24    2    5    5    0    0  0.20585013025E+01  0.93713581641E+02  0.21106408020E+03  0.24532805713E+03  0.82772802600E+02 0.  0.
          5    1    5    5  501    0 -0.38190215859E+02 -0.39462860259E+02  0.50325089072E+02  0.74635879557E+02  0.47000000000E+01 0. -1.
        -11    1    6    6    0    0 -0.38056635210E+02  0.58225487469E+02  0.14012916304E+03  0.15644391074E+03  0.00000000000E+00 0.  1.
         12    1    6    6    0    0  0.40115136513E+02  0.35488094172E+02  0.70934917164E+02  0.88884146384E+02  0.00000000000E+00 0. -1.
         -5    1    3    3    0  503 -0.54150386160E+02 -0.29849114635E+02  0.89277010534E+02  0.10870008544E+03  0.47000000000E+01 0.  1.
         11    1    4    4    0    0  0.16171355246E+02 -0.16936382870E+02  0.12566251618E+03  0.12782574767E+03  0.00000000000E+00 0. -1.
        -12    1    4    4    0    0  0.74110745471E+02 -0.74652238769E+01  0.65131461478E+02  0.98945638792E+02  0.00000000000E+00 0.  1.
<mgrwt>
<rscale>  2 0.18463250E+03</rscale>
<asrwt>0</asrwt>
<pdfrwt beam="1">  1       21 0.92068886E-01 0.18466551E+03</pdfrwt>
<pdfrwt beam="2">  1       21 0.87673274E-02 0.18466551E+03</pdfrwt>
<totfact> 0.10225095E+05</totfact>
</mgrwt>
</event>
<event>
12    1  0.1013215E-001  0.1908295E+03  0.7546771E-02  0.1157746E+00
         21   -1    0    0  503  502  0.00000000000E+00  0.00000000000E+00  0.13755933926E+03  0.13755933926E+03  0.00000000000E+00 0. -1.
         21   -1    0    0  501  503 -0.00000000000E+00 -0.00000000000E+00 -0.38711951216E+03  0.38711951216E+03  0.00000000000E+00 0. -1.
          6    2    1    2  501    0  0.57954247211E+02 -0.54031335468E+02  0.22811358468E+02  0.19218806757E+03  0.17360246329E+03 0.  0.
         24    2    3    3    0    0  0.10524901220E+03 -0.24247325120E+02 -0.26434405232E+01  0.13059327185E+03  0.73364347818E+02 0.  0.
         -6    2    1    2    0  502 -0.57954247211E+02  0.54031335468E+02 -0.27237153136E+03  0.33249078385E+03  0.17345255911E+03 0.  0.
        -24    2    5    5    0    0  0.22069720677E+02  0.70320513113E+02 -0.17142188827E+03  0.20255967447E+03  0.78822019800E+02 0.  0.
          5    1    3    3  501    0 -0.47294764990E+02 -0.29784010348E+02  0.25454798991E+02  0.61594795718E+02  0.47000000000E+01 0. -1.
        -11    1    4    4    0    0  0.11045609507E+03 -0.73697750553E+01 -0.10626271462E+02  0.11121052184E+03  0.00000000000E+00 0.  1.
         12    1    4    4    0    0 -0.52070828718E+01 -0.16877550065E+02  0.79828309391E+01  0.19382750012E+02  0.00000000000E+00 0. -1.
         -5    1    5    5    0  502 -0.80023967888E+02 -0.16289177645E+02 -0.10094964309E+03  0.12993110938E+03  0.47000000000E+01 0.  1.
         13    1    6    6    0    0  0.37748017790E+02  0.54891481570E+01 -0.40556488757E+02  0.55676497509E+02  0.00000000000E+00 0. -1.
        -14    1    6    6    0    0 -0.15678297113E+02  0.64831364956E+02 -0.13086539952E+03  0.14688317696E+03  0.00000000000E+00 0.  1.
<mgrwt>
<rscale>  2 0.19079539E+03</rscale>
<asrwt>0</asrwt>
<pdfrwt beam="1">  1       21 0.21162976E-01 0.19082949E+03</pdfrwt>
<pdfrwt beam="2">  1       21 0.59556847E-01 0.19082949E+03</pdfrwt>
<totfact> 0.54715508E+04</totfact>
</mgrwt>
</event>
<event>
12    1  0.1013215E-001  0.3743625E+03  0.7546771E-02  0.1053084E+00
         21   -1    0    0  503  502  0.00000000000E+00  0.00000000000E+00  0.14915579754E+04  0.14915579754E+04  0.00000000000E+00 0. -1.
         21   -1    0    0  501  503 -0.00000000000E+00 -0.00000000000E+00 -0.10370035477E+03  0.10370035477E+03  0.00000000000E+00 0.  1.
          6    2    1    2  501    0 -0.27615780525E+03  0.18402275417E+03  0.44750988334E+03  0.58313129950E+03  0.17219032874E+03 0.  0.
         24    2    3    3    0    0 -0.21713555424E+03  0.64138555786E+02  0.28024745895E+03  0.36899429721E+03  0.79727974203E+02 0.  0.
         -6    2    1    2    0  502  0.27615780525E+03 -0.18402275417E+03  0.94034773731E+03  0.10121270307E+04  0.17326208970E+03 0.  0.
        -24    2    5    5    0    0  0.13418748821E+03 -0.11949080226E+03  0.68575416510E+03  0.71353044539E+03  0.81133148168E+02 0.  0.
          5    1    3    3  501    0 -0.59022251013E+02  0.11988419838E+03  0.16726242439E+03  0.21413700229E+03  0.47000000000E+01 0. -1.
        -13    1    4    4    0    0 -0.39314257064E+02 -0.11708094500E+02  0.22445445035E+02  0.46759900429E+02  0.00000000000E+00 0.  1.
         14    1    4    4    0    0 -0.17782129718E+03  0.75846650286E+02  0.25780201391E+03  0.32223439678E+03  0.00000000000E+00 0. -1.
         -5    1    5    5    0  502  0.14197031704E+03 -0.64531951910E+02  0.25459357220E+03  0.29859658529E+03  0.47000000000E+01 0.  1.
         13    1    6    6    0    0  0.14374843677E+03 -0.11952487178E+03  0.66289866983E+03  0.68875572920E+03  0.00000000000E+00 0. -1.
        -14    1    6    6    0    0 -0.95609485621E+01  0.34069522723E-01  0.22855495278E+02  0.24774716195E+02  0.00000000000E+00 0.  1.
<mgrwt>
<rscale>  2 0.37423870E+03</rscale>
<asrwt>0</asrwt>
<pdfrwt beam="1">  1       21 0.22947044E+00 0.37436247E+03</pdfrwt>
<pdfrwt beam="2">  1       21 0.15953902E-01 0.37436247E+03</pdfrwt>
<totfact> 0.26967244E+03</totfact>
</mgrwt>
</event>
<event>
12    1  0.1013215E-001  0.2018696E+03  0.7546771E-02  0.1149567E+00
         21   -1    0    0  503  502  0.00000000000E+00  0.00000000000E+00  0.91671685647E+02  0.91671685647E+02  0.00000000000E+00 0. -1.
         21   -1    0    0  501  503 -0.00000000000E+00 -0.00000000000E+00 -0.51768570385E+03  0.51768570385E+03  0.00000000000E+00 0. -1.
          6    2    1    2  501    0  0.22441192846E+02 -0.87201392378E+02 -0.90679847906E+02  0.22130111703E+03  0.18067556451E+03 0.  0.
         24    2    3    3    0    0  0.28749937661E+02  0.25751895131E+02 -0.47975209415E+02  0.10028863185E+03  0.79161038027E+02 0.  0.
         -6    2    1    2    0  502 -0.22441192846E+02  0.87201392378E+02 -0.33533417029E+03  0.38805627247E+03  0.17329447442E+03 0.  0.
        -24    2    5    5    0    0  0.42133965091E+02  0.41801134674E+02 -0.25747582723E+03  0.27708264494E+03  0.83416932601E+02 0.  0.
          5    1    3    3  501    0 -0.63087448148E+01 -0.11295328751E+03 -0.42704638491E+02  0.12101248518E+03  0.47000000000E+01 0. -1.
        -11    1    4    4    0    0 -0.24198700232E+02  0.14099510088E+02 -0.34475180206E+02  0.44417466473E+02  0.00000000000E+00 0.  1.
         12    1    4    4    0    0  0.52948637893E+02  0.11652385043E+02 -0.13500029209E+02  0.55871165377E+02  0.00000000000E+00 0. -1.
         -5    1    5    5    0  502 -0.64575157937E+02  0.45400257704E+02 -0.77858343065E+02  0.11097362753E+03  0.47000000000E+01 0.  1.
         11    1    6    6    0    0  0.20783908719E+02  0.65041913035E+02 -0.14516744826E+03  0.16042446617E+03  0.00000000000E+00 0. -1.
        -12    1    6    6    0    0  0.21350056372E+02 -0.23240778362E+02 -0.11230837897E+03  0.11665817876E+03  0.00000000000E+00 0.  1.
<mgrwt>
<rscale>  2 0.20020455E+03</rscale>
<asrwt>0</asrwt>
<pdfrwt beam="1">  1       21 0.14103336E-01 0.20186964E+03</pdfrwt>
<pdfrwt beam="2">  1       21 0.79643956E-01 0.20186964E+03</pdfrwt>
<totfact> 0.60688376E+04</totfact>
</mgrwt>
</event>
<event>
12    1  0.1013215E-001  0.1939020E+03  0.7546771E-02  0.1155308E+00
         21   -1    0    0  501  502  0.00000000000E+00  0.00000000000E+00  0.57576451824E+03  0.57576451824E+03  0.00000000000E+00 0. -1.
         21   -1    0    0  502  503 -0.00000000000E+00 -0.00000000000E+00 -0.66458797498E+02  0.66458797498E+02  0.00000000000E+00 0.  1.
         -6    2    1    2    0  503  0.46420370094E+01  0.87923231844E+02  0.20506855555E+03  0.28222523023E+03  0.17275973170E+03 0.  0.
        -24    2    3    3    0    0 -0.33631706121E+02 -0.10316125585E+02  0.81858494674E+02  0.11999496221E+03  0.80377009779E+02 0.  0.
          6    2    1    2  501    0 -0.46420370094E+01 -0.87923231844E+02  0.30423716519E+03  0.35999808551E+03  0.17113247991E+03 0.  0.
         24    2    5    5    0    0  0.20205698362E+02 -0.97211295807E+01  0.62260345698E+02  0.10444407963E+03  0.80804978286E+02 0.  0.
          5    1    5    5  501    0 -0.24847735371E+02 -0.78202102263E+02  0.24197681949E+03  0.25555400588E+03  0.47000000000E+01 0. -1.
        -11    1    6    6    0    0 -0.49544975055E+01 -0.37701735312E+02  0.53789672365E+02  0.65873338645E+02  0.00000000000E+00 0.  1.
         12    1    6    6    0    0  0.25160195867E+02  0.27980605731E+02  0.84706733329E+01  0.38570740981E+02  0.00000000000E+00 0. -1.
         -5    1    3    3    0  503  0.38273743130E+02  0.98239357429E+02  0.12321006088E+03  0.16223026803E+03  0.47000000000E+01 0.  1.
         11    1    4    4    0    0 -0.15114777250E+02 -0.10137404238E+02 -0.13623578920E+02  0.22733793317E+02  0.00000000000E+00 0. -1.
        -12    1    4    4    0    0 -0.18516928871E+02 -0.17872134761E+00  0.95482073594E+02  0.97261168890E+02  0.00000000000E+00 0.  1.
<mgrwt>
<rscale>  2 0.19353883E+03</rscale>
<asrwt>0</asrwt>
<pdfrwt beam="1">  1       21 0.88579153E-01 0.19390195E+03</pdfrwt>
<pdfrwt beam="2">  1       21 0.10224431E-01 0.19390195E+03</pdfrwt>
<totfact> 0.84997421E+04</totfact>
</mgrwt>
</event>
<event>
12    1  0.1013215E-001  0.2100063E+03  0.7546771E-02  0.1141692E+00
         21   -1    0    0  501  502  0.00000000000E+00  0.00000000000E+00  0.23943032881E+03  0.23943032881E+03  0.00000000000E+00 0. -1.
         21   -1    0    0  502  503 -0.00000000000E+00 -0.00000000000E+00 -0.54939095898E+03  0.54939095898E+03  0.00000000000E+00 0. -1.
         -6    2    1    2    0  503 -0.25068352943E+02  0.11305860495E+03 -0.47688098652E+03  0.52107402129E+03  0.17519129512E+03 0.  0.
        -24    2    3    3    0    0 -0.52293172748E+02  0.88310944540E+02 -0.46374228157E+03  0.48172490342E+03  0.80427483001E+02 0.  0.
          6    2    1    2  501    0  0.25068352943E+02 -0.11305860495E+03  0.16692035634E+03  0.26774726650E+03  0.17440046699E+03 0.  0.
         24    2    5    5    0    0 -0.88250558938E+00 -0.10336255587E+03  0.37842074741E+02  0.13564596746E+03  0.79266696002E+02 0.  0.
          5    1    5    5  501    0  0.25950858532E+02 -0.96960490728E+01  0.12907828160E+03  0.13210129904E+03  0.47000000000E+01 0. -1.
        -11    1    6    6    0    0  0.29241695905E+02 -0.13039083009E+02  0.22669689093E+02  0.39230208624E+02  0.00000000000E+00 0.  1.
         12    1    6    6    0    0 -0.30124201494E+02 -0.90323472865E+02  0.15172385648E+02  0.96415758838E+02  0.00000000000E+00 0. -1.
         -5    1    3    3    0  503  0.27224819805E+02  0.24747660407E+02 -0.13138704951E+02  0.39349117866E+02  0.47000000000E+01 0.  1.
         13    1    4    4    0    0 -0.66029839806E+02  0.87404791765E+02 -0.33979972266E+03  0.35702015193E+03  0.00000000000E+00 0. -1.
        -14    1    4    4    0    0  0.13736667058E+02  0.90615277492E+00 -0.12394255891E+03  0.12470475149E+03  0.00000000000E+00 0.  1.
<mgrwt>
<rscale>  2 0.20984132E+03</rscale>
<asrwt>0</asrwt>
<pdfrwt beam="1">  1       21 0.36835435E-01 0.21000633E+03</pdfrwt>
<pdfrwt beam="2">  1       21 0.84521686E-01 0.21000633E+03</pdfrwt>
<totfact> 0.85225070E+03</totfact>
</mgrwt>
</event>
<event>
12    1  0.1013215E-001  0.2502099E+03  0.7546771E-02  0.1113592E+00
         21   -1    0    0  501  502  0.00000000000E+00  0.00000000000E+00  0.20984242953E+03  0.20984242953E+03  0.00000000000E+00 0.  1.
         21   -1    0    0  502  503 -0.00000000000E+00 -0.00000000000E+00 -0.63292873934E+03  0.63292873934E+03  0.00000000000E+00 0.  1.
         -6    2    1    2    0  503  0.18280884379E+02  0.17938255323E+03 -0.51988036608E+03  0.57695805927E+03  0.17347252229E+03 0.  0.
        -24    2    3    3    0    0  0.13760846098E+01  0.13360622838E+03 -0.20454958197E+03  0.25783921374E+03  0.82389385138E+02 0.  0.
          6    2    1    2  501    0 -0.18280884379E+02 -0.17938255323E+03  0.96794056266E+02  0.26581310959E+03  0.16963262883E+03 0.  0.
         24    2    5    5    0    0 -0.38806317527E+02 -0.76802869816E+02  0.23678501235E+01  0.12480855909E+03  0.90371226699E+02 0.  0.
          5    1    5    5  501    0  0.20525433149E+02 -0.10257968342E+03  0.94426206143E+02  0.14100455050E+03  0.47000000000E+01 0. -1.
        -13    1    6    6    0    0  0.21967900151E+02 -0.39889597720E+02  0.22658019791E+02  0.50864078721E+02  0.00000000000E+00 0.  1.
         14    1    6    6    0    0 -0.60774217679E+02 -0.36913272096E+02 -0.20290169668E+02  0.73944480365E+02  0.00000000000E+00 0. -1.
         -5    1    3    3    0  503  0.16904799769E+02  0.45776324850E+02 -0.31533078411E+03  0.31911884554E+03  0.47000000000E+01 0.  1.
         11    1    4    4    0    0  0.72883450016E+01 -0.61841806120E+01  0.53478866456E+00  0.95734038681E+01  0.00000000000E+00 0. -1.
        -12    1    4    4    0    0 -0.59122603919E+01  0.13979040900E+03 -0.20508437064E+03  0.24826580987E+03  0.00000000000E+00 0.  1.
<mgrwt>
<rscale>  2 0.24954559E+03</rscale>
<asrwt>0</asrwt>
<pdfrwt beam="1">  1       21 0.32283452E-01 0.25020993E+03</pdfrwt>
<pdfrwt beam="2">  1       21 0.97373649E-01 0.25020993E+03</pdfrwt>
<totfact> 0.77674513E+03</totfact>
</mgrwt>
</event>
<event>
12    1  0.1013215E-001  0.1770225E+03  0.7546771E-02  0.1171417E+00
         21   -1    0    0  501  502  0.00000000000E+00  0.00000000000E+00  0.50715588421E+03  0.50715588421E+03  0.00000000000E+00 0. -1.
         21   -1    0    0  502  503 -0.00000000000E+00 -0.00000000000E+00 -0.14641033192E+03  0.14641033192E+03  0.00000000000E+00 0. -1.
         -6    2    1    2    0  503 -0.39218327704E+02  0.21730625235E+01 -0.70086734177E+02  0.18778361220E+03  0.16972841623E+03 0.  0.
        -24    2    3    3    0    0 -0.72284061529E+02 -0.42127563418E+02 -0.62211076316E+02  0.13174787183E+03  0.80545431688E+02 0.  0.
          6    2    1    2  501    0  0.39218327704E+02 -0.21730625235E+01  0.43083228646E+03  0.46578260393E+03  0.17260989437E+03 0.  0.
         24    2    5    5    0    0 -0.36752667936E+02 -0.73928702848E+01  0.31741721264E+03  0.32909351314E+03  0.78380101910E+02 0.  0.
          5    1    5    5  501    0  0.75970995640E+02  0.52198077613E+01  0.11341507382E+03  0.13668909079E+03  0.47000000000E+01 0. -1.
        -11    1    6    6    0    0 -0.43603920932E+02  0.11250635526E+02  0.88328616048E+02  0.99145464512E+02  0.00000000000E+00 0.  1.
         12    1    6    6    0    0  0.68512529963E+01 -0.18643505811E+02  0.22908859660E+03  0.22994804863E+03  0.00000000000E+00 0. -1.
         -5    1    3    3    0  503  0.33065733825E+02  0.44300625941E+02 -0.78756578611E+01  0.56035740371E+02  0.47000000000E+01 0.  1.
         11    1    4    4    0    0 -0.32736983192E+01 -0.45342699819E+02 -0.14232453426E+02  0.47636543305E+02  0.00000000000E+00 0. -1.
        -12    1    4    4    0    0 -0.69010363210E+02  0.32151364014E+01 -0.47978622889E+02  0.84111328529E+02  0.00000000000E+00 0.  1.
<mgrwt>
<rscale>  2 0.17631619E+03</rscale>
<asrwt>0</asrwt>
<pdfrwt beam="1">  1       21 0.78023981E-01 0.17702253E+03</pdfrwt>
<pdfrwt beam="2">  1       21 0.22524667E-01 0.17702253E+03</pdfrwt>
<totfact> 0.27106262E+04</totfact>
</mgrwt>
</event>
<event>
12    1  0.1013215E-001  0.1904107E+03  0.7546771E-02  0.1158280E+00
         21   -1    0    0  501  502  0.00000000000E+00  0.00000000000E+00  0.86312661754E+03  0.86312661754E+03  0.00000000000E+00 0. -1.
         21   -1    0    0  502  503 -0.00000000000E+00 -0.00000000000E+00 -0.67113412656E+02  0.67113412656E+02  0.00000000000E+00 0. -1.
         -6    2    1    2    0  503 -0.28109093593E+02 -0.72238485980E+02  0.11302339797E+03  0.22142837273E+03  0.17391870446E+03 0.  0.
        -24    2    3    3    0    0  0.23156739442E+02 -0.50420229644E+02  0.31281662797E+01  0.98126815987E+02  0.80874300322E+02 0.  0.
          6    2    1    2  501    0  0.28109093593E+02  0.72238485980E+02  0.68298980691E+03  0.70881165747E+03  0.17300395780E+03 0.  0.
         24    2    5    5    0    0  0.85767834336E+02  0.54239708080E+02  0.45141381844E+03  0.46944162002E+03  0.79391005722E+02 0.  0.
          5    1    5    5  501    0 -0.57658740744E+02  0.17998777900E+02  0.23157598847E+03  0.23937003745E+03  0.47000000000E+01 0. -1.
        -11    1    6    6    0    0  0.13857834276E+02 -0.20425568834E+02  0.71577294161E+02  0.75713621446E+02  0.00000000000E+00 0.  1.
         12    1    6    6    0    0  0.71910000060E+02  0.74665276914E+02  0.37983652428E+03  0.39372799857E+03  0.00000000000E+00 0. -1.
         -5    1    3    3    0  503 -0.51265833035E+02 -0.21818256336E+02  0.10989523169E+03  0.12330155674E+03  0.47000000000E+01 0.  1.
         13    1    4    4    0    0 -0.72377649504E+01 -0.28974740027E+02 -0.34216384357E+02  0.45416756374E+02  0.00000000000E+00 0. -1.
        -14    1    4    4    0    0  0.30394504392E+02 -0.21445489617E+02  0.37344550636E+02  0.52710059613E+02  0.00000000000E+00 0.  1.
<mgrwt>
<rscale>  2 0.19020157E+03</rscale>
<asrwt>0</asrwt>
<pdfrwt beam="1">  1       21 0.13278870E+00 0.19041070E+03</pdfrwt>
<pdfrwt beam="2">  1       21 0.10325141E-01 0.19041070E+03</pdfrwt>
<totfact> 0.31455469E+04</totfact>
</mgrwt>
</event>
<event>
12    1  0.1013215E-001  0.2367051E+03  0.7546771E-02  0.1122768E+00
         21   -1    0    0  501  502  0.00000000000E+00  0.00000000000E+00  0.32319865499E+03  0.32319865499E+03  0.00000000000E+00 0.  1.
         21   -1    0    0  502  503 -0.00000000000E+00 -0.00000000000E+00 -0.21349873802E+03  0.21349873802E+03  0.00000000000E+00 0.  1.
         -6    2    1    2    0  503 -0.86633366486E+02  0.13638874042E+03 -0.65689266469E+02  0.24565090492E+03  0.17297993715E+03 0.  0.
        -24    2    3    3    0    0  0.83611937656E+01  0.10103308387E+02 -0.11247908617E+02  0.78444660223E+02  0.76518382547E+02 0.  0.
          6    2    1    2  501    0  0.86633366486E+02 -0.13638874042E+03  0.17538918344E+03  0.29104648809E+03  0.16685162229E+03 0.  0.
         24    2    5    5    0    0  0.11862200527E+03 -0.97577013918E+02  0.16875803060E+03  0.24009861951E+03  0.74670077149E+02 0.  0.
          5    1    5    5  501    0 -0.31988638781E+02 -0.38811726502E+02  0.66311528487E+01  0.50947868584E+02  0.47000000000E+01 0. -1.
        -11    1    6    6    0    0  0.91146597758E+02 -0.68487256248E+02  0.70602493700E+02  0.13410040517E+03  0.00000000000E+00 0.  1.
         12    1    6    6    0    0  0.27475407509E+02 -0.29089757670E+02  0.98155536896E+02  0.10599821434E+03  0.00000000000E+00 0. -1.
         -5    1    3    3    0  503 -0.94994560251E+02  0.12628543203E+03 -0.54441357852E+02  0.16720624470E+03  0.47000000000E+01 0.  1.
         13    1    4    4    0    0 -0.32477466650E+02 -0.52331012533E+01 -0.11416037761E+02  0.34820929151E+02  0.00000000000E+00 0. -1.
        -14    1    4    4    0    0  0.40838660416E+02  0.15336409640E+02  0.16812914380E+00  0.43623731072E+02  0.00000000000E+00 0.  1.
<mgrwt>
<rscale>  2 0.23558697E+03</rscale>
<asrwt>0</asrwt>
<pdfrwt beam="1">  1       21 0.49722870E-01 0.23670506E+03</pdfrwt>
<pdfrwt beam="2">  1       21 0.32845960E-01 0.23670506E+03</pdfrwt>
<totfact> 0.33641670E+04</totfact>
</mgrwt>
</event>
<event>
12    1  0.1013215E-001  0.2458318E+03  0.7546771E-02  0.1116208E+00
         21   -1    0    0  503  502  0.00000000000E+00  0.00000000000E+00  0.16505704375E+03  0.16505704375E+03  0.00000000000E+00 0.  1.
         21   -1    0    0  501  503 -0.00000000000E+00 -0.00000000000E+00 -0.44110213929E+03  0.44110213929E+03  0.00000000000E+00 0.  1.
          6    2    1    2  501    0  0.18003062518E+02  0.17283764750E+03 -0.26444770561E+03  0.36005393746E+03  0.17178267148E+03 0.  0.
         24    2    3    3    0    0 -0.33339181185E+02  0.36325484170E+02 -0.13814662695E+03  0.16706261849E+03  0.79964905784E+02 0.  0.
         -6    2    1    2    0  502 -0.18003062518E+02 -0.17283764750E+03 -0.11597389937E+02  0.24610524558E+03  0.17388596779E+03 0.  0.
        -24    2    5    5    0    0 -0.66485124249E+01 -0.18838066247E+03  0.22686503329E+02  0.20650743681E+03  0.81235259064E+02 0.  0.
          5    1    3    3  501    0  0.51342243703E+02  0.13651216333E+03 -0.12630107866E+03  0.19299131897E+03  0.47000000000E+01 0. -1.
        -13    1    4    4    0    0  0.85875983831E+00  0.48705738216E+02 -0.11239959485E+03  0.12250165438E+03  0.00000000000E+00 0.  1.
         14    1    4    4    0    0 -0.34197941023E+02 -0.12380254046E+02 -0.25747032100E+02  0.44560964110E+02  0.00000000000E+00 0. -1.
         -5    1    5    5    0  502 -0.11354550093E+02  0.15543014964E+02 -0.34283893265E+02  0.39597808770E+02  0.47000000000E+01 0.  1.
         13    1    6    6    0    0 -0.20435850268E+02 -0.59778901131E+02 -0.25989444265E+02  0.68312460136E+02  0.00000000000E+00 0. -1.
        -14    1    6    6    0    0  0.13787337843E+02 -0.12860176134E+03  0.48675947594E+02  0.13819497667E+03  0.00000000000E+00 0.  1.
<mgrwt>
<rscale>  2 0.24546019E+03</rscale>
<asrwt>0</asrwt>
<pdfrwt beam="1">  1       21 0.25393392E-01 0.24583184E+03</pdfrwt>
<pdfrwt beam="2">  1       21 0.67861867E-01 0.24583184E+03</pdfrwt>
<totfact> 0.28375519E+04</totfact>
</mgrwt>
</event>
<event>
12    1  0.1013215E-001  0.1778376E+03  0.7546771E-02  0.1174392E+00
         21   -1    0    0  503  502  0.00000000000E+00  0.00000000000E+00  0.18631766236E+03  0.18631766236E+03  0.00000000000E+00 0. -1.
         21   -1    0    0  501  503 -0.00000000000E+00 -0.00000000000E+00 -0.15396997037E+03  0.15396997037E+03  0.00000000000E+00 0. -1.
          6    2    1    2  501    0  0.26879260660E+02  0.33965518637E+02  0.95115286512E+01  0.17809179412E+03  0.17248207688E+03 0.  0.
         24    2    3    3    0    0  0.49334457673E+02 -0.36788134066E+02  0.18988723819E+02  0.10311031326E+03  0.80522726895E+02 0.  0.
         -6    2    1    2    0  502 -0.26879260660E+02 -0.33965518637E+02  0.22836163339E+02  0.16219583860E+03  0.15462809769E+03 0.  0.
        -24    2    5    5    0    0  0.14376017436E+02 -0.66524562543E+02  0.38300109740E+01  0.10611185570E+03  0.81319552610E+02 0.  0.
          5    1    3    3  501    0 -0.22455197014E+02  0.70753652703E+02 -0.94771951675E+01  0.74981480860E+02  0.47000000000E+01 0. -1.
        -11    1    4    4    0    0  0.70508643462E+02 -0.37263420302E+02  0.18773505748E+02  0.81929700436E+02  0.00000000000E+00 0.  1.
         12    1    4    4    0    0 -0.21174185789E+02  0.47528623599E+00  0.21521807086E+00  0.21180612825E+02  0.00000000000E+00 0. -1.
         -5    1    5    5    0  502 -0.41255278095E+02  0.32559043905E+02  0.19006152365E+02  0.56083982905E+02  0.47000000000E+01 0.  1.
         13    1    6    6    0    0 -0.26313364779E+02 -0.37740554403E+02  0.24534847205E+02  0.52141167421E+02  0.00000000000E+00 0. -1.
        -14    1    6    6    0    0  0.40689382215E+02 -0.28784008139E+02 -0.20704836231E+02  0.53970688276E+02  0.00000000000E+00 0.  1.
<mgrwt>
<rscale>  2 0.17335674E+03</rscale>
<asrwt>0</asrwt>
<pdfrwt beam="1">  1       21 0.28664256E-01 0.17783762E+03</pdfrwt>
<pdfrwt beam="2">  1       21 0.23687688E-01 0.17783762E+03</pdfrwt>
<totfact> 0.19624300E+05</totfact>
</mgrwt>
</event>
<event>
12    1  0.1013215E-001  0.2232116E+03  0.7546771E-02  0.1131736E+00
         21   -1    0    0  501  502  0.00000000000E+00  0.00000000000E+00  0.53042340664E+03  0.53042340664E+03  0.00000000000E+00 0.  1.
         21   -1    0    0  502  503 -0.00000000000E+00 -0.00000000000E+00 -0.17820596456E+03  0.17820596456E+03  0.00000000000E+00 0.  1.
         -6    2    1    2    0  503 -0.74026714756E+02 -0.11907319854E+03 -0.68543016324E+02  0.23232823987E+03  0.17210428480E+03 0.  0.
        -24    2    3    3    0    0 -0.25777091703E+01 -0.82583875678E+02 -0.94401642860E+02  0.14790555543E+03  0.78343104643E+02 0.  0.
          6    2    1    2  501    0  0.74026714756E+02  0.11907319854E+03  0.42076045840E+03  0.47630113133E+03  0.17368080849E+03 0.  0.
         24    2    5    5    0    0  0.64250767580E+02  0.13419426401E+03  0.42475550092E+03  0.45726784132E+03  0.80872625217E+02 0.  0.
          5    1    5    5  501    0  0.97759471764E+01 -0.15121065464E+02 -0.39950425193E+01  0.19033290013E+02  0.47000000000E+01 0. -1.
        -13    1    6    6    0    0  0.47383341774E+02  0.57889048520E+02  0.30669288963E+03  0.31568473445E+03  0.00000000000E+00 0.  1.
         14    1    6    6    0    0  0.16867425806E+02  0.76305215487E+02  0.11806261130E+03  0.14158310687E+03  0.00000000000E+00 0. -1.
         -5    1    3    3    0  503 -0.71449005586E+02 -0.36489322866E+02  0.25858626536E+02  0.84422684444E+02  0.47000000000E+01 0.  1.
         11    1    4    4    0    0  0.22840988367E+02 -0.40350550637E+02 -0.86278280202E+02  0.97948043987E+02  0.00000000000E+00 0. -1.
        -12    1    4    4    0    0 -0.25418697537E+02 -0.42233325041E+02 -0.81233626584E+01  0.49957511441E+02  0.00000000000E+00 0.  1.
<mgrwt>
<rscale>  2 0.22290482E+03</rscale>
<asrwt>0</asrwt>
<pdfrwt beam="1">  1       21 0.81603600E-01 0.22321157E+03</pdfrwt>
<pdfrwt beam="2">  1       21 0.27416303E-01 0.22321157E+03</pdfrwt>
<totfact> 0.16377331E+04</totfact>
</mgrwt>
</event>
<event>
12    1  0.1013215E-001  0.1834070E+03  0.7546771E-02  0.1167120E+00
         21   -1    0    0  501  502  0.00000000000E+00  0.00000000000E+00  0.10302246471E+04  0.10302246471E+04  0.00000000000E+00 0. -1.
         21   -1    0    0  502  503 -0.00000000000E+00 -0.00000000000E+00 -0.92177478758E+02  0.92177478758E+02  0.00000000000E+00 0. -1.
         -6    2    1    2    0  503  0.17989086516E+02 -0.56903748515E+02  0.64946382282E+01  0.17296637803E+03  0.16221449927E+03 0.  0.
        -24    2    3    3    0    0  0.10417293558E+02  0.14133530536E+02 -0.13520757790E+02  0.98627067156E+02  0.96105206904E+02 0.  0.
          6    2    1    2  501    0 -0.17989086516E+02  0.56903748515E+02  0.93155253013E+03  0.94943574784E+03  0.17342571627E+03 0.  0.
         24    2    5    5    0    0 -0.64328932031E+02  0.14195592081E+02  0.75655974033E+03  0.76338216849E+03  0.77652869549E+02 0.  0.
          5    1    5    5  501    0  0.46339845515E+02  0.42708156434E+02  0.17499278980E+03  0.18605357935E+03  0.47000000000E+01 0. -1.
        -13    1    6    6    0    0 -0.21293205071E+02 -0.28796783100E+02  0.40665543907E+03  0.40822947153E+03  0.00000000000E+00 0.  1.
         14    1    6    6    0    0 -0.43035726961E+02  0.42992375181E+02  0.34990430126E+03  0.35515269696E+03  0.00000000000E+00 0. -1.
         -5    1    3    3    0  503  0.75717929576E+01 -0.71037279051E+02  0.20015396018E+02  0.74339310875E+02  0.47000000000E+01 0.  1.
         13    1    4    4    0    0  0.46610975157E+02 -0.11995563746E+02 -0.22441573354E+02  0.53104620978E+02  0.00000000000E+00 0. -1.
        -14    1    4    4    0    0 -0.36193681598E+02  0.26129094282E+02  0.89208155644E+01  0.45522446178E+02  0.00000000000E+00 0.  1.
<mgrwt>
<rscale>  2 0.18070732E+03</rscale>
<asrwt>0</asrwt>
<pdfrwt beam="1">  1       21 0.15849609E+00 0.18340699E+03</pdfrwt>
<pdfrwt beam="2">  1       21 0.14181151E-01 0.18340699E+03</pdfrwt>
<totfact> 0.11294511E+04</totfact>
</mgrwt>
</event>
<event>
12    1  0.1013215E-001  0.2021830E+03  0.7546771E-02  0.1148329E+00
         21   -1    0    0  501  502  0.00000000000E+00  0.00000000000E+00  0.12846872705E+03  0.12846872705E+03  0.00000000000E+00 0.  1.
         21   -1    0    0  502  503 -0.00000000000E+00 -0.00000000000E+00 -0.35861096708E+03  0.35861096708E+03  0.00000000000E+00 0.  1.
         -6    2    1    2    0  503 -0.90630586973E+02 -0.46728324170E+02 -0.19944866843E+03  0.28258018018E+03  0.17226243734E+03 0.  0.
        -24    2    3    3    0    0  0.20471471190E+02 -0.22391690809E+02 -0.86435125554E+02  0.12217416432E+03  0.80839511052E+02 0.  0.
          6    2    1    2  501    0  0.90630586973E+02  0.46728324170E+02 -0.30693571597E+02  0.20449951395E+03  0.17458670136E+03 0.  0.
         24    2    5    5    0    0  0.85458658267E+02 -0.10211420587E+02 -0.68987889117E+02  0.13552540189E+03  0.78742303303E+02 0.  0.
          5    1    5    5  501    0  0.51719287061E+01  0.56939744757E+02  0.38294317520E+02  0.68974112055E+02  0.47000000000E+01 0. -1.
        -13    1    6    6    0    0  0.96858613426E+02 -0.17968417498E+01 -0.43135566946E+02  0.10604478663E+03  0.00000000000E+00 0.  1.
         14    1    6    6    0    0 -0.11399955159E+02 -0.84145788371E+01 -0.25852322171E+02  0.29480615263E+02  0.00000000000E+00 0. -1.
         -5    1    3    3    0  503 -0.11110205816E+03 -0.24336633361E+02 -0.11301354288E+03  0.16040601587E+03  0.47000000000E+01 0.  1.
         11    1    4    4    0    0 -0.16751094898E+02  0.20695971492E+02 -0.14135102368E+02  0.30145041636E+02  0.00000000000E+00 0. -1.
        -12    1    4    4    0    0  0.37222566089E+02 -0.43087662301E+02 -0.72300023186E+02  0.92029122681E+02  0.00000000000E+00 0.  1.
<mgrwt>
<rscale>  2 0.20168021E+03</rscale>
<asrwt>0</asrwt>
<pdfrwt beam="1">  1       21 0.19764419E-01 0.20218298E+03</pdfrwt>
<pdfrwt beam="2">  1       21 0.55170919E-01 0.20218298E+03</pdfrwt>
<totfact> 0.72819456E+04</totfact>
</mgrwt>
</event>
<event>
12    1  0.1013215E-001  0.2059387E+03  0.7546771E-02  0.1144879E+00
         21   -1    0    0  501  502  0.00000000000E+00  0.00000000000E+00  0.54397161379E+02  0.54397161379E+02  0.00000000000E+00 0. -1.
         21   -1    0    0  502  503 -0.00000000000E+00 -0.00000000000E+00 -0.10797056080E+04  0.10797056080E+04  0.00000000000E+00 0. -1.
         -6    2    1    2    0  503 -0.19431335134E+02  0.10907961112E+03 -0.81185543405E+03  0.83750042365E+03  0.17326792972E+03 0.  0.
        -24    2    3    3    0    0 -0.18353134144E+02  0.74462682528E+02 -0.25915595795E+03  0.28369694304E+03  0.86259007197E+02 0.  0.
          6    2    1    2  501    0  0.19431335134E+02 -0.10907961112E+03 -0.21345301262E+03  0.29660234578E+03  0.17359384948E+03 0.  0.
         24    2    5    5    0    0  0.49761291785E+02 -0.12893307692E+03 -0.20366531317E+03  0.25876115876E+03  0.79861461349E+02 0.  0.
          5    1    5    5  501    0 -0.30329956651E+02  0.19853465796E+02 -0.97876994489E+01  0.37841187020E+02  0.47000000000E+01 0. -1.
        -11    1    6    6    0    0 -0.18865189339E+02 -0.79058627302E+01 -0.27887984377E+02  0.34585223823E+02  0.00000000000E+00 0.  1.
         12    1    6    6    0    0  0.68626481124E+02 -0.12102721419E+03 -0.17577732879E+03  0.22417593493E+03  0.00000000000E+00 0. -1.
         -5    1    3    3    0  503 -0.10782009904E+01  0.34616928597E+02 -0.55269947609E+03  0.55380348061E+03  0.47000000000E+01 0.  1.
         11    1    4    4    0    0 -0.35319246657E+02  0.52028732222E+02 -0.24353590379E+03  0.25152370583E+03  0.00000000000E+00 0. -1.
        -12    1    4    4    0    0  0.16966112513E+02  0.22433950306E+02 -0.15620054167E+02  0.32173237206E+02  0.00000000000E+00 0.  1.
<mgrwt>
<rscale>  2 0.20587004E+03</rscale>
<asrwt>0</asrwt>
<pdfrwt beam="1">  1       21 0.83687939E-02 0.20593874E+03</pdfrwt>
<pdfrwt beam="2">  1       21 0.16610856E+00 0.20593874E+03</pdfrwt>
<totfact> 0.24999414E+04</totfact>
</mgrwt>
</event>
<event>
12    1  0.1013215E-001  0.1953962E+03  0.7546771E-02  0.1153858E+00
         21   -1    0    0  501  502  0.00000000000E+00  0.00000000000E+00  0.24472241244E+03  0.24472241244E+03  0.00000000000E+00 0.  1.
         21   -1    0    0  502  503 -0.00000000000E+00 -0.00000000000E+00 -0.27282823887E+03  0.27282823887E+03  0.00000000000E+00 0.  1.
         -6    2    1    2    0  503  0.29172215295E+02 -0.86156073313E+02 -0.18386143232E+03  0.26829966679E+03  0.17293292859E+03 0.  0.
        -24    2    3    3    0    0  0.28415380252E+02 -0.10930045711E+03 -0.19804248282E+03  0.24074195474E+03  0.77342355869E+02 0.  0.
          6    2    1    2  501    0 -0.29172215295E+02  0.86156073313E+02  0.15575560590E+03  0.24925098452E+03  0.17202429305E+03 0.  0.
         24    2    5    5    0    0  0.24140990306E+01  0.55995001443E+02  0.13997081173E+02  0.10084291586E+03  0.82656562582E+02 0.  0.
          5    1    5    5  501    0 -0.31586314326E+02  0.30161071870E+02  0.14175852473E+03  0.14840806865E+03  0.47000000000E+01 0. -1.
        -13    1    6    6    0    0  0.93015514819E+01  0.48531420489E+02  0.45850394664E+02  0.67409764319E+02  0.00000000000E+00 0.  1.
         14    1    6    6    0    0 -0.68874524513E+01  0.74635809532E+01 -0.31853313490E+02  0.33433151545E+02  0.00000000000E+00 0. -1.
         -5    1    3    3    0  503  0.75683504347E+00  0.23144383792E+02  0.14181050500E+02  0.27557712055E+02  0.47000000000E+01 0.  1.
         11    1    4    4    0    0  0.13497670706E+02 -0.10592226255E+01  0.11101209776E+01  0.13584602889E+02  0.00000000000E+00 0. -1.
        -12    1    4    4    0    0  0.14917709545E+02 -0.10824123448E+03 -0.19915260380E+03  0.22715735185E+03  0.00000000000E+00 0.  1.
<mgrwt>
<rscale>  2 0.19519499E+03</rscale>
<asrwt>0</asrwt>
<pdfrwt beam="1">  1       21 0.37649602E-01 0.19539623E+03</pdfrwt>
<pdfrwt beam="2">  1       21 0.41973575E-01 0.19539623E+03</pdfrwt>
<totfact> 0.37118461E+04</totfact>
</mgrwt>
</event>
<event>
12    1  0.1013215E-001  0.2126311E+03  0.7546771E-02  0.1142103E+00
         21   -1    0    0  503  502  0.00000000000E+00  0.00000000000E+00  0.23928208421E+03  0.23928208421E+03  0.00000000000E+00 0. -1.
         21   -1    0    0  501  503 -0.00000000000E+00 -0.00000000000E+00 -0.25553192581E+03  0.25553192581E+03  0.00000000000E+00 0. -1.
          6    2    1    2  501    0 -0.10783515742E+03 -0.65022422374E+02 -0.14449979144E+03  0.24649962567E+03  0.15500173915E+03 0.  0.
         24    2    3    3    0    0 -0.14793611812E+01 -0.17877417863E+02 -0.70229762433E+02  0.10839700421E+03  0.80597148903E+02 0.  0.
         -6    2    1    2    0  502  0.10783515742E+03  0.65022422374E+02  0.12824994984E+03  0.24831438434E+03  0.17133489793E+03 0.  0.
        -24    2    5    5    0    0 -0.53909482323E+01  0.20109251695E+02  0.84876787318E+02  0.11892866206E+03  0.80662961192E+02 0.  0.
          5    1    3    3  501    0 -0.10635579624E+03 -0.47145004511E+02 -0.74270029007E+02  0.13810262146E+03  0.47000000000E+01 0. -1.
        -13    1    4    4    0    0  0.81491624958E+01  0.27365034002E+02 -0.50700626409E+02  0.58187691599E+02  0.00000000000E+00 0.  1.
         14    1    4    4    0    0 -0.96285236769E+01 -0.45242451866E+02 -0.19529136023E+02  0.50209312611E+02  0.00000000000E+00 0. -1.
         -5    1    5    5    0  502  0.11322610566E+03  0.44913170679E+02  0.43373162522E+02  0.12938572228E+03  0.47000000000E+01 0.  1.
         13    1    6    6    0    0 -0.25476900982E+02  0.44167909955E+02  0.43509080986E+02  0.67029224087E+02  0.00000000000E+00 0. -1.
        -14    1    6    6    0    0  0.20085952750E+02 -0.24058658260E+02  0.41367706332E+02  0.51899437977E+02  0.00000000000E+00 0.  1.
<mgrwt>
<rscale>  2 0.20932304E+03</rscale>
<asrwt>0</asrwt>
<pdfrwt beam="1">  1       21 0.36812628E-01 0.21263110E+03</pdfrwt>
<pdfrwt beam="2">  1       21 0.39312604E-01 0.21263110E+03</pdfrwt>
<totfact> 0.43956378E+04</totfact>
</mgrwt>
</event>
<event>
12    1  0.1013215E-001  0.1766903E+03  0.7546771E-02  0.1171186E+00
         21   -1    0    0  501  502  0.00000000000E+00  0.00000000000E+00  0.27567254093E+02  0.27567254093E+02  0.00000000000E+00 0.  1.
         21   -1    0    0  502  503 -0.00000000000E+00 -0.00000000000E+00 -0.11304668224E+04  0.11304668224E+04  0.00000000000E+00 0.  1.
         -6    2    1    2    0  503  0.27673793381E+02 -0.23913563501E+02 -0.53052026084E+03  0.55917011732E+03  0.17286345935E+03 0.  0.
        -24    2    3    3    0    0 -0.18741520212E+02 -0.58029730166E+02 -0.19782005827E+03  0.22148711663E+03  0.78772287099E+02 0.  0.
          6    2    1    2  501    0 -0.27673793381E+02  0.23913563501E+02 -0.57237930751E+03  0.59886395922E+03  0.17228543939E+03 0.  0.
         24    2    5    5    0    0  0.64363065733E+00  0.18994663560E+02 -0.12255420991E+03  0.14809707877E+03  0.80944418393E+02 0.  0.
          5    1    5    5  501    0 -0.28317424039E+02  0.49188999415E+01 -0.44982509759E+03  0.45076688044E+03  0.47000000000E+01 0. -1.
        -13    1    6    6    0    0  0.15574272177E+02 -0.28865411282E+02 -0.43366666728E+02  0.54373134041E+02  0.00000000000E+00 0.  1.
         14    1    6    6    0    0 -0.14930641520E+02  0.47860074842E+02 -0.79187543184E+02  0.93723944730E+02  0.00000000000E+00 0. -1.
         -5    1    3    3    0  503  0.46415313593E+02  0.34116166664E+02 -0.33270020257E+03  0.33768300069E+03  0.47000000000E+01 0.  1.
         13    1    4    4    0    0  0.16848458327E+02 -0.16859381513E+01 -0.52751503225E+01  0.17735279709E+02  0.00000000000E+00 0. -1.
        -14    1    4    4    0    0 -0.35589978539E+02 -0.56343792014E+02 -0.19254490795E+03  0.20375183692E+03  0.00000000000E+00 0.  1.
<mgrwt>
<rscale>  2 0.17654880E+03</rscale>
<asrwt>0</asrwt>
<pdfrwt beam="1">  1       21 0.42411167E-02 0.17669033E+03</pdfrwt>
<pdfrwt beam="2">  1       21 0.17391794E+00 0.17669033E+03</pdfrwt>
<totfact> 0.71806901E+04</totfact>
</mgrwt>
</event>
<event>
12    1  0.1013215E-001  0.2196912E+03  0.7546771E-02  0.1134322E+00
         21   -1    0    0  503  502  0.00000000000E+00  0.00000000000E+00  0.15482644028E+03  0.15482644028E+03  0.00000000000E+00 0.  1.
         21   -1    0    0  501  503 -0.00000000000E+00 -0.00000000000E+00 -0.41131536729E+03  0.41131536729E+03  0.00000000000E+00 0. -1.
          6    2    1    2  501    0  0.13326740589E+03  0.13848940841E+02 -0.26838054026E+03  0.34612901863E+03  0.17269970618E+03 0.  0.
         24    2    3    3    0    0  0.82831264949E+02  0.67452724497E+01 -0.56035129865E+02  0.12770985799E+03  0.79141360213E+02 0.  0.
         -6    2    1    2    0  502 -0.13326740589E+03 -0.13848940841E+02  0.11891613256E+02  0.22001278893E+03  0.17410405565E+03 0.  0.
        -24    2    5    5    0    0 -0.16356791466E+03  0.58174319092E+01  0.15062137519E+02  0.18344737805E+03  0.81472494166E+02 0.  0.
          5    1    3    3  501    0  0.50436140937E+02  0.71036683916E+01 -0.21234541040E+03  0.21841916064E+03  0.47000000000E+01 0. -1.
        -13    1    4    4    0    0  0.47362068388E+02  0.42471543552E+02 -0.23754988993E+02  0.67906531613E+02  0.00000000000E+00 0.  1.
         14    1    4    4    0    0  0.35469196560E+02 -0.35726271102E+02 -0.32280140872E+02  0.59803326380E+02  0.00000000000E+00 0. -1.
         -5    1    5    5    0  502  0.30300508775E+02 -0.19666372751E+02 -0.31705242628E+01  0.36565410886E+02  0.47000000000E+01 0.  1.
         13    1    6    6    0    0 -0.73674751159E+02  0.36757305560E+02 -0.15100765635E+02  0.83708432031E+02  0.00000000000E+00 0. -1.
        -14    1    6    6    0    0 -0.89893163501E+02 -0.30939873650E+02  0.30162903154E+02  0.99738946016E+02  0.00000000000E+00 0.  1.
<mgrwt>
<rscale>  2 0.21941284E+03</rscale>
<asrwt>0</asrwt>
<pdfrwt beam="1">  1       21 0.23819453E-01 0.21969119E+03</pdfrwt>
<pdfrwt beam="2">  1       21 0.63279286E-01 0.21969119E+03</pdfrwt>
<totfact> 0.37843327E+04</totfact>
</mgrwt>
</event>
<event>
12    1  0.1013215E-001  0.1833444E+03  0.7546771E-02  0.1164711E+00
         21   -1    0    0  503  502  0.00000000000E+00  0.00000000000E+00  0.63929382753E+03  0.63929382753E+03  0.00000000000E+00 0.  1.
         21   -1    0    0  501  503 -0.00000000000E+00 -0.00000000000E+00 -0.52651926233E+02  0.52651926233E+02  0.00000000000E+00 0.  1.
          6    2    1    2  501    0  0.50468546612E+02  0.31478127163E+02  0.27243125433E+03  0.32838081136E+03  0.17342785892E+03 0.  0.
         24    2    3    3    0    0 -0.31291159490E+02  0.99155116021E+01  0.19653127553E+03  0.21465969321E+03  0.79854790693E+02 0.  0.
         -6    2    1    2    0  502 -0.50468546612E+02 -0.31478127163E+02  0.31421064697E+03  0.36356494240E+03  0.17295430029E+03 0.  0.
        -24    2    5    5    0    0  0.14639651765E+02 -0.48361188073E+02  0.25961654608E+03  0.27680826489E+03  0.81663581816E+02 0.  0.
          5    1    3    3  501    0  0.81759706103E+02  0.21562615561E+02  0.75899978801E+02  0.11372111815E+03  0.47000000000E+01 0. -1.
        -13    1    4    4    0    0  0.21950669488E+02 -0.99502993632E+01  0.97956759170E+02  0.10087798083E+03  0.00000000000E+00 0.  1.
         14    1    4    4    0    0 -0.53241828979E+02  0.19865810965E+02  0.98574516358E+02  0.11378171239E+03  0.00000000000E+00 0. -1.
         -5    1    5    5    0  502 -0.65108198378E+02  0.16883060910E+02  0.54594100892E+02  0.86756677517E+02  0.47000000000E+01 0.  1.
         13    1    6    6    0    0 -0.25096097285E+02 -0.48575834287E+02  0.17466519650E+03  0.18302283093E+03  0.00000000000E+00 0. -1.
        -14    1    6    6    0    0  0.39735749051E+02  0.21464621470E+00  0.84951349583E+02  0.93785433952E+02  0.00000000000E+00 0.  1.
<mgrwt>
<rscale>  2 0.18323233E+03</rscale>
<asrwt>0</asrwt>
<pdfrwt beam="1">  1       21 0.98352891E-01 0.18334440E+03</pdfrwt>
<pdfrwt beam="2">  1       21 0.81002968E-02 0.18334440E+03</pdfrwt>
<totfact> 0.10064375E+05</totfact>
</mgrwt>
</event>
<event>
12    1  0.1013215E-001  0.1769829E+03  0.7546771E-02  0.1171141E+00
         21   -1    0    0  503  502  0.00000000000E+00  0.00000000000E+00  0.15052651338E+03  0.15052651338E+03  0.00000000000E+00 0. -1.
         21   -1    0    0  501  503 -0.00000000000E+00 -0.00000000000E+00 -0.21445962051E+03  0.21445962051E+03  0.00000000000E+00 0. -1.
          6    2    1    2  501    0 -0.60589482013E+01 -0.42754060383E+02 -0.67492108289E+02  0.18796741616E+03  0.17003512674E+03 0.  0.
         24    2    3    3    0    0 -0.11110490170E+01 -0.94302527303E+02 -0.40140995881E+02  0.12921454816E+03  0.78682264973E+02 0.  0.
         -6    2    1    2    0  502  0.60589482013E+01  0.42754060383E+02  0.35590011531E+01  0.17701871772E+03  0.17163431884E+03 0.  0.
        -24    2    5    5    0    0 -0.22109116348E+02 -0.30458555424E+02 -0.24026630070E+02  0.93732560267E+02  0.82413453256E+02 0.  0.
          5    1    3    3  501    0 -0.49478991843E+01  0.51548466921E+02 -0.27351112408E+02  0.58752868000E+02  0.47000000000E+01 0. -1.
        -11    1    4    4    0    0  0.35709223753E+02 -0.52796914210E+02 -0.58903934254E+01  0.64010620571E+02  0.00000000000E+00 0.  1.
         12    1    4    4    0    0 -0.36820272770E+02 -0.41505613093E+02 -0.34250602456E+02  0.65203927594E+02  0.00000000000E+00 0. -1.
         -5    1    5    5    0  502  0.28168064550E+02  0.73212615807E+02  0.27585631223E+02  0.83286157455E+02  0.47000000000E+01 0.  1.
         11    1    6    6    0    0  0.25030480927E+02 -0.58574722287E+01  0.13127991600E+02  0.28864842279E+02  0.00000000000E+00 0. -1.
        -12    1    6    6    0    0 -0.47139597275E+02 -0.24601083195E+02 -0.37154621670E+02  0.64867717989E+02  0.00000000000E+00 0.  1.
<mgrwt>
<rscale>  2 0.17659405E+03</rscale>
<asrwt>0</asrwt>
<pdfrwt beam="1">  1       21 0.23157925E-01 0.17698294E+03</pdfrwt>
<pdfrwt beam="2">  1       21 0.32993788E-01 0.17698294E+03</pdfrwt>
<totfact> 0.15571713E+05</totfact>
</mgrwt>
</event>
<event>
12    1  0.1013215E-001  0.4288262E+03  0.7546771E-02  0.1034233E+00
         21   -1    0    0  503  502  0.00000000000E+00  0.00000000000E+00  0.56623393678E+03  0.56623393678E+03  0.00000000000E+00 0.  1.
         21   -1    0    0  501  503 -0.00000000000E+00 -0.00000000000E+00 -0.33790656766E+03  0.33790656766E+03  0.00000000000E+00 0. -1.
          6    2    1    2  501    0  0.20699455173E+03 -0.33320147260E+03  0.24964652176E+02  0.42955225070E+03  0.17326839421E+03 0.  0.
         24    2    3    3    0    0  0.13747244813E+03 -0.31773996882E+03  0.34679428913E+02  0.35751859276E+03  0.82216297655E+02 0.  0.
         -6    2    1    2    0  502 -0.20699455173E+03  0.33320147260E+03  0.20336271695E+03  0.47458825374E+03  0.17322716345E+03 0.  0.
        -24    2    5    5    0    0 -0.21843683500E+03  0.28345995498E+03  0.21031741177E+03  0.42286203021E+03  0.80713604405E+02 0.  0.
          5    1    3    3  501    0  0.69522103606E+02 -0.15461503780E+02 -0.97147767369E+01  0.72033657938E+02  0.47000000000E+01 0. -1.
        -11    1    4    4    0    0  0.18881681480E+02 -0.68505414988E+02 -0.24631292201E+02  0.75207781071E+02  0.00000000000E+00 0.  1.
         12    1    4    4    0    0  0.11859076665E+03 -0.24923455383E+03  0.59310721114E+02  0.28231081169E+03  0.00000000000E+00 0. -1.
         -5    1    5    5    0  502  0.11442283265E+02  0.49741517615E+02 -0.69546948188E+01  0.51726223533E+02  0.47000000000E+01 0.  1.
         11    1    6    6    0    0 -0.13268337837E+03  0.20153228807E+03  0.10102530199E+03  0.26158412351E+03  0.00000000000E+00 0. -1.
        -12    1    6    6    0    0 -0.85753456629E+02  0.81927666917E+02  0.10929210978E+03  0.16127790670E+03  0.00000000000E+00 0.  1.
<mgrwt>
<rscale>  2 0.42882203E+03</rscale>
<asrwt>0</asrwt>
<pdfrwt beam="1">  1       21 0.87112913E-01 0.42882619E+03</pdfrwt>
<pdfrwt beam="2">  1       21 0.51985626E-01 0.42882619E+03</pdfrwt>
<totfact> 0.34991475E+03</totfact>
</mgrwt>
</event>
<event>
12    1  0.1013215E-001  0.2798183E+03  0.7546771E-02  0.1095885E+00
         21   -1    0    0  501  502  0.00000000000E+00  0.00000000000E+00  0.77530684567E+03  0.77530684567E+03  0.00000000000E+00 0.  1.
         21   -1    0    0  502  503 -0.00000000000E+00 -0.00000000000E+00 -0.22657682790E+03  0.22657682790E+03  0.00000000000E+00 0.  1.
         -6    2    1    2    0  503  0.93329498032E+02 -0.19827328133E+03 -0.99116682301E+02  0.29618996084E+03  0.17286320285E+03 0.  0.
        -24    2    3    3    0    0  0.68404818615E+02 -0.64360359910E+02  0.51212873797E+01  0.12460454628E+03  0.81722642100E+02 0.  0.
          6    2    1    2  501    0 -0.93329498032E+02  0.19827328133E+03  0.64784670008E+03  0.70569371273E+03  0.17399879338E+03 0.  0.
         24    2    5    5    0    0 -0.75621427952E+02  0.11831632448E+03  0.23361980225E+03  0.28342282387E+03  0.77671951730E+02 0.  0.
          5    1    5    5  501    0 -0.17708070080E+02  0.79956956850E+02  0.41422689783E+03  0.42227088886E+03  0.47000000000E+01 0. -1.
        -11    1    6    6    0    0 -0.82014988359E+02  0.12197463460E+03  0.23367260717E+03  0.27605643833E+03  0.00000000000E+00 0.  1.
         12    1    6    6    0    0  0.63935604071E+01 -0.36583101189E+01 -0.52804923411E-01  0.73663855428E+01  0.00000000000E+00 0. -1.
         -5    1    3    3    0  503  0.24924679417E+02 -0.13391292142E+03 -0.10423796968E+03  0.17158541456E+03  0.47000000000E+01 0.  1.
         13    1    4    4    0    0  0.50297137468E+02  0.70208910318E+01  0.41384844907E-02  0.50784790690E+02  0.00000000000E+00 0. -1.
        -14    1    4    4    0    0  0.18107681147E+02 -0.71381250942E+02  0.51171488952E+01  0.73819755590E+02  0.00000000000E+00 0.  1.
<mgrwt>
<rscale>  2 0.27964193E+03</rscale>
<asrwt>0</asrwt>
<pdfrwt beam="1">  1       21 0.11927798E+00 0.27981828E+03</pdfrwt>
<pdfrwt beam="2">  1       21 0.34857974E-01 0.27981828E+03</pdfrwt>
<totfact> 0.39990001E+03</totfact>
</mgrwt>
</event>
<event>
12    1  0.1013215E-001  0.1772768E+03  0.7546771E-02  0.1170640E+00
         21   -1    0    0  501  502  0.00000000000E+00  0.00000000000E+00  0.53788798239E+02  0.53788798239E+02  0.00000000000E+00 0.  1.
         21   -1    0    0  502  503 -0.00000000000E+00 -0.00000000000E+00 -0.58326699917E+03  0.58326699917E+03  0.00000000000E+00 0.  1.
         -6    2    1    2    0  503 -0.35227384547E+02  0.34789871909E+01 -0.24897590225E+03  0.30522960937E+03  0.17298278110E+03 0.  0.
        -24    2    3    3    0    0 -0.72689711327E+02  0.16791580378E+02 -0.86179868353E+02  0.13758328606E+03  0.77048293878E+02 0.  0.
          6    2    1    2  501    0  0.35227384547E+02 -0.34789871909E+01 -0.28050229868E+03  0.33182618805E+03  0.17370667095E+03 0.  0.
         24    2    5    5    0    0 -0.19898738241E+02 -0.29740971110E+01 -0.51345468477E+02  0.96084619463E+02  0.78683492088E+02 0.  0.
          5    1    5    5  501    0  0.55126122789E+02 -0.50489007986E+00 -0.22915683021E+03  0.23574156858E+03  0.47000000000E+01 0. -1.
        -13    1    6    6    0    0 -0.10481171331E+02  0.18864223523E+01  0.20692029084E+02  0.23271734129E+02  0.00000000000E+00 0.  1.
         14    1    6    6    0    0 -0.94175669103E+01 -0.48605194633E+01 -0.72037497560E+02  0.72812885335E+02  0.00000000000E+00 0. -1.
         -5    1    3    3    0  503  0.37462326779E+02 -0.13312593187E+02 -0.16279603390E+03  0.16764632331E+03  0.47000000000E+01 0.  1.
         13    1    4    4    0    0  0.83833740224E+01  0.19510368013E+02 -0.30846182002E+01  0.21458105448E+02  0.00000000000E+00 0. -1.
        -14    1    4    4    0    0 -0.81073085349E+02 -0.27187876351E+01 -0.83095250153E+02  0.11612518061E+03  0.00000000000E+00 0.  1.
<mgrwt>
<rscale>  2 0.17709926E+03</rscale>
<asrwt>0</asrwt>
<pdfrwt beam="1">  1       21 0.82752000E-02 0.17727684E+03</pdfrwt>
<pdfrwt beam="2">  1       21 0.89733382E-01 0.17727684E+03</pdfrwt>
<totfact> 0.12037721E+05</totfact>
</mgrwt>
</event>
<event>
12    1  0.1013215E-001  0.1874863E+03  0.7546771E-02  0.1161415E+00
         21   -1    0    0  503  502  0.00000000000E+00  0.00000000000E+00  0.41114414817E+03  0.41114414817E+03  0.00000000000E+00 0.  1.
         21   -1    0    0  501  503 -0.00000000000E+00 -0.00000000000E+00 -0.94052529039E+02  0.94052529039E+02  0.00000000000E+00 0.  1.
          6    2    1    2  501    0  0.37329476013E+01 -0.68678964768E+02  0.77836987263E+02  0.20300175549E+03  0.17441439460E+03 0.  0.
         24    2    3    3    0    0  0.53338600601E+02  0.51005382063E+01  0.48590705939E+02  0.10929171952E+03  0.81930467159E+02 0.  0.
         -6    2    1    2    0  502 -0.37329476013E+01  0.68678964768E+02  0.23925463186E+03  0.30219492172E+03  0.17131332915E+03 0.  0.
        -24    2    5    5    0    0  0.49486223607E+02 -0.43672313259E+01  0.12291402765E+03  0.15480003329E+03  0.79920166889E+02 0.  0.
          5    1    3    3  501    0 -0.49605653000E+02 -0.73779502974E+02  0.29246281324E+02  0.93710035962E+02  0.47000000000E+01 0. -1.
        -11    1    4    4    0    0 -0.12347959479E+02 -0.55882855220E+01 -0.12878768804E+02  0.18696623339E+02  0.00000000000E+00 0.  1.
         12    1    4    4    0    0  0.65686560080E+02  0.10688823728E+02  0.61469474743E+02  0.90595096186E+02  0.00000000000E+00 0. -1.
         -5    1    5    5    0  502 -0.53219171208E+02  0.73046196094E+02  0.11634060421E+03  0.14739488843E+03  0.47000000000E+01 0.  1.
         13    1    6    6    0    0  0.18821824244E+02  0.32952806851E+02  0.24497899044E+02  0.45169631445E+02  0.00000000000E+00 0. -1.
        -14    1    6    6    0    0  0.30664399363E+02 -0.37320038177E+02  0.98416128609E+02  0.10963040184E+03  0.00000000000E+00 0.  1.
<mgrwt>
<rscale>  2 0.18676178E+03</rscale>
<asrwt>0</asrwt>
<pdfrwt beam="1">  1       21 0.63252945E-01 0.18748631E+03</pdfrwt>
<pdfrwt beam="2">  1       21 0.14469620E-01 0.18748631E+03</pdfrwt>
<totfact> 0.97038731E+04</totfact>
</mgrwt>
</event>
<event>
12    1  0.1013215E-001  0.1766119E+03  0.7546771E-02  0.1171811E+00
         21   -1    0    0  503  502  0.00000000000E+00  0.00000000000E+00  0.19140741062E+03  0.19140741062E+03  0.00000000000E+00 0.  1.
         21   -1    0    0  501  503 -0.00000000000E+00 -0.00000000000E+00 -0.23815908344E+03  0.23815908344E+03  0.00000000000E+00 0.  1.
          6    2    1    2  501    0 -0.66438968407E+01  0.36175167624E+02 -0.14595333933E+03  0.22700111675E+03  0.16992452921E+03 0.  0.
         24    2    3    3    0    0 -0.22168156058E+01  0.87447465797E+02 -0.11966437825E+03  0.16902140407E+03  0.81220059505E+02 0.  0.
         -6    2    1    2    0  502  0.66438968407E+01 -0.36175167624E+02  0.99201666503E+02  0.20256537731E+03  0.17273962293E+03 0.  0.
        -24    2    5    5    0    0  0.53631622972E+02  0.20924463464E+02  0.14082923649E+02  0.89713684092E+02  0.67350072168E+02 0.  0.
          5    1    3    3  501    0 -0.44270812349E+01 -0.51272298173E+02 -0.26288961076E+02  0.57979712682E+02  0.47000000000E+01 0. -1.
        -13    1    4    4    0    0 -0.34501085737E+01  0.94861854871E+02 -0.12697584921E+03  0.15853561443E+03  0.00000000000E+00 0.  1.
         14    1    4    4    0    0  0.12332929679E+01 -0.74143890743E+01  0.73114709587E+01  0.10485789645E+02  0.00000000000E+00 0. -1.
         -5    1    5    5    0  502 -0.46987726132E+02 -0.57099631088E+02  0.85118742854E+02  0.11285169322E+03  0.47000000000E+01 0.  1.
         11    1    6    6    0    0  0.16435178260E+02  0.32336939803E+02 -0.16860969912E+02  0.40001063319E+02  0.00000000000E+00 0. -1.
        -12    1    6    6    0    0  0.37196444712E+02 -0.11412476339E+02  0.30943893561E+02  0.49712620773E+02  0.00000000000E+00 0.  1.
<mgrwt>
<rscale>  2 0.17591974E+03</rscale>
<asrwt>0</asrwt>
<pdfrwt beam="1">  1       21 0.29447294E-01 0.17661189E+03</pdfrwt>
<pdfrwt beam="2">  1       21 0.36639859E-01 0.17661189E+03</pdfrwt>
<totfact> 0.79896908E+04</totfact>
</mgrwt>
</event>
<event>
12    1  0.1013215E-001  0.1733898E+03  0.7546771E-02  0.1174500E+00
         21   -1    0    0  503  502  0.00000000000E+00  0.00000000000E+00  0.25431193483E+03  0.25431193483E+03  0.00000000000E+00 0. -1.
         21   -1    0    0  501  503 -0.00000000000E+00 -0.00000000000E+00 -0.13517008558E+03  0.13517008558E+03  0.00000000000E+00 0. -1.
          6    2    1    2  501    0 -0.14561993243E+01  0.34182804003E+01 -0.10247126135E+02  0.17313613027E+03  0.17279268171E+03 0.  0.
         24    2    3    3    0    0  0.61080500669E+01 -0.57400573682E+02  0.26981595580E+02  0.10127363239E+03  0.78715995728E+02 0.  0.
         -6    2    1    2    0  502  0.14561993243E+01 -0.34182804003E+01  0.12938897538E+03  0.21634589014E+03  0.17335002761E+03 0.  0.
        -24    2    5    5    0    0 -0.20662956490E+02 -0.58809828305E+02  0.41705357937E+02  0.11019511340E+03  0.80734580331E+02 0.  0.
          5    1    3    3  501    0 -0.75642493912E+01  0.60818854082E+02 -0.37228721715E+02  0.71862497878E+02  0.47000000000E+01 0. -1.
        -13    1    4    4    0    0  0.17032847551E+02 -0.10306608318E+02  0.45373406584E+02  0.49548865736E+02  0.00000000000E+00 0.  1.
         14    1    4    4    0    0 -0.10924797484E+02 -0.47093965363E+02 -0.18391811004E+02  0.51724766657E+02  0.00000000000E+00 0. -1.
         -5    1    5    5    0  502  0.22119155814E+02  0.55391547905E+02  0.87683617448E+02  0.10615077674E+03  0.47000000000E+01 0.  1.
         11    1    6    6    0    0 -0.21339621327E+02 -0.20523734401E+01  0.48501541644E+02  0.53028211520E+02  0.00000000000E+00 0. -1.
        -12    1    6    6    0    0  0.67666483740E+00 -0.56757454865E+02 -0.67961837072E+01  0.57166901884E+02  0.00000000000E+00 0.  1.
<mgrwt>
<rscale>  2 0.17325037E+03</rscale>
<asrwt>0</asrwt>
<pdfrwt beam="1">  1       21 0.39124913E-01 0.17338984E+03</pdfrwt>
<pdfrwt beam="2">  1       21 0.20795398E-01 0.17338984E+03</pdfrwt>
<totfact> 0.13603980E+05</totfact>
</mgrwt>
</event>
<event>
12    1  0.1013215E-001  0.2128539E+03  0.7546771E-02  0.1140980E+00
         21   -1    0    0  503  502  0.00000000000E+00  0.00000000000E+00  0.14138278392E+03  0.14138278392E+03  0.00000000000E+00 0. -1.
         21   -1    0    0  501  503 -0.00000000000E+00 -0.00000000000E+00 -0.30869560594E+03  0.30869560594E+03  0.00000000000E+00 0. -1.
          6    2    1    2  501    0 -0.11427071624E+03 -0.48369413655E+02 -0.75021843547E+02  0.22568794175E+03  0.17294326606E+03 0.  0.
         24    2    3    3    0    0 -0.11122013845E+03 -0.82339461137E+02 -0.94991437908E+02  0.18588662456E+03  0.79879646084E+02 0.  0.
         -6    2    1    2    0  502  0.11427071624E+03  0.48369413655E+02 -0.92290978469E+02  0.22439044812E+03  0.16259167178E+03 0.  0.
        -24    2    5    5    0    0  0.58076483889E+02  0.51585719018E+02 -0.11919148290E+03  0.16182956970E+03  0.77124805649E+02 0.  0.
          5    1    3    3  501    0 -0.30505777918E+01  0.33970047482E+02  0.19969594361E+02  0.39801317186E+02  0.47000000000E+01 0. -1.
        -11    1    4    4    0    0 -0.55656409902E+01  0.39627189565E+01 -0.37042194959E+02  0.37667010879E+02  0.00000000000E+00 0.  1.
         12    1    4    4    0    0 -0.10565449746E+03 -0.86302180094E+02 -0.57949242949E+02  0.14821961368E+03  0.00000000000E+00 0. -1.
         -5    1    5    5    0  502  0.56194232349E+02 -0.32163053632E+01  0.26900504430E+02  0.62560878416E+02  0.47000000000E+01 0.  1.
         13    1    6    6    0    0  0.34872687676E+02  0.68266174113E+02 -0.64752207398E+02  0.10034551927E+03  0.00000000000E+00 0. -1.
        -14    1    6    6    0    0  0.23203796213E+02 -0.16680455095E+02 -0.54439275501E+02  0.61484050435E+02  0.00000000000E+00 0.  1.
<mgrwt>
<rscale>  2 0.21074225E+03</rscale>
<asrwt>0</asrwt>
<pdfrwt beam="1">  1       21 0.21751198E-01 0.21285387E+03</pdfrwt>
<pdfrwt beam="2">  1       21 0.47491631E-01 0.21285387E+03</pdfrwt>
<totfact> 0.82916822E+04</totfact>
</mgrwt>
</event>
<event>
12    1  0.1013215E-001  0.2141840E+03  0.7546771E-02  0.1138788E+00
         21   -1    0    0  503  502  0.00000000000E+00  0.00000000000E+00  0.23682714333E+03  0.23682714333E+03  0.00000000000E+00 0. -1.
         21   -1    0    0  501  503 -0.00000000000E+00 -0.00000000000E+00 -0.28163795939E+03  0.28163795939E+03  0.00000000000E+00 0.  1.
          6    2    1    2  501    0 -0.12379454190E+03  0.35811976460E+02 -0.16903594239E+03  0.27086330517E+03  0.16788744445E+03 0.  0.
         24    2    3    3    0    0 -0.10581510805E+02  0.47057217358E+02 -0.10334223559E+03  0.13940457033E+03  0.80172729124E+02 0.  0.
         -6    2    1    2    0  502  0.12379454190E+03 -0.35811976460E+02  0.12422512632E+03  0.24760179756E+03  0.17107653808E+03 0.  0.
        -24    2    5    5    0    0 -0.38998901281E+01 -0.83776841233E+01  0.69824407240E+02  0.10603896132E+03  0.79268018373E+02 0.  0.
          5    1    3    3  501    0 -0.11321303109E+03 -0.11245240898E+02 -0.65693706804E+02  0.13145873484E+03  0.47000000000E+01 0. -1.
        -11    1    4    4    0    0 -0.42241375207E+01  0.39803300938E+02 -0.47113107987E+01  0.40303133288E+02  0.00000000000E+00 0.  1.
         12    1    4    4    0    0 -0.63573732839E+01  0.72539164198E+01 -0.98630924787E+02  0.99101437038E+02  0.00000000000E+00 0. -1.
         -5    1    5    5    0  502  0.12769443203E+03 -0.27434292337E+02  0.54400719084E+02  0.14156283624E+03  0.47000000000E+01 0.  1.
         11    1    6    6    0    0  0.23892099111E+02 -0.30813640979E+01  0.73649691985E+02  0.77489382073E+02  0.00000000000E+00 0. -1.
        -12    1    6    6    0    0 -0.27791989239E+02 -0.52963200254E+01 -0.38252847450E+01  0.28549579245E+02  0.00000000000E+00 0.  1.
<mgrwt>
<rscale>  2 0.21354648E+03</rscale>
<asrwt>0</asrwt>
<pdfrwt beam="1">  1       21 0.36434945E-01 0.21418396E+03</pdfrwt>
<pdfrwt beam="2">  1       21 0.43328917E-01 0.21418396E+03</pdfrwt>
<totfact> 0.36788610E+04</totfact>
</mgrwt>
</event>
<event>
12    1  0.1013215E-001  0.1862683E+03  0.7546771E-02  0.1162896E+00
         21   -1    0    0  501  502  0.00000000000E+00  0.00000000000E+00  0.68379714872E+03  0.68379714872E+03  0.00000000000E+00 0.  1.
         21   -1    0    0  502  503 -0.00000000000E+00 -0.00000000000E+00 -0.25251917301E+03  0.25251917301E+03  0.00000000000E+00 0.  1.
         -6    2    1    2    0  503 -0.13908894211E+02  0.64531154783E+02 -0.20457297273E+03  0.27374382839E+03  0.16949293534E+03 0.  0.
        -24    2    3    3    0    0  0.38454700900E+02  0.69675052282E+02 -0.81757859761E+02  0.14004997008E+03  0.81217421497E+02 0.  0.
          6    2    1    2  501    0  0.13908894211E+02 -0.64531154783E+02  0.63585094844E+03  0.66257249335E+03  0.17417850911E+03 0.  0.
         24    2    5    5    0    0 -0.30283186440E+02 -0.26396470158E+02  0.55726436353E+03  0.56456670019E+03  0.81105752530E+02 0.  0.
          5    1    5    5  501    0  0.44192080651E+02 -0.38134684625E+02  0.78586584915E+02  0.98005793157E+02  0.47000000000E+01 0. -1.
        -13    1    6    6    0    0 -0.84465551741E+01 -0.31086525538E+02  0.73049282703E+02  0.79836796452E+02  0.00000000000E+00 0.  1.
         14    1    6    6    0    0 -0.21836631266E+02  0.46900553803E+01  0.48421508082E+03  0.48472990374E+03  0.00000000000E+00 0. -1.
         -5    1    3    3    0  503 -0.52363595111E+02 -0.51438974991E+01 -0.12281511297E+03  0.13369385831E+03  0.47000000000E+01 0.  1.
         11    1    4    4    0    0  0.11962565839E+02  0.81970531620E+02 -0.49355159467E+02  0.96427189120E+02  0.00000000000E+00 0. -1.
        -12    1    4    4    0    0  0.26492135061E+02 -0.12295479338E+02 -0.32402700294E+02  0.43622780959E+02  0.00000000000E+00 0.  1.
<mgrwt>
<rscale>  2 0.18516507E+03</rscale>
<asrwt>0</asrwt>
<pdfrwt beam="1">  1       21 0.10519956E+00 0.18626830E+03</pdfrwt>
<pdfrwt beam="2">  1       21 0.38849104E-01 0.18626830E+03</pdfrwt>
<totfact> 0.46705243E+03</totfact>
</mgrwt>
</event>
<event>
12    1  0.1013215E-001  0.1862570E+03  0.7546771E-02  0.1162464E+00
         21   -1    0    0  503  502  0.00000000000E+00  0.00000000000E+00  0.21130619556E+03  0.21130619556E+03  0.00000000000E+00 0.  1.
         21   -1    0    0  501  503 -0.00000000000E+00 -0.00000000000E+00 -0.27014468972E+03  0.27014468972E+03  0.00000000000E+00 0. -1.
          6    2    1    2  501    0 -0.43871632509E+02  0.48919455147E+02 -0.18185826943E+03  0.26031535513E+03  0.17428086735E+03 0.  0.
         24    2    3    3    0    0 -0.69221673005E+02 -0.22130114235E+02 -0.98144802520E+02  0.14752927263E+03  0.82771384255E+02 0.  0.
         -6    2    1    2    0  502  0.43871632509E+02 -0.48919455147E+02  0.12301977526E+03  0.22113553015E+03  0.17160776311E+03 0.  0.
        -24    2    5    5    0    0  0.10803188962E+02 -0.51684460786E+02  0.15002094709E+03  0.17809693707E+03  0.80151369602E+02 0.  0.
          5    1    3    3  501    0  0.25350040496E+02  0.71049569383E+02 -0.83713466911E+02  0.11278608250E+03  0.47000000000E+01 0. -1.
        -13    1    4    4    0    0  0.31209426357E+01 -0.36034152979E+02 -0.37629375964E+02  0.52193585806E+02  0.00000000000E+00 0.  1.
         14    1    4    4    0    0 -0.72342615640E+02  0.13904038743E+02 -0.60515426556E+02  0.95335686825E+02  0.00000000000E+00 0. -1.
         -5    1    5    5    0  502  0.33068443547E+02  0.27650056386E+01 -0.27001171825E+02  0.43038593085E+02  0.47000000000E+01 0.  1.
         11    1    6    6    0    0 -0.22840379423E+02  0.10128049565E+02  0.48669699412E+02  0.54708317110E+02  0.00000000000E+00 0. -1.
        -12    1    6    6    0    0  0.33643568384E+02 -0.61812510350E+02  0.10135124768E+03  0.12338861996E+03  0.00000000000E+00 0.  1.
<mgrwt>
<rscale>  2 0.18562909E+03</rscale>
<asrwt>0</asrwt>
<pdfrwt beam="1">  1       21 0.32508646E-01 0.18625696E+03</pdfrwt>
<pdfrwt beam="2">  1       21 0.41560721E-01 0.18625696E+03</pdfrwt>
<totfact> 0.50906666E+04</totfact>
</mgrwt>
</event>
<event>
12    1  0.1013215E-001  0.1888607E+03  0.7546771E-02  0.1159554E+00
         21   -1    0    0  503  502  0.00000000000E+00  0.00000000000E+00  0.52774247452E+03  0.52774247452E+03  0.00000000000E+00 0. -1.
         21   -1    0    0  501  503 -0.00000000000E+00 -0.00000000000E+00 -0.11040958884E+03  0.11040958884E+03  0.00000000000E+00 0. -1.
          6    2    1    2  501    0 -0.62733232166E+02  0.40953094488E+02  0.98213422833E+01  0.18911594101E+03  0.17336598863E+03 0.  0.
         24    2    3    3    0    0  0.50921975892E+01  0.30646384171E+02 -0.48561233837E+02  0.98909885817E+02  0.80373134452E+02 0.  0.
         -6    2    1    2    0  502  0.62733232166E+02 -0.40953094488E+02  0.40751154340E+03  0.44903612236E+03  0.17307561011E+03 0.  0.
        -24    2    5    5    0    0  0.30612794658E+01 -0.72117524339E+01  0.80516097979E+02  0.11489942664E+03  0.81594456937E+02 0.  0.
          5    1    3    3  501    0 -0.67825429755E+02  0.10306710317E+02  0.58382576120E+02  0.90206055193E+02  0.47000000000E+01 0. -1.
        -11    1    4    4    0    0  0.80034744990E+01  0.10650272885E+02  0.21885994487E+02  0.25621878761E+02  0.00000000000E+00 0.  1.
         12    1    4    4    0    0 -0.29112769098E+01  0.19996111286E+02 -0.70447228323E+02  0.73288007056E+02  0.00000000000E+00 0. -1.
         -5    1    5    5    0  502  0.59671952700E+02 -0.33741342054E+02  0.32699544542E+03  0.33413669572E+03  0.47000000000E+01 0.  1.
         13    1    6    6    0    0  0.97370835317E+01 -0.15217169279E+02  0.95196075055E+02  0.96895127548E+02  0.00000000000E+00 0. -1.
        -14    1    6    6    0    0 -0.66758040659E+01  0.80054168450E+01 -0.14679977076E+02  0.18004299091E+02  0.00000000000E+00 0.  1.
<mgrwt>
<rscale>  2 0.18879408E+03</rscale>
<asrwt>0</asrwt>
<pdfrwt beam="1">  1       21 0.81191148E-01 0.18886074E+03</pdfrwt>
<pdfrwt beam="2">  1       21 0.16986091E-01 0.18886074E+03</pdfrwt>
<totfact> 0.41638111E+04</totfact>
</mgrwt>
</event>
<event>
12    1  0.1013215E-001  0.3163873E+03  0.7546771E-02  0.1077584E+00
         21   -1    0    0  501  502  0.00000000000E+00  0.00000000000E+00  0.25488964171E+03  0.25488964171E+03  0.00000000000E+00 0.  1.
         21   -1    0    0  502  503 -0.00000000000E+00 -0.00000000000E+00 -0.65832067387E+03  0.65832067387E+03  0.00000000000E+00 0. -1.
         -6    2    1    2    0  503 -0.21511512632E+03 -0.15234685533E+03 -0.49281581094E+03  0.58443901963E+03  0.17093116232E+03 0.  0.
        -24    2    3    3    0    0 -0.17859503186E+03 -0.17875463104E+03 -0.44751792703E+03  0.52036815101E+03  0.81616873608E+02 0.  0.
          6    2    1    2  501    0  0.21511512632E+03  0.15234685533E+03  0.89384778769E+02  0.32877129595E+03  0.17497669692E+03 0.  0.
         24    2    5    5    0    0  0.85319305715E+02  0.74252190465E+02 -0.21223923504E+02  0.14114905115E+03  0.81730214694E+02 0.  0.
          5    1    5    5  501    0  0.12979582061E+03  0.78094664865E+02  0.11060870227E+03  0.18762224481E+03  0.47000000000E+01 0. -1.
        -11    1    6    6    0    0  0.29879594163E+02  0.19432656934E+02  0.31058054036E+02  0.47276008961E+02  0.00000000000E+00 0.  1.
         12    1    6    6    0    0  0.55439711553E+02  0.54819533532E+02 -0.52281977539E+02  0.93873042185E+02  0.00000000000E+00 0. -1.
         -5    1    3    3    0  503 -0.36520094467E+02  0.26407775714E+02 -0.45297883912E+02  0.64070868614E+02  0.47000000000E+01 0.  1.
         13    1    4    4    0    0 -0.17973867669E+02 -0.62441274188E+02 -0.14157629488E+03  0.15577490143E+03  0.00000000000E+00 0. -1.
        -14    1    4    4    0    0 -0.16062116419E+03 -0.11631335686E+03 -0.30594163214E+03  0.36459324959E+03  0.00000000000E+00 0.  1.
<mgrwt>
<rscale>  2 0.31583102E+03</rscale>
<asrwt>0</asrwt>
<pdfrwt beam="1">  1       21 0.39213791E-01 0.31638730E+03</pdfrwt>
<pdfrwt beam="2">  1       21 0.10128010E+00 0.31638730E+03</pdfrwt>
<totfact> 0.46181364E+03</totfact>
</mgrwt>
</event>
<event>
12    1  0.1013215E-001  0.1796926E+03  0.7546771E-02  0.1168191E+00
         21   -1    0    0  501  502  0.00000000000E+00  0.00000000000E+00  0.10195237908E+04  0.10195237908E+04  0.00000000000E+00 0. -1.
         21   -1    0    0  502  503 -0.00000000000E+00 -0.00000000000E+00 -0.31614421026E+02  0.31614421026E+02  0.00000000000E+00 0.  1.
         -6    2    1    2    0  503  0.42289647528E+02 -0.23362397411E+02  0.48465114240E+03  0.51676169774E+03  0.17268962483E+03 0.  0.
        -24    2    3    3    0    0 -0.74386862590E+01  0.40815339467E+02  0.16403918011E+03  0.18599620763E+03  0.77230244399E+02 0.  0.
          6    2    1    2  501    0 -0.42289647528E+02  0.23362397411E+02  0.50325822736E+03  0.53437651407E+03  0.17307570448E+03 0.  0.
         24    2    5    5    0    0 -0.77110993750E+02  0.26918109814E+02  0.22620411539E+03  0.25508054166E+03  0.85012298648E+02 0.  0.
          5    1    5    5  501    0  0.34821346222E+02 -0.35557124031E+01  0.27705411197E+03  0.27929597241E+03  0.47000000000E+01 0. -1.
        -11    1    6    6    0    0 -0.16241014155E+02 -0.23348178285E+02  0.21412620772E+02  0.35600678341E+02  0.00000000000E+00 0.  1.
         12    1    6    6    0    0 -0.60869979595E+02  0.50266288098E+02  0.20479149462E+03  0.21947986332E+03  0.00000000000E+00 0. -1.
         -5    1    3    3    0  503  0.49728333787E+02 -0.64177736877E+02  0.32061196229E+03  0.33076549012E+03  0.47000000000E+01 0.  1.
         13    1    4    4    0    0  0.16491916049E+02  0.13925528058E+02  0.14233597607E+03  0.14396330682E+03  0.00000000000E+00 0. -1.
        -14    1    4    4    0    0 -0.23930602308E+02  0.26889811409E+02  0.21703204044E+02  0.42032900807E+02  0.00000000000E+00 0.  1.
<mgrwt>
<rscale>  2 0.17959953E+03</rscale>
<asrwt>0</asrwt>
<pdfrwt beam="1">  1       21 0.15684979E+00 0.17969256E+03</pdfrwt>
<pdfrwt beam="2">  1       21 0.48637579E-02 0.17969256E+03</pdfrwt>
<totfact> 0.75353572E+04</totfact>
</mgrwt>
</event>
<event>
12    1  0.1013215E-001  0.2707261E+03  0.7546771E-02  0.1101330E+00
         21   -1    0    0  501  502  0.00000000000E+00  0.00000000000E+00  0.16415087664E+03  0.16415087664E+03  0.00000000000E+00 0.  1.
         21   -1    0    0  502  503 -0.00000000000E+00 -0.00000000000E+00 -0.44839675665E+03  0.44839675665E+03  0.00000000000E+00 0. -1.
         -6    2    1    2    0  503 -0.13080227009E+03  0.15885708968E+03 -0.10238456450E+03  0.28640938768E+03  0.17088864650E+03 0.  0.
        -24    2    3    3    0    0 -0.10577114240E+03  0.13464396058E+03 -0.13896458859E+03  0.23568443192E+03  0.83183314928E+02 0.  0.
          6    2    1    2  501    0  0.13080227009E+03 -0.15885708968E+03 -0.18186131551E+03  0.32613824561E+03  0.17591989190E+03 0.  0.
         24    2    5    5    0    0  0.39258701915E+02 -0.34336122579E+01 -0.67445565173E+02  0.11248025691E+03  0.80931258261E+02 0.  0.
          5    1    5    5  501    0  0.91543568174E+02 -0.15542347742E+03 -0.11441575034E+03  0.21365798870E+03  0.47000000000E+01 0. -1.
        -11    1    6    6    0    0 -0.43196474636E+01 -0.70201595602E+01  0.16154369215E+02  0.18135755820E+02  0.00000000000E+00 0.  1.
         12    1    6    6    0    0  0.43578349379E+02  0.35865473023E+01 -0.83599934388E+02  0.94344501089E+02  0.00000000000E+00 0. -1.
         -5    1    3    3    0  503 -0.25031127688E+02  0.24213129100E+02  0.36580024094E+02  0.50724955760E+02  0.47000000000E+01 0.  1.
         11    1    4    4    0    0 -0.55469107883E+02  0.76856244688E+02 -0.12648995969E+03  0.15806142534E+03  0.00000000000E+00 0. -1.
        -12    1    4    4    0    0 -0.50302034519E+02  0.57787715894E+02 -0.12474628897E+02  0.77623006584E+02  0.00000000000E+00 0.  1.
<mgrwt>
<rscale>  2 0.26991193E+03</rscale>
<asrwt>0</asrwt>
<pdfrwt beam="1">  1       21 0.25253981E-01 0.27072609E+03</pdfrwt>
<pdfrwt beam="2">  1       21 0.68984115E-01 0.27072609E+03</pdfrwt>
<totfact> 0.27355455E+04</totfact>
</mgrwt>
</event>
<event>
11    1  0.1013215E-001  0.1945080E+03  0.7546771E-02  0.1155024E+00
         21   -1    0    0  503  502  0.00000000000E+00  0.00000000000E+00  0.31521294401E+02  0.31521294401E+02  0.00000000000E+00 0. -1.
         21   -1    0    0  501  503 -0.00000000000E+00 -0.00000000000E+00 -0.14638623465E+04  0.14638623465E+04  0.00000000000E+00 0. -1.
          6    2    1    2  501    0 -0.84934700827E+02 -0.59712838693E+01 -0.10467027332E+04  0.10646219933E+04  0.17488229570E+03 0.  0.
         24    2    3    3    0    0  0.15731015489E+01 -0.31404361968E+02 -0.28639549197E+03  0.29897218277E+03  0.79832823149E+02 0.  0.
         -6    2    1    2    0  502  0.84934700827E+02  0.59712838693E+01 -0.38563831894E+03  0.43076164762E+03  0.17201489583E+03 0.  0.
          5    1    3    3  501    0 -0.86507802376E+02  0.25433078098E+02 -0.76030724121E+03  0.76564981053E+03  0.47000000000E+01 0. -1.
        -13    1    4    4    0    0  0.37966316694E+02 -0.30914012276E+02 -0.17910062189E+03  0.18567215763E+03  0.00000000000E+00 0.  1.
         14    1    4    4    0    0 -0.36393215145E+02 -0.49034969177E+00 -0.10729487008E+03  0.11330002514E+03  0.00000000000E+00 0. -1.
         -5    1    5    5    0  502  0.10486979449E+02 -0.42098085597E+02 -0.11471262302E+03  0.12273264207E+03  0.47000000000E+01 0.  1.
         13    1    5    5    0    0  0.81153488713E+02  0.55730828892E+02 -0.11338574528E+03  0.15016038510E+03  0.00000000000E+00 0. -1.
        -14    1    5    5    0    0 -0.67057673345E+01 -0.76614594257E+01 -0.15753995064E+03  0.15786862046E+03  0.00000000000E+00 0.  1.
<mgrwt>
<rscale>  2 0.19386133E+03</rscale>
<asrwt>0</asrwt>
<pdfrwt beam="1">  1       21 0.48494297E-02 0.19450804E+03</pdfrwt>
<pdfrwt beam="2">  1       21 0.22520960E+00 0.19450804E+03</pdfrwt>
<totfact> 0.26447371E+04</totfact>
</mgrwt>
</event>
<event>
12    1  0.1013215E-001  0.2853229E+03  0.7546771E-02  0.1093029E+00
         21   -1    0    0  503  502  0.00000000000E+00  0.00000000000E+00  0.52487301378E+03  0.52487301378E+03  0.00000000000E+00 0. -1.
         21   -1    0    0  501  503 -0.00000000000E+00 -0.00000000000E+00 -0.15467641680E+03  0.15467641680E+03  0.00000000000E+00 0.  1.
          6    2    1    2  501    0  0.14663259966E+03 -0.17106889054E+03  0.20367247897E+03  0.35055905934E+03  0.17505282289E+03 0.  0.
         24    2    3    3    0    0  0.88510067323E+02 -0.12396004729E+03  0.21095735378E+03  0.27524218687E+03  0.89750381476E+02 0.  0.
         -6    2    1    2    0  502 -0.14663259966E+03  0.17106889054E+03  0.16652411801E+03  0.32899037123E+03  0.17244911681E+03 0.  0.
        -24    2    5    5    0    0 -0.62908010135E+02  0.30097591899E+02  0.11581081312E+03  0.15730273852E+03  0.80428380149E+02 0.  0.
          5    1    3    3  501    0  0.58122532340E+02 -0.47108843253E+02 -0.72848748129E+01  0.75316872474E+02  0.47000000000E+01 0. -1.
        -13    1    4    4    0    0 -0.11622983545E+02 -0.41105127487E+02  0.28981647561E+02  0.51620355942E+02  0.00000000000E+00 0.  1.
         14    1    4    4    0    0  0.10013305087E+03 -0.82854919804E+02  0.18197570622E+03  0.22362183093E+03  0.00000000000E+00 0. -1.
         -5    1    5    5    0  502 -0.83724589528E+02  0.14097129865E+03  0.50713304886E+02  0.17168763271E+03  0.47000000000E+01 0.  1.
         11    1    6    6    0    0 -0.41094938582E+02  0.46939089995E+02  0.34159451425E+02  0.71126227711E+02  0.00000000000E+00 0. -1.
        -12    1    6    6    0    0 -0.21813071553E+02 -0.16841498097E+02  0.81651361697E+02  0.86176510812E+02  0.00000000000E+00 0.  1.
<mgrwt>
<rscale>  2 0.28492460E+03</rscale>
<asrwt>0</asrwt>
<pdfrwt beam="1">  1       21 0.80749693E-01 0.28532293E+03</pdfrwt>
<pdfrwt beam="2">  1       21 0.23796372E-01 0.28532293E+03</pdfrwt>
<totfact> 0.21376278E+04</totfact>
</mgrwt>
</event>
<event>
12    1  0.1013215E-001  0.1908545E+03  0.7546771E-02  0.1157710E+00
         21   -1    0    0  503  502  0.00000000000E+00  0.00000000000E+00  0.13128998560E+03  0.13128998560E+03  0.00000000000E+00 0. -1.
         21   -1    0    0  501  503 -0.00000000000E+00 -0.00000000000E+00 -0.30840599944E+03  0.30840599944E+03  0.00000000000E+00 0. -1.
          6    2    1    2  501    0  0.72202527340E+02 -0.35361056344E+02 -0.15835773493E+03  0.24799716443E+03  0.17309480666E+03 0.  0.
         24    2    3    3    0    0  0.50079344516E+02 -0.89827286519E+02 -0.12086718908E+03  0.17811414449E+03  0.80863396674E+02 0.  0.
         -6    2    1    2    0  502 -0.72202527340E+02  0.35361056344E+02 -0.18758278908E+02  0.19169882060E+03  0.17301143180E+03 0.  0.
        -24    2    5    5    0    0 -0.29244993039E+02  0.70368578655E+02 -0.55002257469E+02  0.12531665166E+03  0.82897577629E+02 0.  0.
          5    1    3    3  501    0  0.22123182824E+02  0.54466230175E+02 -0.37490545854E+02  0.69883019942E+02  0.47000000000E+01 0. -1.
        -13    1    4    4    0    0 -0.21455701635E+02 -0.19884498468E+02 -0.39526289315E+02  0.49173854425E+02  0.00000000000E+00 0.  1.
         14    1    4    4    0    0  0.71535046151E+02 -0.69942788052E+02 -0.81340899762E+02  0.12894029007E+03  0.00000000000E+00 0. -1.
         -5    1    5    5    0  502 -0.42957534302E+02 -0.35007522311E+02  0.36243978561E+02  0.66382168943E+02  0.47000000000E+01 0.  1.
         13    1    6    6    0    0 -0.56118514569E+02  0.30231719401E+02 -0.37407495472E+02  0.73909168937E+02  0.00000000000E+00 0. -1.
        -14    1    6    6    0    0  0.26873521531E+02  0.40136859254E+02 -0.17594761996E+02  0.51407482723E+02  0.00000000000E+00 0.  1.
<mgrwt>
<rscale>  2 0.19083554E+03</rscale>
<asrwt>0</asrwt>
<pdfrwt beam="1">  1       21 0.20198459E-01 0.19085445E+03</pdfrwt>
<pdfrwt beam="2">  1       21 0.47447077E-01 0.19085445E+03</pdfrwt>
<totfact> 0.96348284E+04</totfact>
</mgrwt>
</event>
<event>
12    1  0.1013215E-001  0.2220290E+03  0.7546771E-02  0.1132496E+00
         21   -1    0    0  503  502  0.00000000000E+00  0.00000000000E+00  0.38491378334E+03  0.38491378334E+03  0.00000000000E+00 0. -1.
         21   -1    0    0  501  503 -0.00000000000E+00 -0.00000000000E+00 -0.13259266660E+03  0.13259266660E+03  0.00000000000E+00 0.  1.
          6    2    1    2  501    0  0.77282324350E+02 -0.11446840370E+03  0.17600479472E+03  0.28332769069E+03  0.17384280096E+03 0.  0.
         24    2    3    3    0    0 -0.58553200726E+01 -0.10912900870E+03  0.87877393384E+02  0.16196498668E+03  0.81035765732E+02 0.  0.
         -6    2    1    2    0  502 -0.77282324350E+02  0.11446840370E+03  0.76316322029E+02  0.23417875926E+03  0.17303160745E+03 0.  0.
        -24    2    5    5    0    0  0.25142958425E+02  0.53771647764E+02  0.53364324203E+02  0.11283660279E+03  0.79754557047E+02 0.  0.
          5    1    3    3  501    0  0.83137644423E+02 -0.53393949942E+01  0.88127401331E+02  0.12136270401E+03  0.47000000000E+01 0. -1.
        -11    1    4    4    0    0 -0.42729407221E+02 -0.59938407546E+02  0.38237192747E+02  0.82948766416E+02  0.00000000000E+00 0.  1.
         12    1    4    4    0    0  0.36874087149E+02 -0.49190601156E+02  0.49640200637E+02  0.79016220261E+02  0.00000000000E+00 0. -1.
         -5    1    5    5    0  502 -0.10242528278E+03  0.60696755932E+02  0.22951997826E+02  0.12134215647E+03  0.47000000000E+01 0.  1.
         11    1    6    6    0    0 -0.13937627684E+02 -0.10766450641E+00  0.43339499302E+02  0.45525611000E+02  0.00000000000E+00 0. -1.
        -12    1    6    6    0    0  0.39080586109E+02  0.53879312271E+02  0.10024824901E+02  0.67310991789E+02  0.00000000000E+00 0.  1.
<mgrwt>
<rscale>  2 0.22187022E+03</rscale>
<asrwt>0</asrwt>
<pdfrwt beam="1">  1       21 0.59217504E-01 0.22202904E+03</pdfrwt>
<pdfrwt beam="2">  1       21 0.20398872E-01 0.22202904E+03</pdfrwt>
<totfact> 0.58500852E+04</totfact>
</mgrwt>
</event>
<event>
12    1  0.1013215E-001  0.1833471E+03  0.7546771E-02  0.1164963E+00
         21   -1    0    0  503  502  0.00000000000E+00  0.00000000000E+00  0.16146371445E+04  0.16146371445E+04  0.00000000000E+00 0. -1.
         21   -1    0    0  501  503 -0.00000000000E+00 -0.00000000000E+00 -0.75710079333E+02  0.75710079333E+02  0.00000000000E+00 0. -1.
          6    2    1    2  501    0  0.41860513403E+02  0.45273398505E+02  0.49566950053E+02  0.18992905069E+03  0.17266782724E+03 0.  0.
         24    2    3    3    0    0  0.56871256273E+02 -0.28951177520E+02  0.46030807029E+02  0.11397377177E+03  0.82454078044E+02 0.  0.
         -6    2    1    2    0  502 -0.41860513403E+02 -0.45273398505E+02  0.14893601151E+04  0.15004181731E+04  0.17105308714E+03 0.  0.
        -24    2    5    5    0    0 -0.90369867782E+01  0.39266095977E+02  0.81770449185E+03  0.82265149037E+03  0.80568884710E+02 0.  0.
          5    1    3    3  501    0 -0.15010742871E+02  0.74224576025E+02  0.35361430233E+01  0.75955278915E+02  0.47000000000E+01 0. -1.
        -13    1    4    4    0    0 -0.52054999498E+00 -0.21438466624E+02  0.51547229103E+02  0.55830060467E+02  0.00000000000E+00 0.  1.
         14    1    4    4    0    0  0.57391806268E+02 -0.75127108958E+01 -0.55164220740E+01  0.58143711304E+02  0.00000000000E+00 0. -1.
         -5    1    5    5    0  502 -0.32823526624E+02 -0.84539494482E+02  0.67165562323E+03  0.67776668275E+03  0.47000000000E+01 0.  1.
         11    1    6    6    0    0 -0.34400155594E+02  0.32629692201E+02  0.71780264945E+03  0.71936688211E+03  0.00000000000E+00 0. -1.
        -12    1    6    6    0    0  0.25363168816E+02  0.66364037765E+01  0.99901842396E+02  0.10328460825E+03  0.00000000000E+00 0.  1.
<mgrwt>
<rscale>  2 0.18296595E+03</rscale>
<asrwt>0</asrwt>
<pdfrwt beam="1">  1       21 0.24840569E+00 0.18334711E+03</pdfrwt>
<pdfrwt beam="2">  1       21 0.11647706E-01 0.18334711E+03</pdfrwt>
<totfact> 0.42476809E+03</totfact>
</mgrwt>
</event>
<event>
12    1  0.1013215E-001  0.1938872E+03  0.7546771E-02  0.1155167E+00
         21   -1    0    0  501  502  0.00000000000E+00  0.00000000000E+00  0.10154856880E+03  0.10154856880E+03  0.00000000000E+00 0. -1.
         21   -1    0    0  502  503 -0.00000000000E+00 -0.00000000000E+00 -0.37359920190E+03  0.37359920190E+03  0.00000000000E+00 0. -1.
         -6    2    1    2    0  503  0.56930350995E+02 -0.67393273324E+02 -0.10924234955E+03  0.22254465277E+03  0.17265373841E+03 0.  0.
        -24    2    3    3    0    0  0.35689758890E+02 -0.78822282798E+02 -0.77454780287E+01  0.11811529896E+03  0.80028246652E+02 0.  0.
          6    2    1    2  501    0 -0.56930350995E+02  0.67393273324E+02 -0.16280828356E+03  0.25260311793E+03  0.17181059292E+03 0.  0.
         24    2    5    5    0    0 -0.48836905010E+02  0.57890890433E+02 -0.19135941347E+03  0.22109032421E+03  0.80784329250E+02 0.  0.
          5    1    5    5  501    0 -0.80934459851E+01  0.95023828911E+01  0.28551129910E+02  0.31512793714E+02  0.47000000000E+01 0. -1.
        -13    1    6    6    0    0  0.11714194620E+01  0.29909862267E+00  0.77645214577E+01  0.78580835455E+01  0.00000000000E+00 0.  1.
         14    1    6    6    0    0 -0.50008324472E+02  0.57591791810E+02 -0.19912393493E+03  0.21323224067E+03  0.00000000000E+00 0. -1.
         -5    1    3    3    0  503  0.21240592105E+02  0.11429009474E+02 -0.10149687152E+03  0.10442935381E+03  0.47000000000E+01 0.  1.
         13    1    4    4    0    0  0.56187239179E+02 -0.40078420774E+02 -0.21311576965E+02  0.72232049472E+02  0.00000000000E+00 0. -1.
        -14    1    4    4    0    0 -0.20497480288E+02 -0.38743862025E+02  0.13566098936E+02  0.45883249483E+02  0.00000000000E+00 0.  1.
<mgrwt>
<rscale>  2 0.19369928E+03</rscale>
<asrwt>0</asrwt>
<pdfrwt beam="1">  1       21 0.15622857E-01 0.19388716E+03</pdfrwt>
<pdfrwt beam="2">  1       21 0.57476799E-01 0.19388716E+03</pdfrwt>
<totfact> 0.10342131E+05</totfact>
</mgrwt>
</event>
<event>
12    1  0.1013215E-001  0.1777321E+03  0.7546771E-02  0.1170544E+00
         21   -1    0    0  503  502  0.00000000000E+00  0.00000000000E+00  0.79253703326E+02  0.79253703326E+02  0.00000000000E+00 0. -1.
         21   -1    0    0  501  503 -0.00000000000E+00 -0.00000000000E+00 -0.39409916088E+03  0.39409916088E+03  0.00000000000E+00 0. -1.
          6    2    1    2  501    0 -0.32600880422E+02 -0.25290709663E+02 -0.15003098064E+03  0.23096370213E+03  0.17068245121E+03 0.  0.
         24    2    3    3    0    0 -0.45899289746E+01 -0.25196179392E+02 -0.17487736319E+03  0.19322704803E+03  0.78094078074E+02 0.  0.
         -6    2    1    2    0  502  0.32600880422E+02  0.25290709663E+02 -0.16481447691E+03  0.24238916207E+03  0.17287642029E+03 0.  0.
        -24    2    5    5    0    0  0.80515643058E+02  0.43538611994E+02 -0.13771344986E+03  0.18420526323E+03  0.81167759707E+02 0.  0.
          5    1    3    3  501    0 -0.28010951447E+02 -0.94530270825E-01  0.24846382549E+02  0.37736654101E+02  0.47000000000E+01 0. -1.
        -11    1    4    4    0    0 -0.36175772907E+02 -0.96041910572E+00 -0.47138022284E+02  0.59427284097E+02  0.00000000000E+00 0.  1.
         12    1    4    4    0    0  0.31585843932E+02 -0.24235760286E+02 -0.12773934091E+03  0.13379976393E+03  0.00000000000E+00 0. -1.
         -5    1    5    5    0  502 -0.47914762637E+02 -0.18247902332E+02 -0.27101027052E+02  0.58183898849E+02  0.47000000000E+01 0.  1.
         11    1    6    6    0    0  0.47493407210E+02  0.66774812421E+02 -0.90766691111E+02  0.12228283411E+03  0.00000000000E+00 0. -1.
        -12    1    6    6    0    0  0.33022235849E+02 -0.23236200426E+02 -0.46946758750E+02  0.61922429118E+02  0.00000000000E+00 0.  1.
<mgrwt>
<rscale>  2 0.17719634E+03</rscale>
<asrwt>0</asrwt>
<pdfrwt beam="1">  1       21 0.12192878E-01 0.17773209E+03</pdfrwt>
<pdfrwt beam="2">  1       21 0.60630639E-01 0.17773209E+03</pdfrwt>
<totfact> 0.14522029E+05</totfact>
</mgrwt>
</event>
<event>
12    1  0.1013215E-001  0.2286967E+03  0.7546771E-02  0.1127926E+00
         21   -1    0    0  503  502  0.00000000000E+00  0.00000000000E+00  0.16468120393E+03  0.16468120393E+03  0.00000000000E+00 0.  1.
         21   -1    0    0  501  503 -0.00000000000E+00 -0.00000000000E+00 -0.37217080063E+03  0.37217080063E+03  0.00000000000E+00 0.  1.
          6    2    1    2  501    0 -0.13934491415E+03  0.45967224088E+02 -0.20878139767E+03  0.30815170136E+03  0.17273623896E+03 0.  0.
         24    2    3    3    0    0 -0.94985946354E+02 -0.36855766995E+02 -0.12444474940E+03  0.18181039332E+03  0.84781164784E+02 0.  0.
         -6    2    1    2    0  502  0.13934491415E+03 -0.45967224088E+02  0.12918009652E+01  0.22870030320E+03  0.17541997932E+03 0.  0.
        -24    2    5    5    0    0  0.30725214973E+02 -0.11570862252E+02 -0.53320163932E+02  0.10226492260E+03  0.80852648843E+02 0.  0.
          5    1    3    3  501    0 -0.44358967798E+02  0.82822991083E+02 -0.84336648267E+02  0.12634130804E+03  0.47000000000E+01 0. -1.
        -13    1    4    4    0    0 -0.71907313322E+02  0.12849505225E+02 -0.46723510575E+02  0.86711348358E+02  0.00000000000E+00 0.  1.
         14    1    4    4    0    0 -0.23078633033E+02 -0.49705272220E+02 -0.77721238824E+02  0.95099044966E+02  0.00000000000E+00 0. -1.
         -5    1    5    5    0  502  0.10861969918E+03 -0.34396361835E+02  0.54611964897E+02  0.12643538060E+03  0.47000000000E+01 0.  1.
         13    1    6    6    0    0  0.41039188898E+02  0.25811076312E+02 -0.30140034521E+02  0.57086323815E+02  0.00000000000E+00 0. -1.
        -14    1    6    6    0    0 -0.10313973925E+02 -0.37381938564E+02 -0.23180129410E+02  0.45178598788E+02  0.00000000000E+00 0.  1.
<mgrwt>
<rscale>  2 0.22818192E+03</rscale>
<asrwt>0</asrwt>
<pdfrwt beam="1">  1       21 0.25335570E-01 0.22869665E+03</pdfrwt>
<pdfrwt beam="2">  1       21 0.57257045E-01 0.22869665E+03</pdfrwt>
<totfact> 0.41550810E+04</totfact>
</mgrwt>
</event>
<event>
12    1  0.1013215E-001  0.2137792E+03  0.7546771E-02  0.1138952E+00
         21   -1    0    0  501  502  0.00000000000E+00  0.00000000000E+00  0.87385314456E+02  0.87385314456E+02  0.00000000000E+00 0.  1.
         21   -1    0    0  502  503 -0.00000000000E+00 -0.00000000000E+00 -0.53938238210E+03  0.53938238210E+03  0.00000000000E+00 0.  1.
         -6    2    1    2    0  503 -0.12066722826E+03  0.43346861493E+02 -0.28651315064E+03  0.35642257072E+03  0.16884233192E+03 0.  0.
        -24    2    3    3    0    0 -0.14825544967E+02  0.53827462138E+02 -0.18433825722E+03  0.20886206191E+03  0.80781033473E+02 0.  0.
          6    2    1    2  501    0  0.12066722826E+03 -0.43346861493E+02 -0.16548391700E+03  0.27034512584E+03  0.17106147989E+03 0.  0.
         24    2    5    5    0    0  0.12249428706E+03 -0.75299930702E+02 -0.16726864753E+03  0.23794740927E+03  0.89248188828E+02 0.  0.
          5    1    5    5  501    0 -0.18270587939E+01  0.31953069210E+02  0.17847305225E+01  0.32397716568E+02  0.47000000000E+01 0. -1.
        -13    1    6    6    0    0  0.35995942058E+02 -0.17174700259E+02  0.11427505779E+01  0.39899674842E+02  0.00000000000E+00 0.  1.
         14    1    6    6    0    0  0.86498344997E+02 -0.58125230444E+02 -0.16841139810E+03  0.19804773443E+03  0.00000000000E+00 0. -1.
         -5    1    3    3    0  503 -0.10584168329E+03 -0.10480600646E+02 -0.10217489342E+03  0.14756050880E+03  0.47000000000E+01 0.  1.
         11    1    4    4    0    0  0.89900759081E+01 -0.14440326168E+02 -0.90944662613E+01  0.19288696204E+02  0.00000000000E+00 0. -1.
        -12    1    4    4    0    0 -0.23815620875E+02  0.68267788306E+02 -0.17524379095E+03  0.18957336571E+03  0.00000000000E+00 0.  1.
<mgrwt>
<rscale>  2 0.21333497E+03</rscale>
<asrwt>0</asrwt>
<pdfrwt beam="1">  1       21 0.13443894E-01 0.21377923E+03</pdfrwt>
<pdfrwt beam="2">  1       21 0.82981906E-01 0.21377923E+03</pdfrwt>
<totfact> 0.59961362E+04</totfact>
</mgrwt>
</event>
<event>
12    1  0.1013215E-001  0.4202030E+03  0.7546771E-02  0.1037263E+00
         21   -1    0    0  503  502  0.00000000000E+00  0.00000000000E+00  0.77244249651E+03  0.77244249651E+03  0.00000000000E+00 0. -1.
         21   -1    0    0  501  503 -0.00000000000E+00 -0.00000000000E+00 -0.24101398606E+03  0.24101398606E+03  0.00000000000E+00 0.  1.
          6    2    1    2  501    0 -0.35343179042E+03 -0.13719621552E+03  0.14187865923E+03  0.44046464544E+03  0.17361658304E+03 0.  0.
         24    2    3    3    0    0 -0.12525339365E+03  0.27657881739E+01  0.60835475865E+02  0.16074187054E+03  0.80255414861E+02 0.  0.
         -6    2    1    2    0  502  0.35343179042E+03  0.13719621552E+03  0.38954985122E+03  0.57299183713E+03  0.18120079139E+03 0.  0.
        -24    2    5    5    0    0  0.26895505023E+03  0.15755406223E+03  0.35573132310E+03  0.47962940143E+03  0.79620894924E+02 0.  0.
          5    1    3    3  501    0 -0.22817839676E+03 -0.13996200369E+03  0.81043183364E+02  0.27972277490E+03  0.47000000000E+01 0. -1.
        -11    1    4    4    0    0  0.60745973371E+01  0.47151885743E+00 -0.98497191203E+01  0.11581883681E+02  0.00000000000E+00 0.  1.
         12    1    4    4    0    0 -0.13132799099E+03  0.22942693165E+01  0.70685194985E+02  0.14915998686E+03  0.00000000000E+00 0. -1.
         -5    1    5    5    0  502  0.84476740191E+02 -0.20357846710E+02  0.33818528112E+02  0.93362435699E+02  0.47000000000E+01 0.  1.
         11    1    6    6    0    0  0.11997939699E+03  0.59692474134E+02  0.21131419647E+03  0.25022377345E+03  0.00000000000E+00 0. -1.
        -12    1    6    6    0    0  0.14897565323E+03  0.97861588097E+02  0.14441712663E+03  0.22940562798E+03  0.00000000000E+00 0.  1.
<mgrwt>
<rscale>  2 0.41939710E+03</rscale>
<asrwt>0</asrwt>
<pdfrwt beam="1">  1       21 0.11883731E+00 0.42020300E+03</pdfrwt>
<pdfrwt beam="2">  1       21 0.37079075E-01 0.42020300E+03</pdfrwt>
<totfact> 0.33350888E+03</totfact>
</mgrwt>
</event>
<event>
12    1  0.1013215E-001  0.1751136E+03  0.7546771E-02  0.1173388E+00
         21   -1    0    0  503  502  0.00000000000E+00  0.00000000000E+00  0.13788670419E+03  0.13788670419E+03  0.00000000000E+00 0.  1.
         21   -1    0    0  501  503 -0.00000000000E+00 -0.00000000000E+00 -0.21858631523E+03  0.21858631523E+03  0.00000000000E+00 0.  1.
          6    2    1    2  501    0  0.21821393742E+01  0.84170160764E+00 -0.37571494117E+02  0.17612670919E+03  0.17205676484E+03 0.  0.
         24    2    3    3    0    0 -0.32594766286E+02  0.40629305590E+02  0.22526263954E+02  0.95962395915E+02  0.77383393568E+02 0.  0.
         -6    2    1    2    0  502 -0.21821393742E+01 -0.84170160764E+00 -0.43128116918E+02  0.18034631023E+03  0.17509793531E+03 0.  0.
        -24    2    5    5    0    0  0.18687294733E+01  0.16088199902E+02  0.38446596342E+02  0.96802579484E+02  0.87351452755E+02 0.  0.
          5    1    3    3  501    0  0.34776905660E+02 -0.39787603982E+02 -0.60097758071E+02  0.80164313276E+02  0.47000000000E+01 0. -1.
        -13    1    4    4    0    0  0.38632059374E+01  0.20802930953E+01 -0.24605283857E+02  0.24993438602E+02  0.00000000000E+00 0.  1.
         14    1    4    4    0    0 -0.36457972223E+02  0.38549012495E+02  0.47131547811E+02  0.70968957312E+02  0.00000000000E+00 0. -1.
         -5    1    5    5    0  502 -0.40508688475E+01 -0.16929901510E+02 -0.81574713259E+02  0.83543730746E+02  0.47000000000E+01 0.  1.
         11    1    6    6    0    0  0.79104899626E+01 -0.16433848428E+02 -0.21586207606E+02  0.28259716637E+02  0.00000000000E+00 0. -1.
        -12    1    6    6    0    0 -0.60417604892E+01  0.32522048331E+02  0.60032803947E+02  0.68542862847E+02  0.00000000000E+00 0.  1.
<mgrwt>
<rscale>  2 0.17434833E+03</rscale>
<asrwt>0</asrwt>
<pdfrwt beam="1">  1       21 0.21213339E-01 0.17511355E+03</pdfrwt>
<pdfrwt beam="2">  1       21 0.33628664E-01 0.17511355E+03</pdfrwt>
<totfact> 0.17700711E+05</totfact>
</mgrwt>
</event>
<event>
12    1  0.1013215E-001  0.2645186E+03  0.7546771E-02  0.1104575E+00
         21   -1    0    0  503  502  0.00000000000E+00  0.00000000000E+00  0.52554526805E+03  0.52554526805E+03  0.00000000000E+00 0.  1.
         21   -1    0    0  501  503 -0.00000000000E+00 -0.00000000000E+00 -0.14043515778E+03  0.14043515778E+03  0.00000000000E+00 0. -1.
          6    2    1    2  501    0 -0.19901596076E+03  0.73936821473E+01  0.11487666950E+03  0.28838642269E+03  0.17409210329E+03 0.  0.
         24    2    3    3    0    0 -0.13528573727E+03 -0.23775484829E+02  0.14101313441E+03  0.21263509826E+03  0.80383310136E+02 0.  0.
         -6    2    1    2    0  502  0.19901596076E+03 -0.73936821473E+01  0.27023344076E+03  0.37759400314E+03  0.17288464226E+03 0.  0.
        -24    2    5    5    0    0  0.10085342204E+03 -0.17242648075E+02  0.24167246341E+03  0.27478006651E+03  0.81423483914E+02 0.  0.
          5    1    3    3  501    0 -0.63730223488E+02  0.31169166977E+02 -0.26136464907E+02  0.75751324435E+02  0.47000000000E+01 0. -1.
        -13    1    4    4    0    0 -0.70540392972E+02 -0.51778832565E+02  0.65535054455E+02  0.10932446160E+03  0.00000000000E+00 0.  1.
         14    1    4    4    0    0 -0.64745344296E+02  0.28003347736E+02  0.75478079956E+02  0.10331063666E+03  0.00000000000E+00 0. -1.
         -5    1    5    5    0  502  0.98162538716E+02  0.98489659276E+01  0.28560977351E+02  0.10281393662E+03  0.47000000000E+01 0.  1.
         13    1    6    6    0    0  0.56381080439E+02  0.29055490560E+01  0.45167432705E+02  0.72300521602E+02  0.00000000000E+00 0. -1.
        -14    1    6    6    0    0  0.44472341601E+02 -0.20148197131E+02  0.19650503070E+03  0.20247954491E+03  0.00000000000E+00 0.  1.
<mgrwt>
<rscale>  2 0.26432008E+03</rscale>
<asrwt>0</asrwt>
<pdfrwt beam="1">  1       21 0.80853117E-01 0.26451858E+03</pdfrwt>
<pdfrwt beam="2">  1       21 0.21605409E-01 0.26451858E+03</pdfrwt>
<totfact> 0.25853011E+04</totfact>
</mgrwt>
</event>
<event>
12    1  0.1013215E-001  0.2609996E+03  0.7546771E-02  0.1107096E+00
         21   -1    0    0  503  502  0.00000000000E+00  0.00000000000E+00  0.71352656165E+02  0.71352656165E+02  0.00000000000E+00 0.  1.
         21   -1    0    0  501  503 -0.00000000000E+00 -0.00000000000E+00 -0.94401424249E+03  0.94401424249E+03  0.00000000000E+00 0.  1.
          6    2    1    2  501    0  0.56005462763E+02 -0.18218611232E+03 -0.46018769608E+03  0.52725265484E+03  0.17289955184E+03 0.  0.
         24    2    3    3    0    0  0.55851906111E+02 -0.82759458434E+02 -0.37596356478E+03  0.39686294137E+03  0.78632237787E+02 0.  0.
         -6    2    1    2    0  502 -0.56005462763E+02  0.18218611232E+03 -0.41247389025E+03  0.48811424382E+03  0.17830427225E+03 0.  0.
        -24    2    5    5    0    0 -0.10068128066E+03  0.99890618537E+02 -0.30062397250E+03  0.34216572172E+03  0.81164969869E+02 0.  0.
          5    1    3    3  501    0  0.15355665210E+00 -0.99426653890E+02 -0.84224131304E+02  0.13038971346E+03  0.47000000000E+01 0. -1.
        -11    1    4    4    0    0 -0.65112248640E+01 -0.58710318212E+02 -0.14967955433E+03  0.16091384806E+03  0.00000000000E+00 0.  1.
         12    1    4    4    0    0  0.62363130975E+02 -0.24049140222E+02 -0.22628401045E+03  0.23594909331E+03  0.00000000000E+00 0. -1.
         -5    1    5    5    0  502  0.44675817897E+02  0.82295493787E+02 -0.11184991774E+03  0.14594852210E+03  0.47000000000E+01 0.  1.
         13    1    6    6    0    0 -0.39845512209E+02  0.42490847757E+02 -0.21386081879E+03  0.22165194969E+03  0.00000000000E+00 0. -1.
        -14    1    6    6    0    0 -0.60835768451E+02  0.57399770780E+02 -0.86763153706E+02  0.12051377203E+03  0.00000000000E+00 0.  1.
<mgrwt>
<rscale>  2 0.26007927E+03</rscale>
<asrwt>0</asrwt>
<pdfrwt beam="1">  1       21 0.10977332E-01 0.26099963E+03</pdfrwt>
<pdfrwt beam="2">  1       21 0.14523296E+00 0.26099963E+03</pdfrwt>
<totfact> 0.21500096E+04</totfact>
</mgrwt>
</event>
<event>
11    1  0.1013215E-001  0.2954639E+03  0.7546771E-02  0.1088741E+00
         21   -1    0    0  501  502  0.00000000000E+00  0.00000000000E+00  0.18808354363E+03  0.18808354363E+03  0.00000000000E+00 0.  1.
         21   -1    0    0  502  503 -0.00000000000E+00 -0.00000000000E+00 -0.68005911514E+03  0.68005911514E+03  0.00000000000E+00 0. -1.
         -6    2    1    2    0  503  0.15034657506E+03  0.18714426676E+03 -0.50126853448E+03  0.58186688290E+03  0.17225520759E+03 0.  0.
        -24    2    3    3    0    0  0.17353505484E+03  0.14724009835E+03 -0.45848624134E+03  0.51876012528E+03  0.84311163345E+02 0.  0.
          6    2    1    2  501    0 -0.15034657506E+03 -0.18714426676E+03  0.92929629804E+01  0.28627577587E+03  0.15569326086E+03 0.  0.
          5    1    5    5  501    0 -0.11267342298E+03 -0.28274887023E+02 -0.15893547302E+02  0.11734336082E+03  0.47000000000E+01 0. -1.
        -11    1    5    5    0    0 -0.22003114730E+02 -0.10629624278E+03  0.33149933889E+02  0.11349866256E+03  0.00000000000E+00 0.  1.
         12    1    5    5    0    0 -0.15670037354E+02 -0.52573136952E+02 -0.79634236069E+01  0.55433752491E+02  0.00000000000E+00 0. -1.
         -5    1    3    3    0  503 -0.23188479774E+02  0.39904168407E+02 -0.42782293139E+02  0.63106757616E+02  0.47000000000E+01 0.  1.
         13    1    4    4    0    0  0.15827953728E+03  0.87276408906E+02 -0.33579161992E+03  0.38134708008E+03  0.00000000000E+00 0. -1.
        -14    1    4    4    0    0  0.15255517558E+02  0.59963689442E+02 -0.12269462142E+03  0.13741304521E+03  0.00000000000E+00 0.  1.
<mgrwt>
<rscale>  2 0.29310097E+03</rscale>
<asrwt>0</asrwt>
<pdfrwt beam="1">  1       21 0.28935930E-01 0.29546392E+03</pdfrwt>
<pdfrwt beam="2">  1       21 0.10462448E+00 0.29546392E+03</pdfrwt>
<totfact> 0.79147990E+03</totfact>
</mgrwt>
</event>
<event>
12    1  0.1013215E-001  0.1730331E+03  0.7546771E-02  0.1174734E+00
         21   -1    0    0  501  502  0.00000000000E+00  0.00000000000E+00  0.75035528802E+02  0.75035528802E+02  0.00000000000E+00 0.  1.
         21   -1    0    0  502  503 -0.00000000000E+00 -0.00000000000E+00 -0.43430301075E+03  0.43430301075E+03  0.00000000000E+00 0.  1.
         -6    2    1    2    0  503  0.63972325681E+01  0.32619534313E+02 -0.25237033979E+03  0.30599222743E+03  0.16981017708E+03 0.  0.
        -24    2    3    3    0    0 -0.42508194800E+02 -0.18974980907E+02 -0.91456150522E+02  0.13001154345E+03  0.79823414091E+02 0.  0.
          6    2    1    2  501    0 -0.63972325681E+01 -0.32619534313E+02 -0.10689714216E+03  0.20334631212E+03  0.16975796019E+03 0.  0.
         24    2    5    5    0    0 -0.45388034865E+02 -0.50027306061E+02 -0.15700426575E+02  0.10253835552E+03  0.75530165474E+02 0.  0.
          5    1    5    5  501    0  0.38990802297E+02  0.17407771748E+02 -0.91196715586E+02  0.10080795660E+03  0.47000000000E+01 0. -1.
        -11    1    6    6    0    0 -0.47992940113E+02 -0.88520210111E+01 -0.31802239919E+02  0.58250004640E+02  0.00000000000E+00 0.  1.
         12    1    6    6    0    0  0.26049052483E+01 -0.41175285050E+02  0.16101813344E+02  0.44288350876E+02  0.00000000000E+00 0. -1.
         -5    1    3    3    0  503  0.48905427368E+02  0.51594515221E+02 -0.16091418927E+03  0.17598068398E+03  0.47000000000E+01 0.  1.
         11    1    4    4    0    0 -0.28102854986E+02 -0.49876999291E+02 -0.66566079146E+02  0.87798225549E+02  0.00000000000E+00 0. -1.
        -12    1    4    4    0    0 -0.14405339814E+02  0.30902018384E+02 -0.24890071376E+02  0.42213317904E+02  0.00000000000E+00 0.  1.
<mgrwt>
<rscale>  2 0.17302029E+03</rscale>
<asrwt>0</asrwt>
<pdfrwt beam="1">  1       21 0.11543928E-01 0.17303310E+03</pdfrwt>
<pdfrwt beam="2">  1       21 0.66815848E-01 0.17303310E+03</pdfrwt>
<totfact> 0.12997564E+05</totfact>
</mgrwt>
</event>
<event>
12    1  0.1013215E-001  0.2336691E+03  0.7546771E-02  0.1124120E+00
         21   -1    0    0  503  502  0.00000000000E+00  0.00000000000E+00  0.15857560716E+03  0.15857560716E+03  0.00000000000E+00 0.  1.
         21   -1    0    0  501  503 -0.00000000000E+00 -0.00000000000E+00 -0.35299719138E+03  0.35299719138E+03  0.00000000000E+00 0.  1.
          6    2    1    2  501    0 -0.13567103098E+03  0.79548368749E+02 -0.56353302069E+02  0.24016149865E+03  0.17253196563E+03 0.  0.
         24    2    3    3    0    0 -0.72407505053E+02 -0.24797170917E+02 -0.33859873741E+02  0.11599101231E+03  0.80309883659E+02 0.  0.
         -6    2    1    2    0  502  0.13567103098E+03 -0.79548368749E+02 -0.13806828215E+03  0.27141129989E+03  0.17281976611E+03 0.  0.
        -24    2    5    5    0    0  0.32963123209E+02 -0.42559813949E+02 -0.12993394465E+03  0.16184248613E+03  0.80076557664E+02 0.  0.
          5    1    3    3  501    0 -0.63263525922E+02  0.10434553967E+03 -0.22493428328E+02  0.12417048634E+03  0.47000000000E+01 0. -1.
        -11    1    4    4    0    0 -0.55271470624E+02 -0.46146144738E+02  0.56894225469E+00  0.72005040341E+02  0.00000000000E+00 0.  1.
         12    1    4    4    0    0 -0.17136034429E+02  0.21348973822E+02 -0.34428815995E+02  0.43985971969E+02  0.00000000000E+00 0. -1.
         -5    1    5    5    0  502  0.10270790777E+03 -0.36988554800E+02 -0.81343374923E+01  0.10956881377E+03  0.47000000000E+01 0.  1.
         13    1    6    6    0    0  0.44930274784E+02 -0.60174751845E+02 -0.10414515071E+03  0.12839759643E+03  0.00000000000E+00 0. -1.
        -14    1    6    6    0    0 -0.11967151576E+02  0.17614937896E+02 -0.25788793940E+02  0.33444889696E+02  0.00000000000E+00 0.  1.
<mgrwt>
<rscale>  2 0.23361588E+03</rscale>
<asrwt>0</asrwt>
<pdfrwt beam="1">  1       21 0.24396247E-01 0.23366909E+03</pdfrwt>
<pdfrwt beam="2">  1       21 0.54307260E-01 0.23366909E+03</pdfrwt>
<totfact> 0.49888940E+04</totfact>
</mgrwt>
</event>
<event>
12    1  0.1013215E-001  0.2067034E+03  0.7546771E-02  0.1144621E+00
         21   -1    0    0  503  502  0.00000000000E+00  0.00000000000E+00  0.32037923255E+03  0.32037923255E+03  0.00000000000E+00 0. -1.
         21   -1    0    0  501  503 -0.00000000000E+00 -0.00000000000E+00 -0.39449477181E+03  0.39449477181E+03  0.00000000000E+00 0.  1.
          6    2    1    2  501    0  0.10804562033E+03 -0.14153810865E+02 -0.32854062706E+03  0.38706548905E+03  0.17322402476E+03 0.  0.
         24    2    3    3    0    0  0.64225641044E+02  0.63150017346E+02 -0.21169823170E+03  0.24019715416E+03  0.69033860560E+02 0.  0.
         -6    2    1    2    0  502 -0.10804562033E+03  0.14153810865E+02  0.25442508780E+03  0.32780851531E+03  0.17564768992E+03 0.  0.
        -24    2    5    5    0    0 -0.54364179893E+02  0.25969943002E+02  0.25343929255E+03  0.27263261642E+03  0.80418695191E+02 0.  0.
          5    1    3    3  501    0  0.43819979286E+02 -0.77303828211E+02 -0.11684239536E+03  0.14686833489E+03  0.47000000000E+01 0. -1.
        -11    1    4    4    0    0  0.61934829760E+02  0.31873094251E+02 -0.18916159811E+03  0.20157858883E+03  0.00000000000E+00 0.  1.
         12    1    4    4    0    0  0.22908112843E+01  0.31276923095E+02 -0.22536633584E+02  0.38618565327E+02  0.00000000000E+00 0. -1.
         -5    1    5    5    0  502 -0.53681440436E+02 -0.11816132137E+02  0.98579525355E+00  0.55175898890E+02  0.47000000000E+01 0.  1.
         11    1    6    6    0    0 -0.54608041488E+02  0.71602949229E+01  0.74187075951E+02  0.92396051088E+02  0.00000000000E+00 0. -1.
        -12    1    6    6    0    0  0.24386159447E+00  0.18809648079E+02  0.17925221660E+03  0.18023656533E+03  0.00000000000E+00 0.  1.
<mgrwt>
<rscale>  2 0.20618759E+03</rscale>
<asrwt>0</asrwt>
<pdfrwt beam="1">  1       21 0.49289112E-01 0.20670340E+03</pdfrwt>
<pdfrwt beam="2">  1       21 0.60691504E-01 0.20670340E+03</pdfrwt>
<totfact> 0.98297038E+03</totfact>
</mgrwt>
</event>
<event>
12    1  0.1013215E-001  0.1900639E+03  0.7546771E-02  0.1158784E+00
         21   -1    0    0  503  502  0.00000000000E+00  0.00000000000E+00  0.51258436763E+03  0.51258436763E+03  0.00000000000E+00 0. -1.
         21   -1    0    0  501  503 -0.00000000000E+00 -0.00000000000E+00 -0.73941527230E+02  0.73941527230E+02  0.00000000000E+00 0.  1.
          6    2    1    2  501    0 -0.43547169662E+02 -0.66138770446E+02  0.28736252620E+03  0.34360608001E+03  0.17093046484E+03 0.  0.
         24    2    3    3    0    0 -0.43989037025E+02 -0.77355397498E+02  0.11309957078E+03  0.16891871469E+03  0.88448439000E+02 0.  0.
         -6    2    1    2    0  502  0.43547169662E+02  0.66138770446E+02  0.15128031420E+03  0.24291981486E+03  0.17278197256E+03 0.  0.
        -24    2    5    5    0    0  0.72478131037E+02 -0.93137229545E+01  0.93276704796E+02  0.14333774824E+03  0.80655697259E+02 0.  0.
          5    1    3    3  501    0  0.44186736363E+00  0.11216627052E+02  0.17426295542E+03  0.17468736532E+03  0.47000000000E+01 0. -1.
        -11    1    4    4    0    0 -0.45673956655E+02  0.20531169269E+01  0.47210103811E+02  0.65720008426E+02  0.00000000000E+00 0.  1.
         12    1    4    4    0    0  0.16849196292E+01 -0.79408514425E+02  0.65889466969E+02  0.10319870627E+03  0.00000000000E+00 0. -1.
         -5    1    5    5    0  502 -0.28930961375E+02  0.75452493401E+02  0.58003609405E+02  0.99582066611E+02  0.47000000000E+01 0.  1.
         13    1    6    6    0    0 -0.16719325952E+01  0.20147206243E+02  0.46848522108E+02  0.51024399083E+02  0.00000000000E+00 0. -1.
        -14    1    6    6    0    0  0.74150063632E+02 -0.29460929197E+02  0.46428182687E+02  0.92313349162E+02  0.00000000000E+00 0.  1.
<mgrwt>
<rscale>  2 0.18964215E+03</rscale>
<asrwt>0</asrwt>
<pdfrwt beam="1">  1       21 0.78859131E-01 0.19006394E+03</pdfrwt>
<pdfrwt beam="2">  1       21 0.11375620E-01 0.19006394E+03</pdfrwt>
<totfact> 0.91812152E+04</totfact>
</mgrwt>
</event>
<event>
12    1  0.1013215E-001  0.2502202E+03  0.7546771E-02  0.1113267E+00
         21   -1    0    0  501  502  0.00000000000E+00  0.00000000000E+00  0.79250002010E+03  0.79250002010E+03  0.00000000000E+00 0. -1.
         21   -1    0    0  502  503 -0.00000000000E+00 -0.00000000000E+00 -0.95087490834E+02  0.95087490834E+02  0.00000000000E+00 0. -1.
         -6    2    1    2    0  503 -0.14104062775E+03 -0.11093974496E+03  0.16541217483E+03  0.29995222103E+03  0.17438480905E+03 0.  0.
        -24    2    3    3    0    0 -0.29225506865E+02 -0.82336628207E+02  0.29607116490E+02  0.12166631744E+03  0.79326293600E+02 0.  0.
          6    2    1    2  501    0  0.14104062775E+03  0.11093974496E+03  0.53200035443E+03  0.58763528990E+03  0.17346691655E+03 0.  0.
         24    2    5    5    0    0  0.14007194237E+03  0.33344156435E+02  0.42089242414E+03  0.45202896305E+03  0.80298000778E+02 0.  0.
          5    1    5    5  501    0  0.96868538565E+00  0.77595588524E+02  0.11110793029E+03  0.13560632686E+03  0.47000000000E+01 0. -1.
        -11    1    6    6    0    0  0.87821889156E+02  0.95651117969E+01  0.14159665300E+03  0.16689454071E+03  0.00000000000E+00 0.  1.
         12    1    6    6    0    0  0.52250053210E+02  0.23779044639E+02  0.27929577114E+03  0.28513442233E+03  0.00000000000E+00 0. -1.
         -5    1    3    3    0  503 -0.11181512089E+03 -0.28603116752E+02  0.13580505834E+03  0.17828590359E+03  0.47000000000E+01 0.  1.
         13    1    4    4    0    0 -0.17079304429E+02 -0.90959374016E+02  0.42616388680E+02  0.10188948398E+03  0.00000000000E+00 0. -1.
        -14    1    4    4    0    0 -0.12146202436E+02  0.86227458082E+01 -0.13009272190E+02  0.19776833462E+02  0.00000000000E+00 0.  1.
<mgrwt>
<rscale>  2 0.25006034E+03</rscale>
<asrwt>0</asrwt>
<pdfrwt beam="1">  1       21 0.12192308E+00 0.25022020E+03</pdfrwt>
<pdfrwt beam="2">  1       21 0.14628845E-01 0.25022020E+03</pdfrwt>
<totfact> 0.20158437E+04</totfact>
</mgrwt>
</event>
<event>
12    1  0.1013215E-001  0.1735981E+03  0.7546771E-02  0.1174257E+00
         21   -1    0    0  501  502  0.00000000000E+00  0.00000000000E+00  0.44875954312E+03  0.44875954312E+03  0.00000000000E+00 0.  1.
         21   -1    0    0  502  503 -0.00000000000E+00 -0.00000000000E+00 -0.72554680480E+02  0.72554680480E+02  0.00000000000E+00 0.  1.
         -6    2    1    2    0  503 -0.13237384930E+02  0.34318271396E+01  0.11611175266E+03  0.20884983459E+03  0.17305868515E+03 0.  0.
        -24    2    3    3    0    0 -0.85907146624E+01  0.69251215403E+02  0.53506014316E+02  0.11777101219E+03  0.78342750347E+02 0.  0.
          6    2    1    2  501    0  0.13237384930E+02 -0.34318271396E+01  0.26009310998E+03  0.31246438901E+03  0.17262260206E+03 0.  0.
         24    2    5    5    0    0  0.31018700405E+02 -0.57340014525E+02  0.12546372023E+03  0.16628152260E+03  0.87512071301E+02 0.  0.
          5    1    5    5  501    0 -0.17781315475E+02  0.53908187385E+02  0.13462938975E+03  0.14618286641E+03  0.47000000000E+01 0. -1.
        -11    1    6    6    0    0  0.23787600702E+02  0.93742942294E+01  0.83049172936E+02  0.86895871391E+02  0.00000000000E+00 0.  1.
         12    1    6    6    0    0  0.72310997029E+01 -0.66714308754E+02  0.42414547291E+02  0.79385651206E+02  0.00000000000E+00 0. -1.
         -5    1    3    3    0  503 -0.46466702678E+01 -0.65819388264E+02  0.62605738347E+02  0.91078822401E+02  0.47000000000E+01 0.  1.
         13    1    4    4    0    0  0.25233488857E+02  0.58390865696E+02  0.14948256236E+02  0.65342731203E+02  0.00000000000E+00 0. -1.
        -14    1    4    4    0    0 -0.33824203519E+02  0.10860349708E+02  0.38557758080E+02  0.52428280991E+02  0.00000000000E+00 0.  1.
<mgrwt>
<rscale>  2 0.17348936E+03</rscale>
<asrwt>0</asrwt>
<pdfrwt beam="1">  1       21 0.69039928E-01 0.17359814E+03</pdfrwt>
<pdfrwt beam="2">  1       21 0.11162259E-01 0.17359814E+03</pdfrwt>
<totfact> 0.12841811E+05</totfact>
</mgrwt>
</event>
<event>
12    1  0.1013215E-001  0.2015527E+03  0.7546771E-02  0.1149319E+00
         21   -1    0    0  501  502  0.00000000000E+00  0.00000000000E+00  0.28658996133E+03  0.28658996133E+03  0.00000000000E+00 0.  1.
         21   -1    0    0  502  503 -0.00000000000E+00 -0.00000000000E+00 -0.48382501995E+03  0.48382501995E+03  0.00000000000E+00 0. -1.
         -6    2    1    2    0  503 -0.96703664028E+01 -0.94607609197E+02 -0.42419301237E+03  0.46964156080E+03  0.17770584734E+03 0.  0.
        -24    2    3    3    0    0 -0.58584558229E+01 -0.13406626967E+03 -0.37336929835E+03  0.40501450412E+03  0.81388140568E+02 0.  0.
          6    2    1    2  501    0  0.96703664028E+01  0.94607609197E+02  0.22695795376E+03  0.30077342047E+03  0.17294687620E+03 0.  0.
         24    2    5    5    0    0 -0.51527138630E+02  0.93031866276E+02  0.17921360290E+03  0.22299662042E+03  0.79372558836E+02 0.  0.
          5    1    5    5  501    0  0.61197505033E+02  0.15757429204E+01  0.47744350857E+02  0.77776800055E+02  0.47000000000E+01 0. -1.
        -13    1    6    6    0    0 -0.85844771160E+00  0.16498246819E+01  0.76346279902E+02  0.76368928949E+02  0.00000000000E+00 0.  1.
         14    1    6    6    0    0 -0.50668690919E+02  0.91382041594E+02  0.10286732300E+03  0.14662769147E+03  0.00000000000E+00 0. -1.
         -5    1    3    3    0  503 -0.38119105799E+01  0.39458660471E+02 -0.50823714020E+02  0.64627056681E+02  0.47000000000E+01 0.  1.
         13    1    4    4    0    0  0.23237206595E+02 -0.40677942735E+01 -0.62545999653E+02  0.66846965475E+02  0.00000000000E+00 0. -1.
        -14    1    4    4    0    0 -0.29095662418E+02 -0.12999847539E+03 -0.31082329870E+03  0.33816753864E+03  0.00000000000E+00 0.  1.
<mgrwt>
<rscale>  2 0.20049866E+03</rscale>
<asrwt>0</asrwt>
<pdfrwt beam="1">  1       21 0.44090764E-01 0.20155268E+03</pdfrwt>
<pdfrwt beam="2">  1       21 0.74434618E-01 0.20155268E+03</pdfrwt>
<totfact> 0.79387562E+03</totfact>
</mgrwt>
</event>
<event>
12    1  0.1013215E-001  0.1879995E+03  0.7546771E-02  0.1160489E+00
         21   -1    0    0  503  502  0.00000000000E+00  0.00000000000E+00  0.18193950665E+03  0.18193950665E+03  0.00000000000E+00 0.  1.
         21   -1    0    0  501  503 -0.00000000000E+00 -0.00000000000E+00 -0.21409850651E+03  0.21409850651E+03  0.00000000000E+00 0. -1.
          6    2    1    2  501    0  0.29805680544E+02 -0.64151845932E+02 -0.77744233862E+02  0.20259082778E+03  0.17319076093E+03 0.  0.
         24    2    3    3    0    0  0.45746783934E+02 -0.62393966043E+02  0.11268966379E+02  0.11202235238E+03  0.80226196411E+02 0.  0.
         -6    2    1    2    0  502 -0.29805680544E+02  0.64151845932E+02  0.45585233999E+02  0.19344718538E+03  0.17418370200E+03 0.  0.
        -24    2    5    5    0    0 -0.30278799999E+02  0.31976290775E+02  0.96525250048E+02  0.13301155493E+03  0.80222571312E+02 0.  0.
          5    1    3    3  501    0 -0.15941103390E+02 -0.17578798885E+01 -0.89013200241E+02  0.90568475399E+02  0.47000000000E+01 0. -1.
        -11    1    4    4    0    0 -0.96368560065E+01 -0.33101249557E+02  0.30971531114E+02  0.46344335743E+02  0.00000000000E+00 0.  1.
         12    1    4    4    0    0  0.55383639940E+02 -0.29292716486E+02 -0.19702564735E+02  0.65678016636E+02  0.00000000000E+00 0. -1.
         -5    1    5    5    0  502  0.47311945541E+00  0.32175555157E+02 -0.50940016049E+02  0.60435630441E+02  0.47000000000E+01 0.  1.
         11    1    6    6    0    0  0.20078209325E+02 -0.34272453629E+01  0.23512680196E+01  0.20503876750E+02  0.00000000000E+00 0. -1.
        -12    1    6    6    0    0 -0.50357009325E+02  0.35403536138E+02  0.94173982029E+02  0.11250767818E+03  0.00000000000E+00 0.  1.
<mgrwt>
<rscale>  2 0.18776915E+03</rscale>
<asrwt>0</asrwt>
<pdfrwt beam="1">  1       21 0.27990693E-01 0.18799947E+03</pdfrwt>
<pdfrwt beam="2">  1       21 0.32938232E-01 0.18799947E+03</pdfrwt>
<totfact> 0.10836160E+05</totfact>
</mgrwt>
</event>
<event>
12    1  0.1013215E-001  0.2237770E+03  0.7546771E-02  0.1131553E+00
         21   -1    0    0  501  502  0.00000000000E+00  0.00000000000E+00  0.15729983629E+03  0.15729983629E+03  0.00000000000E+00 0. -1.
         21   -1    0    0  502  503 -0.00000000000E+00 -0.00000000000E+00 -0.74708193614E+03  0.74708193614E+03  0.00000000000E+00 0.  1.
         -6    2    1    2    0  503  0.11266820604E+03 -0.84556486110E+02 -0.63954130619E+03  0.67756123978E+03  0.17387417095E+03 0.  0.
        -24    2    3    3    0    0  0.18840925880E+02 -0.86020988316E+02 -0.25428667728E+03  0.28101499737E+03  0.80951365553E+02 0.  0.
          6    2    1    2  501    0 -0.11266820604E+03  0.84556486110E+02  0.49759206341E+02  0.22682053265E+03  0.17066824959E+03 0.  0.
         24    2    5    5    0    0 -0.10098060831E+03  0.60678766675E+02 -0.27206899608E+02  0.14525695689E+03  0.80500758741E+02 0.  0.
          5    1    5    5  501    0 -0.11687597733E+02  0.23877719434E+02  0.76966105949E+02  0.81563575763E+02  0.47000000000E+01 0. -1.
        -11    1    6    6    0    0  0.11233699080E+02  0.19691410872E+02 -0.90927870628E+01  0.24425937724E+02  0.00000000000E+00 0.  1.
         12    1    6    6    0    0 -0.11221430739E+03  0.40987355803E+02 -0.18114112545E+02  0.12083101916E+03  0.00000000000E+00 0. -1.
         -5    1    3    3    0  503  0.93827280161E+02  0.14645022060E+01 -0.38525462891E+03  0.39654624241E+03  0.47000000000E+01 0.  1.
         13    1    4    4    0    0  0.31143589769E+02 -0.87502371080E+02 -0.25179013413E+03  0.26837447676E+03  0.00000000000E+00 0. -1.
        -14    1    4    4    0    0 -0.12302663889E+02  0.14813827641E+01 -0.24965431497E+01  0.12640520613E+02  0.00000000000E+00 0.  1.
<mgrwt>
<rscale>  2 0.22315397E+03</rscale>
<asrwt>0</asrwt>
<pdfrwt beam="1">  1       21 0.24199974E-01 0.22377701E+03</pdfrwt>
<pdfrwt beam="2">  1       21 0.11493568E+00 0.22377701E+03</pdfrwt>
<totfact> 0.92576688E+03</totfact>
</mgrwt>
</event>
<event>
12    1  0.1013215E-001  0.1922466E+03  0.7546771E-02  0.1156526E+00
         21   -1    0    0  501  502  0.00000000000E+00  0.00000000000E+00  0.60317251953E+03  0.60317251953E+03  0.00000000000E+00 0. -1.
         21   -1    0    0  502  503 -0.00000000000E+00 -0.00000000000E+00 -0.82707798403E+02  0.82707798403E+02  0.00000000000E+00 0. -1.
         -6    2    1    2    0  503  0.72890289114E+02  0.39857086607E+02  0.85381405111E+02  0.21035380684E+03  0.17337000350E+03 0.  0.
        -24    2    3    3    0    0  0.11301377494E+03  0.39447844466E+02  0.90816970338E+02  0.16958988942E+03  0.78643262488E+02 0.  0.
          6    2    1    2  501    0 -0.72890289114E+02 -0.39857086607E+02  0.43508331602E+03  0.47552651110E+03  0.17299245439E+03 0.  0.
         24    2    5    5    0    0  0.13068380440E+02 -0.26911398762E+02  0.11871482568E+03  0.14739910385E+03  0.82087027169E+02 0.  0.
          5    1    5    5  501    0 -0.85958669554E+02 -0.12945687845E+02  0.31636849034E+03  0.32812740725E+03  0.47000000000E+01 0. -1.
        -13    1    6    6    0    0  0.14856514946E+02  0.19691877046E+02  0.59563992092E+01  0.25376460539E+02  0.00000000000E+00 0.  1.
         14    1    6    6    0    0 -0.17881345060E+01 -0.46603275808E+02  0.11275842647E+03  0.12202264331E+03  0.00000000000E+00 0. -1.
         -5    1    3    3    0  503 -0.40123485824E+02  0.40924214141E+00 -0.54355652264E+01  0.40763917417E+02  0.47000000000E+01 0.  1.
         11    1    4    4    0    0  0.34818158194E+02  0.23369669138E+02 -0.78597955889E+01  0.42664059375E+02  0.00000000000E+00 0. -1.
        -12    1    4    4    0    0  0.78195616744E+02  0.16078175327E+02  0.98676765927E+02  0.12692583005E+03  0.00000000000E+00 0.  1.
<mgrwt>
<rscale>  2 0.19216140E+03</rscale>
<asrwt>0</asrwt>
<pdfrwt beam="1">  1       21 0.92795769E-01 0.19224656E+03</pdfrwt>
<pdfrwt beam="2">  1       21 0.12724277E-01 0.19224656E+03</pdfrwt>
<totfact> 0.51708681E+04</totfact>
</mgrwt>
</event>
<event>
12    1  0.1013215E-001  0.2120231E+03  0.7546771E-02  0.1140163E+00
         21   -1    0    0  503  502  0.00000000000E+00  0.00000000000E+00  0.41577928831E+02  0.41577928831E+02  0.00000000000E+00 0. -1.
         21   -1    0    0  501  503 -0.00000000000E+00 -0.00000000000E+00 -0.10801401151E+04  0.10801401151E+04  0.00000000000E+00 0.  1.
          6    2    1    2  501    0  0.14295943629E+01 -0.11885997425E+03 -0.55160333629E+03  0.59060344430E+03  0.17440312667E+03 0.  0.
         24    2    3    3    0    0 -0.20073374609E+02 -0.11864233847E+03 -0.54996525635E+03  0.56853087431E+03  0.79288252654E+02 0.  0.
         -6    2    1    2    0  502 -0.14295943629E+01  0.11885997425E+03 -0.48695884995E+03  0.53111459960E+03  0.17556781924E+03 0.  0.
        -24    2    5    5    0    0  0.42567798391E+02  0.12024292263E+03 -0.26305246088E+03  0.30287384036E+03  0.79155467894E+02 0.  0.
          5    1    3    3  501    0  0.21502968971E+02 -0.21763577984E+00 -0.16380799423E+01  0.22072569987E+02  0.47000000000E+01 0. -1.
        -13    1    4    4    0    0  0.29938364743E+02 -0.32922653238E+02 -0.18937794974E+03  0.19453589547E+03  0.00000000000E+00 0.  1.
         14    1    4    4    0    0 -0.50011739351E+02 -0.85719685230E+02 -0.36058730661E+03  0.37399497884E+03  0.00000000000E+00 0. -1.
         -5    1    5    5    0  502 -0.43997392753E+02 -0.13829483786E+01 -0.22390638906E+03  0.22824075924E+03  0.47000000000E+01 0.  1.
         13    1    6    6    0    0  0.32430041417E+02  0.37633892950E+01 -0.47223188157E+02  0.57409931066E+02  0.00000000000E+00 0. -1.
        -14    1    6    6    0    0  0.10137756974E+02  0.11647953333E+03 -0.21582927273E+03  0.24546390930E+03  0.00000000000E+00 0.  1.
<mgrwt>
<rscale>  2 0.21178184E+03</rscale>
<asrwt>0</asrwt>
<pdfrwt beam="1">  1       21 0.63966037E-02 0.21202310E+03</pdfrwt>
<pdfrwt beam="2">  1       21 0.16617542E+00 0.21202310E+03</pdfrwt>
<totfact> 0.39654470E+04</totfact>
</mgrwt>
</event>
<event>
12    1  0.1013215E-001  0.2907043E+03  0.7546771E-02  0.1090111E+00
         21   -1    0    0  501  502  0.00000000000E+00  0.00000000000E+00  0.23536272622E+04  0.23536272622E+04  0.00000000000E+00 0. -1.
         21   -1    0    0  502  503 -0.00000000000E+00 -0.00000000000E+00 -0.11941809980E+03  0.11941809980E+03  0.00000000000E+00 0.  1.
         -6    2    1    2    0  503  0.17952558011E+03 -0.14929964419E+03  0.81726742920E+02  0.30102105863E+03  0.17150684988E+03 0.  0.
        -24    2    3    3    0    0  0.15273771909E+03 -0.81481013260E+02  0.14368036942E+01  0.19245992129E+03  0.84087992844E+02 0.  0.
          6    2    1    2  501    0 -0.17952558011E+03  0.14929964419E+03  0.21524824195E+04  0.21720243034E+04  0.17317387394E+03 0.  0.
         24    2    5    5    0    0 -0.19785997040E+03  0.11313043322E+03  0.16883233864E+04  0.17060735982E+04  0.91127397140E+02 0.  0.
          5    1    5    5  501    0  0.18334390289E+02  0.36169210975E+02  0.46415903315E+03  0.46595070527E+03  0.47000000000E+01 0. -1.
        -13    1    6    6    0    0 -0.38624109110E+02 -0.11487189706E+02  0.19475056919E+03  0.19887574395E+03  0.00000000000E+00 0.  1.
         14    1    6    6    0    0 -0.15923586129E+03  0.12461762292E+03  0.14935728172E+04  0.15071978542E+04  0.00000000000E+00 0. -1.
         -5    1    3    3    0  503  0.26787861017E+02 -0.67818630933E+02  0.80289939226E+02  0.10856113734E+03  0.47000000000E+01 0.  1.
         11    1    4    4    0    0  0.57910193075E+02 -0.13601116123E+02  0.37587824351E+02  0.70366365269E+02  0.00000000000E+00 0. -1.
        -12    1    4    4    0    0  0.94827526020E+02 -0.67879897137E+02 -0.36151020657E+02  0.12209355602E+03  0.00000000000E+00 0.  1.
<mgrwt>
<rscale>  2 0.29045652E+03</rscale>
<asrwt>0</asrwt>
<pdfrwt beam="1">  1       21 0.36209647E+00 0.29070433E+03</pdfrwt>
<pdfrwt beam="2">  1       21 0.18372017E-01 0.29070433E+03</pdfrwt>
<totfact> 0.35314436E+02</totfact>
</mgrwt>
</event>
<event>
12    1  0.1013215E-001  0.2717386E+03  0.7546771E-02  0.1100323E+00
         21   -1    0    0  501  502  0.00000000000E+00  0.00000000000E+00  0.15877714005E+03  0.15877714005E+03  0.00000000000E+00 0. -1.
         21   -1    0    0  502  503 -0.00000000000E+00 -0.00000000000E+00 -0.82783704315E+03  0.82783704315E+03  0.00000000000E+00 0.  1.
         -6    2    1    2    0  503 -0.20044853456E+03  0.59969913141E+02 -0.66135928938E+03  0.71500907778E+03  0.17339511577E+03 0.  0.
        -24    2    3    3    0    0 -0.69692972404E+02  0.49927002379E+02 -0.17175297579E+03  0.20812219750E+03  0.80411121322E+02 0.  0.
          6    2    1    2  501    0  0.20044853456E+03 -0.59969913141E+02 -0.77006137206E+01  0.27160510541E+03  0.17301453219E+03 0.  0.
         24    2    5    5    0    0  0.10607447928E+03 -0.84590201138E+02 -0.46748878735E+02  0.16644105314E+03  0.84320040468E+02 0.  0.
          5    1    5    5  501    0  0.94374055273E+02  0.24620287996E+02  0.39048265015E+02  0.10516405227E+03  0.47000000000E+01 0. -1.
        -11    1    6    6    0    0  0.67505795610E+02 -0.36018871794E+01 -0.58508247434E+01  0.67854536932E+02  0.00000000000E+00 0.  1.
         12    1    6    6    0    0  0.38568683674E+02 -0.80988313958E+02 -0.40898053992E+02  0.98586516210E+02  0.00000000000E+00 0. -1.
         -5    1    3    3    0  503 -0.13075556215E+03  0.10042910763E+02 -0.48960631359E+03  0.50688688028E+03  0.47000000000E+01 0.  1.
         13    1    4    4    0    0 -0.37814690699E+02  0.70216783242E+02 -0.11610984151E+03  0.14086107616E+03  0.00000000000E+00 0. -1.
        -14    1    4    4    0    0 -0.31878281704E+02 -0.20289780864E+02 -0.55643134278E+02  0.67261121342E+02  0.00000000000E+00 0.  1.
<mgrwt>
<rscale>  2 0.27167792E+03</rscale>
<asrwt>0</asrwt>
<pdfrwt beam="1">  1       21 0.24427251E-01 0.27173861E+03</pdfrwt>
<pdfrwt beam="2">  1       21 0.12735955E+00 0.27173861E+03</pdfrwt>
<totfact> 0.68348864E+03</totfact>
</mgrwt>
</event>
<event>
12    1  0.1013215E-001  0.1862937E+03  0.7546771E-02  0.1162651E+00
         21   -1    0    0  503  502  0.00000000000E+00  0.00000000000E+00  0.70339364009E+03  0.70339364009E+03  0.00000000000E+00 0. -1.
         21   -1    0    0  501  503 -0.00000000000E+00 -0.00000000000E+00 -0.67939054282E+02  0.67939054282E+02  0.00000000000E+00 0. -1.
          6    2    1    2  501    0 -0.11151159531E+01 -0.60173990942E+02  0.10896974821E+03  0.21286011574E+03  0.17266403847E+03 0.  0.
         24    2    3    3    0    0 -0.51207105012E+02 -0.50215826997E+01  0.98659404175E+02  0.13749839670E+03  0.80775907097E+02 0.  0.
         -6    2    1    2    0  502  0.11151159531E+01  0.60173990942E+02  0.52648483760E+03  0.55847257863E+03  0.17630423758E+03 0.  0.
        -24    2    5    5    0    0  0.47559393175E+02  0.57178742570E+02  0.48001389588E+03  0.49253563281E+03  0.81527325904E+02 0.  0.
          5    1    3    3  501    0  0.50091989058E+02 -0.55152408242E+02  0.10310344034E+02  0.75361719041E+02  0.47000000000E+01 0. -1.
        -11    1    4    4    0    0 -0.45285572060E+02 -0.47207190224E+01  0.11308227843E+03  0.12190434742E+03  0.00000000000E+00 0.  1.
         12    1    4    4    0    0 -0.59215329518E+01 -0.30086367730E+00 -0.14422874252E+02  0.15594049286E+02  0.00000000000E+00 0. -1.
         -5    1    5    5    0  502 -0.46444277222E+02  0.29952483724E+01  0.46470941719E+02  0.65936945817E+02  0.47000000000E+01 0.  1.
         13    1    6    6    0    0 -0.15506436448E+02  0.31788521652E+02  0.91112480648E+02  0.97736604248E+02  0.00000000000E+00 0. -1.
        -14    1    6    6    0    0  0.63065829623E+02  0.25390220918E+02  0.38890141523E+03  0.39479902856E+03  0.00000000000E+00 0.  1.
<mgrwt>
<rscale>  2 0.18542735E+03</rscale>
<asrwt>0</asrwt>
<pdfrwt beam="1">  1       21 0.10821440E+00 0.18629368E+03</pdfrwt>
<pdfrwt beam="2">  1       21 0.10452163E-01 0.18629368E+03</pdfrwt>
<totfact> 0.51147734E+04</totfact>
</mgrwt>
</event>
<event>
12    1  0.1013215E-001  0.2256738E+03  0.7546771E-02  0.1129742E+00
         21   -1    0    0  503  502  0.00000000000E+00  0.00000000000E+00  0.10643639344E+03  0.10643639344E+03  0.00000000000E+00 0.  1.
         21   -1    0    0  501  503 -0.00000000000E+00 -0.00000000000E+00 -0.13527203997E+04  0.13527203997E+04  0.00000000000E+00 0.  1.
          6    2    1    2  501    0 -0.12802075719E+03  0.69629232731E+02 -0.12096834179E+04  0.12305342939E+04  0.17217181066E+03 0.  0.
         24    2    3    3    0    0 -0.64898399447E+02  0.50511711437E+02 -0.10679719811E+04  0.10741561208E+04  0.80523190771E+02 0.  0.
         -6    2    1    2    0  502  0.12802075719E+03 -0.69629232731E+02 -0.36600588358E+02  0.22862249932E+03  0.17231105538E+03 0.  0.
        -24    2    5    5    0    0  0.18150046337E+02 -0.74921993540E+02  0.27858385369E+01  0.11169103630E+03  0.80773741994E+02 0.  0.
          5    1    3    3  501    0 -0.63122357746E+02  0.19117521294E+02 -0.14171143684E+03  0.15637817303E+03  0.47000000000E+01 0. -1.
        -13    1    4    4    0    0 -0.66460126169E+02  0.11883488210E+02 -0.85819542033E+03  0.86084699288E+03  0.00000000000E+00 0.  1.
         14    1    4    4    0    0  0.15617267227E+01  0.38628223227E+02 -0.20977656077E+03  0.21330912795E+03  0.00000000000E+00 0. -1.
         -5    1    5    5    0  502  0.10987071086E+03  0.52927608091E+01 -0.39386426895E+02  0.11693146302E+03  0.47000000000E+01 0.  1.
         11    1    6    6    0    0  0.47453839383E+02 -0.49064808115E+02 -0.13101340435E+02  0.69504441503E+02  0.00000000000E+00 0. -1.
        -12    1    6    6    0    0 -0.29303793046E+02 -0.25857185426E+02  0.15887178972E+02  0.42186594799E+02  0.00000000000E+00 0.  1.
<mgrwt>
<rscale>  2 0.22564718E+03</rscale>
<asrwt>0</asrwt>
<pdfrwt beam="1">  1       21 0.16374832E-01 0.22567376E+03</pdfrwt>
<pdfrwt beam="2">  1       21 0.20811081E+00 0.22567376E+03</pdfrwt>
<totfact> 0.38659627E+03</totfact>
</mgrwt>
</event>
<event>
12    1  0.1013215E-001  0.1864248E+03  0.7546771E-02  0.1164196E+00
         21   -1    0    0  503  502  0.00000000000E+00  0.00000000000E+00  0.12538269776E+03  0.12538269776E+03  0.00000000000E+00 0.  1.
         21   -1    0    0  501  503 -0.00000000000E+00 -0.00000000000E+00 -0.10102846995E+04  0.10102846995E+04  0.00000000000E+00 0.  1.
          6    2    1    2  501    0  0.32865904302E+02 -0.49805200260E+02 -0.92781100207E+03  0.94436814529E+03  0.16564182027E+03 0.  0.
         24    2    3    3    0    0  0.71324211192E+02 -0.36390830414E+01 -0.46298626503E+03  0.47565237009E+03  0.82392411905E+02 0.  0.
         -6    2    1    2    0  502 -0.32865904302E+02  0.49805200260E+02  0.42909000317E+02  0.19129925200E+03  0.17661680517E+03 0.  0.
        -24    2    5    5    0    0 -0.61359260515E+02 -0.60081513654E+01  0.70795938924E+02  0.12254772174E+03  0.78770695068E+02 0.  0.
          5    1    3    3  501    0 -0.38458306890E+02 -0.46166117218E+02 -0.46482473704E+03  0.46871577519E+03  0.47000000000E+01 0. -1.
        -13    1    4    4    0    0  0.22848527733E+02 -0.31257313213E+02 -0.31721808428E+03  0.31957219504E+03  0.00000000000E+00 0.  1.
         14    1    4    4    0    0  0.48475683460E+02  0.27618230171E+02 -0.14576818075E+03  0.15608017505E+03  0.00000000000E+00 0. -1.
         -5    1    5    5    0  502  0.28493356213E+02  0.55813351625E+02 -0.27886938607E+02  0.68751530257E+02  0.47000000000E+01 0.  1.
         11    1    6    6    0    0  0.13112168906E+02 -0.11123368923E+02  0.36606385336E+02  0.40443612067E+02  0.00000000000E+00 0. -1.
        -12    1    6    6    0    0 -0.74471429420E+02  0.51152175574E+01  0.34189553587E+02  0.82104109672E+02  0.00000000000E+00 0.  1.
<mgrwt>
<rscale>  2 0.18377839E+03</rscale>
<asrwt>0</asrwt>
<pdfrwt beam="1">  1       21 0.19289646E-01 0.18642484E+03</pdfrwt>
<pdfrwt beam="2">  1       21 0.15542841E+00 0.18642484E+03</pdfrwt>
<totfact> 0.67525804E+03</totfact>
</mgrwt>
</event>
<event>
12    1  0.1013215E-001  0.1849951E+03  0.7546771E-02  0.1163124E+00
         21   -1    0    0  501  502  0.00000000000E+00  0.00000000000E+00  0.50768419945E+02  0.50768419945E+02  0.00000000000E+00 0.  1.
         21   -1    0    0  502  503 -0.00000000000E+00 -0.00000000000E+00 -0.12602193971E+04  0.12602193971E+04  0.00000000000E+00 0.  1.
         -6    2    1    2    0  503  0.52963209521E+02  0.33170587021E+02 -0.10519087015E+04  0.10680006497E+04  0.17380472413E+03 0.  0.
        -24    2    3    3    0    0 -0.32506274385E+02  0.12542403102E+02 -0.69247036008E+03  0.69793502591E+03  0.79900757526E+02 0.  0.
          6    2    1    2  501    0 -0.52963209521E+02 -0.33170587021E+02 -0.15754227566E+03  0.24298716732E+03  0.17412008918E+03 0.  0.
         24    2    5    5    0    0 -0.30475682268E+02 -0.87939412275E+02 -0.85943850426E+02  0.14996169985E+03  0.80249975420E+02 0.  0.
          5    1    5    5  501    0 -0.22487527253E+02  0.54768825254E+02 -0.71598425237E+02  0.93025467470E+02  0.47000000000E+01 0. -1.
        -13    1    6    6    0    0  0.18850900888E+02 -0.43520783255E+02 -0.64789261711E+02  0.80293607918E+02  0.00000000000E+00 0.  1.
         14    1    6    6    0    0 -0.49326583155E+02 -0.44418629020E+02 -0.21154588715E+02  0.69668091932E+02  0.00000000000E+00 0. -1.
         -5    1    3    3    0  503  0.85469483906E+02  0.20628183918E+02 -0.35943834138E+03  0.37006562378E+03  0.47000000000E+01 0.  1.
         13    1    4    4    0    0 -0.22186807098E+02 -0.21075048591E+02 -0.10383698398E+03  0.10825216545E+03  0.00000000000E+00 0. -1.
        -14    1    4    4    0    0 -0.10319467287E+02  0.33617451693E+02 -0.58863337610E+03  0.58968286046E+03  0.00000000000E+00 0.  1.
<mgrwt>
<rscale>  2 0.18492088E+03</rscale>
<asrwt>0</asrwt>
<pdfrwt beam="1">  1       21 0.78105272E-02 0.18499512E+03</pdfrwt>
<pdfrwt beam="2">  1       21 0.19387988E+00 0.18499512E+03</pdfrwt>
<totfact> 0.18510809E+04</totfact>
</mgrwt>
</event>
<event>
11    1  0.1013215E-001  0.4133292E+03  0.7546771E-02  0.1039563E+00
         21   -1    0    0  501  502  0.00000000000E+00  0.00000000000E+00  0.61685307383E+03  0.61685307383E+03  0.00000000000E+00 0.  1.
         21   -1    0    0  502  503 -0.00000000000E+00 -0.00000000000E+00 -0.79894830359E+03  0.79894830359E+03  0.00000000000E+00 0.  1.
         -6    2    1    2    0  503  0.32736309181E+03 -0.17532219184E+03 -0.66470958574E+03  0.78273870420E+03  0.18148438185E+03 0.  0.
        -24    2    3    3    0    0  0.24064693020E+03 -0.19877142647E+03 -0.49640126232E+03  0.59190018340E+03  0.80688220232E+02 0.  0.
          6    2    1    2  501    0 -0.32736309181E+03  0.17532219184E+03  0.48261435598E+03  0.63306267321E+03  0.17305278615E+03 0.  0.
          5    1    5    5  501    0 -0.29001277064E+03  0.19080714413E+03  0.46964677549E+03  0.58404191384E+03  0.47000000000E+01 0. -1.
        -13    1    5    5    0    0 -0.15607830769E+02  0.52066213796E+01  0.89742043856E+01  0.18741654992E+02  0.00000000000E+00 0.  1.
         14    1    5    5    0    0 -0.21742490395E+02 -0.20691573673E+02  0.39933760983E+01  0.30279104384E+02  0.00000000000E+00 0. -1.
         -5    1    3    3    0  503  0.86716161609E+02  0.23449234634E+02 -0.16830832342E+03  0.19083852080E+03  0.47000000000E+01 0.  1.
         13    1    4    4    0    0  0.20594521219E+03 -0.19505051460E+03 -0.46637575776E+03  0.54586122879E+03  0.00000000000E+00 0. -1.
        -14    1    4    4    0    0  0.34701718005E+02 -0.37209118736E+01 -0.30025504555E+02  0.46038954609E+02  0.00000000000E+00 0.  1.
<mgrwt>
<rscale>  2 0.41241819E+03</rscale>
<asrwt>0</asrwt>
<pdfrwt beam="1">  1       21 0.94900473E-01 0.41332922E+03</pdfrwt>
<pdfrwt beam="2">  1       21 0.12291512E+00 0.41332922E+03</pdfrwt>
<totfact> 0.39084478E+02</totfact>
</mgrwt>
</event>
<event>
12    1  0.1013215E-001  0.2073846E+03  0.7546771E-02  0.1144418E+00
         21   -1    0    0  503  502  0.00000000000E+00  0.00000000000E+00  0.12441676590E+04  0.12441676590E+04  0.00000000000E+00 0. -1.
         21   -1    0    0  501  503 -0.00000000000E+00 -0.00000000000E+00 -0.37870559686E+02  0.37870559686E+02  0.00000000000E+00 0. -1.
          6    2    1    2  501    0 -0.50150564487E+02  0.10614623222E+03  0.81449330144E+03  0.84048064562E+03  0.17095694145E+03 0.  0.
         24    2    3    3    0    0  0.31479272961E+02  0.76608201082E+02  0.35937448997E+03  0.37713288399E+03  0.78863344148E+02 0.  0.
         -6    2    1    2    0  502  0.50150564487E+02 -0.10614623222E+03  0.39180379787E+03  0.44155757306E+03  0.16637539653E+03 0.  0.
        -24    2    5    5    0    0  0.11466852389E+02 -0.61221597075E+02  0.97606396356E+02  0.14140952046E+03  0.81179253600E+02 0.  0.
          5    1    3    3  501    0 -0.81629837447E+02  0.29538031142E+02  0.45511881148E+03  0.46334776163E+03  0.47000000000E+01 0. -1.
        -11    1    4    4    0    0  0.26422703553E+02 -0.61285777116E+01  0.50431367393E+02  0.57262915966E+02  0.00000000000E+00 0.  1.
         12    1    4    4    0    0  0.50565694074E+01  0.82736778794E+02  0.30894312257E+03  0.31986996802E+03  0.00000000000E+00 0. -1.
         -5    1    5    5    0  502  0.38683712097E+02 -0.44924635149E+02  0.29419740151E+03  0.30014805260E+03  0.47000000000E+01 0.  1.
         11    1    6    6    0    0  0.46043690671E+02 -0.27262349109E+02  0.57017048514E+02  0.78193356181E+02  0.00000000000E+00 0. -1.
        -12    1    6    6    0    0 -0.34576838282E+02 -0.33959247966E+02  0.40589347842E+02  0.63216164279E+02  0.00000000000E+00 0.  1.
<mgrwt>
<rscale>  2 0.20643809E+03</rscale>
<asrwt>0</asrwt>
<pdfrwt beam="1">  1       21 0.19141038E+00 0.20738461E+03</pdfrwt>
<pdfrwt beam="2">  1       21 0.58262409E-02 0.20738461E+03</pdfrwt>
<totfact> 0.31338448E+04</totfact>
</mgrwt>
</event>
<event>
12    1  0.1013215E-001  0.2436630E+03  0.7546771E-02  0.1117380E+00
         21   -1    0    0  503  502  0.00000000000E+00  0.00000000000E+00  0.99575168374E+02  0.99575168374E+02  0.00000000000E+00 0.  1.
         21   -1    0    0  501  503 -0.00000000000E+00 -0.00000000000E+00 -0.70000195766E+03  0.70000195766E+03  0.00000000000E+00 0. -1.
          6    2    1    2  501    0 -0.17135792877E+03  0.50351409451E+01 -0.45415961813E+03  0.51538400405E+03  0.17312082630E+03 0.  0.
         24    2    3    3    0    0 -0.12464554576E+03  0.75481055260E+01 -0.16214952646E+03  0.21961323918E+03  0.79649356040E+02 0.  0.
         -6    2    1    2    0  502  0.17135792877E+03 -0.50351409451E+01 -0.14626717116E+03  0.28419312198E+03  0.17315528530E+03 0.  0.
        -24    2    5    5    0    0  0.85281939673E+02 -0.50852933367E+02 -0.13168057743E+03  0.18548544894E+03  0.84888439895E+02 0.  0.
          5    1    3    3  501    0 -0.46712383008E+02 -0.25129645809E+01 -0.29201009167E+03  0.29577076487E+03  0.47000000000E+01 0. -1.
        -13    1    4    4    0    0 -0.11994799008E+01 -0.14340695855E+02 -0.47822593295E+02  0.49940912478E+02  0.00000000000E+00 0.  1.
         14    1    4    4    0    0 -0.12344606586E+03  0.21888801381E+02 -0.11432693316E+03  0.16967232670E+03  0.00000000000E+00 0. -1.
         -5    1    5    5    0  502  0.86075989095E+02  0.45817792421E+02 -0.14586593724E+02  0.98707673042E+02  0.47000000000E+01 0.  1.
         11    1    6    6    0    0  0.86438554697E+02 -0.60373363152E+02 -0.78504853016E+02  0.13145181118E+03  0.00000000000E+00 0. -1.
        -12    1    6    6    0    0 -0.11566150239E+01  0.95204297852E+01 -0.53175724417E+02  0.54033637753E+02  0.00000000000E+00 0.  1.
<mgrwt>
<rscale>  2 0.24365685E+03</rscale>
<asrwt>0</asrwt>
<pdfrwt beam="1">  1       21 0.15319256E-01 0.24366297E+03</pdfrwt>
<pdfrwt beam="2">  1       21 0.10769261E+00 0.24366297E+03</pdfrwt>
<totfact> 0.25229751E+04</totfact>
</mgrwt>
</event>
<event>
12    1  0.1013215E-001  0.2427841E+03  0.7546771E-02  0.1118132E+00
         21   -1    0    0  501  502  0.00000000000E+00  0.00000000000E+00  0.84606770593E+03  0.84606770593E+03  0.00000000000E+00 0.  1.
         21   -1    0    0  502  503 -0.00000000000E+00 -0.00000000000E+00 -0.12231468102E+03  0.12231468102E+03  0.00000000000E+00 0.  1.
         -6    2    1    2    0  503  0.79012230299E+02 -0.14927998019E+03  0.42811046835E+02  0.24545355490E+03  0.17287919730E+03 0.  0.
        -24    2    3    3    0    0  0.11447524544E+03 -0.95496708327E+02  0.60171499455E+02  0.17856752429E+03  0.77727397128E+02 0.  0.
          6    2    1    2  501    0 -0.79012230299E+02  0.14927998019E+03  0.68094197808E+03  0.72292883205E+03  0.17440376624E+03 0.  0.
         24    2    5    5    0    0 -0.44548021583E+02  0.72336279113E+02  0.17510685545E+03  0.21009418414E+03  0.79120742411E+02 0.  0.
          5    1    5    5  501    0 -0.34464208716E+02  0.76943701080E+02  0.50583512262E+03  0.51283464791E+03  0.47000000000E+01 0. -1.
        -13    1    6    6    0    0  0.86781859056E+01  0.26543724653E+02  0.11285119049E+03  0.11625519955E+03  0.00000000000E+00 0.  1.
         14    1    6    6    0    0 -0.53226207489E+02  0.45792554460E+02  0.62255664966E+02  0.93838984585E+02  0.00000000000E+00 0. -1.
         -5    1    3    3    0  503 -0.35463015144E+02 -0.53783271866E+02 -0.17360452619E+02  0.66886030610E+02  0.47000000000E+01 0.  1.
         13    1    4    4    0    0  0.77958482501E+02 -0.46133592772E+02 -0.27811720005E+01  0.90628738784E+02  0.00000000000E+00 0. -1.
        -14    1    4    4    0    0  0.36516762942E+02 -0.49363115555E+02  0.62952671455E+02  0.87938785507E+02  0.00000000000E+00 0.  1.
<mgrwt>
<rscale>  2 0.24251043E+03</rscale>
<asrwt>0</asrwt>
<pdfrwt beam="1">  1       21 0.13016426E+00 0.24278410E+03</pdfrwt>
<pdfrwt beam="2">  1       21 0.18817644E-01 0.24278410E+03</pdfrwt>
<totfact> 0.10776332E+04</totfact>
</mgrwt>
</event>
<event>
12    1  0.1013215E-001  0.2072092E+03  0.7546771E-02  0.1144032E+00
         21   -1    0    0  501  502  0.00000000000E+00  0.00000000000E+00  0.70196167475E+03  0.70196167475E+03  0.00000000000E+00 0. -1.
         21   -1    0    0  502  503 -0.00000000000E+00 -0.00000000000E+00 -0.16416312642E+03  0.16416312642E+03  0.00000000000E+00 0. -1.
         -6    2    1    2    0  503  0.26205709853E+02  0.10819251112E+03 -0.74418031960E+02  0.22016743670E+03  0.17476640984E+03 0.  0.
        -24    2    3    3    0    0  0.44776943639E+02  0.25971556534E+01 -0.67905528686E+01  0.93317778640E+02  0.81549839380E+02 0.  0.
          6    2    1    2  501    0 -0.26205709853E+02 -0.10819251112E+03  0.61221658029E+03  0.64595736447E+03  0.17337651756E+03 0.  0.
         24    2    5    5    0    0 -0.12586798041E+02 -0.13710162077E+03  0.57428218092E+03  0.59613447781E+03  0.81369591437E+02 0.  0.
          5    1    5    5  501    0 -0.13618911812E+02  0.28909109648E+02  0.37934399371E+02  0.49822886660E+02  0.47000000000E+01 0. -1.
        -13    1    6    6    0    0 -0.38952709519E+02 -0.43247853503E+02  0.15242412374E+03  0.16315883031E+03  0.00000000000E+00 0.  1.
         14    1    6    6    0    0  0.26365911478E+02 -0.93853767268E+02  0.42185805718E+03  0.43297564750E+03  0.00000000000E+00 0. -1.
         -5    1    3    3    0  503 -0.18571233786E+02  0.10559535547E+03 -0.67627479092E+02  0.12684965806E+03  0.47000000000E+01 0.  1.
         11    1    4    4    0    0  0.36868656499E+02 -0.89615661462E+01 -0.41295037125E+02  0.56079297348E+02  0.00000000000E+00 0. -1.
        -12    1    4    4    0    0  0.79082871397E+01  0.11558721800E+02  0.34504484257E+02  0.37238481292E+02  0.00000000000E+00 0.  1.
<mgrwt>
<rscale>  2 0.20691586E+03</rscale>
<asrwt>0</asrwt>
<pdfrwt beam="1">  1       21 0.10799410E+00 0.20720921E+03</pdfrwt>
<pdfrwt beam="2">  1       21 0.25255866E-01 0.20720921E+03</pdfrwt>
<totfact> 0.10039402E+04</totfact>
</mgrwt>
</event>
<event>
12    1  0.1013215E-001  0.2191304E+03  0.7546771E-02  0.1134723E+00
         21   -1    0    0  501  502  0.00000000000E+00  0.00000000000E+00  0.57981063430E+03  0.57981063430E+03  0.00000000000E+00 0. -1.
         21   -1    0    0  502  503 -0.00000000000E+00 -0.00000000000E+00 -0.83134075300E+02  0.83134075300E+02  0.00000000000E+00 0. -1.
         -6    2    1    2    0  503  0.41384683180E+02  0.12932830583E+03  0.21850883755E+03  0.30945796068E+03  0.17198725141E+03 0.  0.
        -24    2    3    3    0    0  0.21095561672E+02  0.12983705963E+03  0.23612223055E+03  0.28217740176E+03  0.81041307539E+02 0.  0.
          6    2    1    2  501    0 -0.41384683180E+02 -0.12932830583E+03  0.27816772145E+03  0.35348674891E+03  0.17069592178E+03 0.  0.
         24    2    5    5    0    0 -0.50199172815E+02 -0.10591336341E+03  0.29170453062E+03  0.32465464947E+03  0.81064855109E+02 0.  0.
          5    1    5    5  501    0  0.88144896347E+01 -0.23414942420E+02 -0.13536809175E+02  0.28832099450E+02  0.47000000000E+01 0. -1.
        -13    1    6    6    0    0  0.25259729306E+01 -0.13947252429E+02  0.13329791921E+03  0.13404940006E+03  0.00000000000E+00 0.  1.
         14    1    6    6    0    0 -0.52725145746E+02 -0.91966110985E+02  0.15840661141E+03  0.19060524940E+03  0.00000000000E+00 0. -1.
         -5    1    3    3    0  503  0.20289121509E+02 -0.50875379505E+00 -0.17613393001E+02  0.27280558921E+02  0.47000000000E+01 0.  1.
         13    1    4    4    0    0  0.36731784427E+02  0.79444569402E+02  0.84587823125E+02  0.12172002060E+03  0.00000000000E+00 0. -1.
        -14    1    4    4    0    0 -0.15636222755E+02  0.50392490227E+02  0.15153440743E+03  0.16045738116E+03  0.00000000000E+00 0.  1.
<mgrwt>
<rscale>  2 0.21887691E+03</rscale>
<asrwt>0</asrwt>
<pdfrwt beam="1">  1       21 0.89201634E-01 0.21913037E+03</pdfrwt>
<pdfrwt beam="2">  1       21 0.12789858E-01 0.21913037E+03</pdfrwt>
<totfact> 0.55426791E+04</totfact>
</mgrwt>
</event>
<event>
12    1  0.1013215E-001  0.3157520E+03  0.7546771E-02  0.1077666E+00
         21   -1    0    0  501  502  0.00000000000E+00  0.00000000000E+00  0.17244244610E+03  0.17244244610E+03  0.00000000000E+00 0.  1.
         21   -1    0    0  502  503 -0.00000000000E+00 -0.00000000000E+00 -0.86704908433E+03  0.86704908433E+03  0.00000000000E+00 0. -1.
         -6    2    1    2    0  503  0.99464120950E+02 -0.24442524609E+03 -0.64781699075E+03  0.72067063223E+03  0.17338539258E+03 0.  0.
        -24    2    3    3    0    0  0.52365028520E+02 -0.23929486577E+03 -0.46518667926E+03  0.53193651770E+03  0.80954822608E+02 0.  0.
          6    2    1    2  501    0 -0.99464120950E+02  0.24442524609E+03 -0.46789647483E+02  0.31882089821E+03  0.17268665767E+03 0.  0.
         24    2    5    5    0    0 -0.13123699788E+03  0.14637425353E+03 -0.36595466814E+02  0.21514098612E+03  0.79358956685E+02 0.  0.
          5    1    5    5  501    0  0.31772876935E+02  0.98050992561E+02 -0.10194180669E+02  0.10367991209E+03  0.47000000000E+01 0. -1.
        -13    1    6    6    0    0 -0.87172834727E+02  0.60523009236E+02  0.12524287359E+02  0.10685970024E+03  0.00000000000E+00 0.  1.
         14    1    6    6    0    0 -0.44064163158E+02  0.85851244294E+02 -0.49119754173E+02  0.10828128588E+03  0.00000000000E+00 0. -1.
         -5    1    3    3    0  503  0.47099092430E+02 -0.51303803209E+01 -0.18263031149E+03  0.18873411453E+03  0.47000000000E+01 0.  1.
         11    1    4    4    0    0  0.79051022404E+01 -0.19487558395E+03 -0.35823932657E+03  0.40789018002E+03  0.00000000000E+00 0. -1.
        -12    1    4    4    0    0  0.44459926279E+02 -0.44419281824E+02 -0.10694735269E+03  0.12404633768E+03  0.00000000000E+00 0.  1.
<mgrwt>
<rscale>  2 0.31565614E+03</rscale>
<asrwt>0</asrwt>
<pdfrwt beam="1">  1       21 0.26529607E-01 0.31575197E+03</pdfrwt>
<pdfrwt beam="2">  1       21 0.13339217E+00 0.31575197E+03</pdfrwt>
<totfact> 0.50562985E+03</totfact>
</mgrwt>
</event>
<event>
12    1  0.1013215E-001  0.1783568E+03  0.7546771E-02  0.1171360E+00
         21   -1    0    0  501  502  0.00000000000E+00  0.00000000000E+00  0.45798981701E+02  0.45798981701E+02  0.00000000000E+00 0. -1.
         21   -1    0    0  502  503 -0.00000000000E+00 -0.00000000000E+00 -0.70857546150E+03  0.70857546150E+03  0.00000000000E+00 0. -1.
         -6    2    1    2    0  503 -0.32431380991E+01 -0.49038648595E+02 -0.41846017906E+03  0.45188211760E+03  0.16331937956E+03 0.  0.
        -24    2    3    3    0    0  0.41883130789E+02 -0.41466840986E+01 -0.31415145823E+03  0.32959529140E+03  0.90390960658E+02 0.  0.
          6    2    1    2  501    0  0.32431380991E+01  0.49038648595E+02 -0.24431630074E+03  0.30249232561E+03  0.17145216605E+03 0.  0.
         24    2    5    5    0    0  0.49632761974E+02  0.26656687130E+02 -0.68440820104E+02  0.11916959354E+03  0.79644561266E+02 0.  0.
          5    1    5    5  501    0 -0.46389623875E+02  0.22381961466E+02 -0.17587548064E+03  0.18332273206E+03  0.47000000000E+01 0. -1.
        -13    1    6    6    0    0 -0.12749591569E+02 -0.94960961306E+01 -0.37460829306E+02  0.40694491755E+02  0.00000000000E+00 0.  1.
         14    1    6    6    0    0  0.62382353544E+02  0.36152783260E+02 -0.30979990798E+02  0.78475101790E+02  0.00000000000E+00 0. -1.
         -5    1    3    3    0  503 -0.45126268888E+02 -0.44891964497E+02 -0.10430872083E+03  0.12228682620E+03  0.47000000000E+01 0.  1.
         13    1    4    4    0    0  0.13322261967E+02 -0.42740557318E+02 -0.21264449376E+03  0.21730604830E+03  0.00000000000E+00 0. -1.
        -14    1    4    4    0    0  0.28560868822E+02  0.38593873219E+02 -0.10150696447E+03  0.11228924309E+03  0.00000000000E+00 0.  1.
<mgrwt>
<rscale>  2 0.17637316E+03</rscale>
<asrwt>0</asrwt>
<pdfrwt beam="1">  1       21 0.70459979E-02 0.17835681E+03</pdfrwt>
<pdfrwt beam="2">  1       21 0.10901160E+00 0.17835681E+03</pdfrwt>
<totfact> 0.10043984E+05</totfact>
</mgrwt>
</event>
<event>
12    1  0.1013215E-001  0.2393704E+03  0.7546771E-02  0.1120330E+00
         21   -1    0    0  501  502  0.00000000000E+00  0.00000000000E+00  0.28933529604E+03  0.28933529604E+03  0.00000000000E+00 0.  1.
         21   -1    0    0  502  503 -0.00000000000E+00 -0.00000000000E+00 -0.19828481722E+03  0.19828481722E+03  0.00000000000E+00 0.  1.
         -6    2    1    2    0  503 -0.16147560130E+03 -0.34065011285E+02  0.29701975515E+02  0.24051323211E+03  0.17242277304E+03 0.  0.
        -24    2    3    3    0    0 -0.96706389124E+02 -0.50583418555E+02 -0.43264884017E+02  0.14144678363E+03  0.78895719028E+02 0.  0.
          6    2    1    2  501    0  0.16147560130E+03  0.34065011285E+02  0.61348503302E+02  0.24710688114E+03  0.17338793799E+03 0.  0.
         24    2    5    5    0    0  0.17329794874E+03  0.53623116675E+02  0.83621212486E+02  0.21485085907E+03  0.79125007349E+02 0.  0.
          5    1    5    5  501    0 -0.11822347437E+02 -0.19558105389E+02 -0.22272709184E+02  0.32256022069E+02  0.47000000000E+01 0. -1.
        -13    1    6    6    0    0  0.68794576124E+02  0.69659708046E+01  0.71984825455E+02  0.99814996614E+02  0.00000000000E+00 0.  1.
         14    1    6    6    0    0  0.10450337261E+03  0.46657145870E+02  0.11636387031E+02  0.11503586246E+03  0.00000000000E+00 0. -1.
         -5    1    3    3    0  503 -0.64769212175E+02  0.16518407270E+02  0.72966859532E+02  0.99066448480E+02  0.47000000000E+01 0.  1.
         13    1    4    4    0    0 -0.14036139303E+02 -0.12520359959E+02 -0.46725524129E+02  0.50369109831E+02  0.00000000000E+00 0. -1.
        -14    1    4    4    0    0 -0.82670249821E+02 -0.38063058596E+02  0.34606401121E+01  0.91077673802E+02  0.00000000000E+00 0.  1.
<mgrwt>
<rscale>  2 0.23919563E+03</rscale>
<asrwt>0</asrwt>
<pdfrwt beam="1">  1       21 0.44513122E-01 0.23937037E+03</pdfrwt>
<pdfrwt beam="2">  1       21 0.30505357E-01 0.23937037E+03</pdfrwt>
<totfact> 0.48925075E+04</totfact>
</mgrwt>
</event>
<event>
12    1  0.1013215E-001  0.5020210E+03  0.7546771E-02  0.1013472E+00
         21   -1    0    0  501  502  0.00000000000E+00  0.00000000000E+00  0.11712386653E+04  0.11712386653E+04  0.00000000000E+00 0. -1.
         21   -1    0    0  502  503 -0.00000000000E+00 -0.00000000000E+00 -0.44773037234E+03  0.44773037234E+03  0.00000000000E+00 0.  1.
         -6    2    1    2    0  503  0.23632483782E+03 -0.40652984304E+03 -0.22401579576E+03  0.54666920405E+03  0.16597650332E+03 0.  0.
        -24    2    3    3    0    0  0.15719414735E+03 -0.16512803830E+03 -0.14122463922E+03  0.27943716423E+03  0.78507713228E+02 0.  0.
          6    2    1    2  501    0 -0.23632483782E+03  0.40652984304E+03  0.94752408869E+03  0.10722998336E+04  0.17580981815E+03 0.  0.
         24    2    5    5    0    0 -0.75858926833E+02  0.22183890516E+03  0.57795793489E+03  0.62906030108E+03  0.81941511244E+02 0.  0.
          5    1    5    5  501    0 -0.16046591099E+03  0.18469093788E+03  0.36956615380E+03  0.44323953248E+03  0.47000000000E+01 0. -1.
        -11    1    6    6    0    0 -0.79436729360E+02  0.20091113549E+03  0.44791983120E+03  0.49730036549E+03  0.00000000000E+00 0.  1.
         12    1    6    6    0    0  0.35778025270E+01  0.20927769673E+02  0.13003810369E+03  0.13175993559E+03  0.00000000000E+00 0. -1.
         -5    1    3    3    0  503  0.79130690476E+02 -0.24140180474E+03 -0.82791156539E+02  0.26723203982E+03  0.47000000000E+01 0.  1.
         11    1    4    4    0    0  0.13917588797E+03 -0.16944994857E+03 -0.14138359925E+03  0.26090713866E+03  0.00000000000E+00 0. -1.
        -12    1    4    4    0    0  0.18018259377E+02  0.43219102739E+01  0.15896003478E+00  0.18530025571E+02  0.00000000000E+00 0.  1.
<mgrwt>
<rscale>  2 0.50117919E+03</rscale>
<asrwt>0</asrwt>
<pdfrwt beam="1">  1       21 0.18019056E+00 0.50202095E+03</pdfrwt>
<pdfrwt beam="2">  1       21 0.68881596E-01 0.50202095E+03</pdfrwt>
<totfact> 0.27791254E+02</totfact>
</mgrwt>
</event>
<event>
12    1  0.1013215E-001  0.2108439E+03  0.7546771E-02  0.1141258E+00
         21   -1    0    0  503  502  0.00000000000E+00  0.00000000000E+00  0.36180644738E+03  0.36180644738E+03  0.00000000000E+00 0. -1.
         21   -1    0    0  501  503 -0.00000000000E+00 -0.00000000000E+00 -0.18504366456E+03  0.18504366456E+03  0.00000000000E+00 0.  1.
          6    2    1    2  501    0  0.10586610725E+03 -0.58435946097E+02  0.24846169212E+03  0.32586558708E+03  0.17272167186E+03 0.  0.
         24    2    3    3    0    0 -0.11403938359E+02 -0.15456374515E+02  0.12936449609E+03  0.15322219951E+03  0.79830572154E+02 0.  0.
         -6    2    1    2    0  502 -0.10586610725E+03  0.58435946097E+02 -0.71698909302E+02  0.22098452486E+03  0.17050229961E+03 0.  0.
        -24    2    5    5    0    0 -0.11682918512E+03 -0.63756889235E+01 -0.62251595098E+02  0.15441066470E+03  0.79231839407E+02 0.  0.
          5    1    3    3  501    0  0.11727004560E+03 -0.42979571582E+02  0.11909719603E+03  0.17264338757E+03  0.47000000000E+01 0. -1.
        -11    1    4    4    0    0 -0.55834291793E+01 -0.62854599701E-01 -0.10766401821E+02  0.12128233189E+02  0.00000000000E+00 0.  1.
         12    1    4    4    0    0 -0.58205091795E+01 -0.15393519915E+02  0.14013089791E+03  0.14109396632E+03  0.00000000000E+00 0. -1.
         -5    1    5    5    0  502  0.10963077879E+02  0.64811635021E+02 -0.94473142040E+01  0.66573860158E+02  0.47000000000E+01 0.  1.
         11    1    6    6    0    0 -0.64792707343E+02 -0.36144744183E+02 -0.58250475553E+02  0.94327383930E+02  0.00000000000E+00 0. -1.
        -12    1    6    6    0    0 -0.52036477782E+02  0.29769055259E+02 -0.40011195444E+01  0.60083280774E+02  0.00000000000E+00 0.  1.
<mgrwt>
<rscale>  2 0.21038892E+03</rscale>
<asrwt>0</asrwt>
<pdfrwt beam="1">  1       21 0.55662531E-01 0.21084394E+03</pdfrwt>
<pdfrwt beam="2">  1       21 0.28468256E-01 0.21084394E+03</pdfrwt>
<totfact> 0.35539518E+04</totfact>
</mgrwt>
</event>
<event>
12    1  0.1013215E-001  0.2257006E+03  0.7546771E-02  0.1132192E+00
         21   -1    0    0  503  502  0.00000000000E+00  0.00000000000E+00  0.34987647417E+03  0.34987647417E+03  0.00000000000E+00 0. -1.
         21   -1    0    0  501  503 -0.00000000000E+00 -0.00000000000E+00 -0.40912775161E+03  0.40912775161E+03  0.00000000000E+00 0. -1.
          6    2    1    2  501    0  0.12279485412E+03 -0.11903760269E+02 -0.33872290941E+03  0.39977568956E+03  0.17282105455E+03 0.  0.
         24    2    3    3    0    0  0.14016228324E+03 -0.51027382377E+02 -0.27668574637E+03  0.32425757916E+03  0.79616053660E+02 0.  0.
         -6    2    1    2    0  502 -0.12279485412E+03  0.11903760269E+02  0.27947163197E+03  0.35922853623E+03  0.18899860438E+03 0.  0.
        -24    2    5    5    0    0 -0.36998513013E+02 -0.16608591890E+02  0.24620165029E+03  0.26277674488E+03  0.82411344816E+02 0.  0.
          5    1    3    3  501    0 -0.17367429115E+02  0.39123622109E+02 -0.62037163037E+02  0.75518110401E+02  0.47000000000E+01 0. -1.
        -11    1    4    4    0    0  0.78360659349E+01 -0.30676985246E+02 -0.30181381018E+02  0.43742394919E+02  0.00000000000E+00 0.  1.
         12    1    4    4    0    0  0.13232621730E+03 -0.20350397131E+02 -0.24650436536E+03  0.28051518424E+03  0.00000000000E+00 0. -1.
         -5    1    5    5    0  502 -0.85796341108E+02  0.28512352159E+02  0.33269981677E+02  0.96451791346E+02  0.47000000000E+01 0.  1.
         11    1    6    6    0    0  0.25866781356E+02 -0.12712271679E+02  0.81022736680E+02  0.85996372529E+02  0.00000000000E+00 0. -1.
        -12    1    6    6    0    0 -0.62865294369E+02 -0.38963202107E+01  0.16517891361E+03  0.17678037235E+03  0.00000000000E+00 0.  1.
<mgrwt>
<rscale>  2 0.22228307E+03</rscale>
<asrwt>0</asrwt>
<pdfrwt beam="1">  1       21 0.53827150E-01 0.22570057E+03</pdfrwt>
<pdfrwt beam="2">  1       21 0.62942731E-01 0.22570057E+03</pdfrwt>
<totfact> 0.74563098E+03</totfact>
</mgrwt>
</event>
<event>
12    1  0.1013215E-001  0.2045590E+03  0.7546771E-02  0.1146097E+00
         21   -1    0    0  501  502  0.00000000000E+00  0.00000000000E+00  0.80375108548E+03  0.80375108548E+03  0.00000000000E+00 0.  1.
         21   -1    0    0  502  503 -0.00000000000E+00 -0.00000000000E+00 -0.54206101943E+02  0.54206101943E+02  0.00000000000E+00 0.  1.
         -6    2    1    2    0  503 -0.23107217193E+01  0.10751285749E+03  0.28649320060E+03  0.35202660570E+03  0.17401156046E+03 0.  0.
        -24    2    3    3    0    0 -0.40715041864E+02  0.12501609685E+02  0.19181009563E+03  0.21242356354E+03  0.80738173635E+02 0.  0.
          6    2    1    2  501    0  0.23107217193E+01 -0.10751285749E+03  0.46305178294E+03  0.50593058172E+03  0.17316017406E+03 0.  0.
         24    2    5    5    0    0  0.53088470990E+02 -0.10577917502E+03  0.27994149050E+03  0.31584414172E+03  0.85922430928E+02 0.  0.
          5    1    5    5  501    0 -0.50777749271E+02 -0.17336824707E+01  0.18311029244E+03  0.19008644000E+03  0.47000000000E+01 0. -1.
        -11    1    6    6    0    0 -0.87404863364E+01 -0.62566595261E+02  0.78633357413E+02  0.10086713956E+03  0.00000000000E+00 0.  1.
         12    1    6    6    0    0  0.61828957326E+02 -0.43212579756E+02  0.20130813309E+03  0.21497700216E+03  0.00000000000E+00 0. -1.
         -5    1    3    3    0  503  0.38404320145E+02  0.95011247803E+02  0.94683104972E+02  0.13960304217E+03  0.47000000000E+01 0.  1.
         13    1    4    4    0    0  0.20051564742E+02 -0.74341793107E+01  0.87446846371E+02  0.90023792471E+02  0.00000000000E+00 0. -1.
        -14    1    4    4    0    0 -0.60766606607E+02  0.19935788996E+02  0.10436324926E+03  0.12239977107E+03  0.00000000000E+00 0.  1.
<mgrwt>
<rscale>  2 0.20437780E+03</rscale>
<asrwt>0</asrwt>
<pdfrwt beam="1">  1       21 0.12365400E+00 0.20455898E+03</pdfrwt>
<pdfrwt beam="2">  1       21 0.83394009E-02 0.20455898E+03</pdfrwt>
<totfact> 0.54364886E+04</totfact>
</mgrwt>
</event>
<event>
12    1  0.1013215E-001  0.3423292E+03  0.7546771E-02  0.1065877E+00
         21   -1    0    0  503  502  0.00000000000E+00  0.00000000000E+00  0.13011352262E+04  0.13011352262E+04  0.00000000000E+00 0.  1.
         21   -1    0    0  501  503 -0.00000000000E+00 -0.00000000000E+00 -0.10489825938E+03  0.10489825938E+03  0.00000000000E+00 0.  1.
          6    2    1    2  501    0  0.23626565816E+03  0.17762863206E+03  0.33175383016E+03  0.47623760405E+03  0.17137169990E+03 0.  0.
         24    2    3    3    0    0  0.16204976703E+03  0.15127232685E+03  0.31871811138E+03  0.39627090295E+03  0.79410012823E+02 0.  0.
         -6    2    1    2    0  502 -0.23626565816E+03 -0.17762863206E+03  0.86448313662E+03  0.92979588149E+03  0.17267279923E+03 0.  0.
        -24    2    5    5    0    0 -0.36318331873E+02 -0.85137782527E+02  0.30342019376E+03  0.32701299655E+03  0.79411728895E+02 0.  0.
          5    1    3    3  501    0  0.74215891127E+02  0.26356305215E+02  0.13035718780E+02  0.79966701098E+02  0.47000000000E+01 0. -1.
        -11    1    4    4    0    0  0.10653566408E+03  0.13016736715E+03  0.18546043466E+03  0.25037764281E+03  0.00000000000E+00 0.  1.
         12    1    4    4    0    0  0.55514102948E+02  0.21104959695E+02  0.13325767672E+03  0.14589326014E+03  0.00000000000E+00 0. -1.
         -5    1    5    5    0  502 -0.19994732629E+03 -0.92490849535E+02  0.56106294286E+03  0.60278288495E+03  0.47000000000E+01 0.  1.
         11    1    6    6    0    0  0.21004018672E+02 -0.95975148575E+01  0.31686772652E+02  0.39208833863E+02  0.00000000000E+00 0. -1.
        -12    1    6    6    0    0 -0.57322350544E+02 -0.75540267670E+02  0.27173342111E+03  0.28780416268E+03  0.00000000000E+00 0.  1.
<mgrwt>
<rscale>  2 0.34216548E+03</rscale>
<asrwt>0</asrwt>
<pdfrwt beam="1">  1       21 0.20017464E+00 0.34232921E+03</pdfrwt>
<pdfrwt beam="2">  1       21 0.16138195E-01 0.34232921E+03</pdfrwt>
<totfact> 0.41340708E+03</totfact>
</mgrwt>
</event>
<event>
12    1  0.1013215E-001  0.2157129E+03  0.7546771E-02  0.1137670E+00
         21   -1    0    0  501  502  0.00000000000E+00  0.00000000000E+00  0.54466546366E+03  0.54466546366E+03  0.00000000000E+00 0.  1.
         21   -1    0    0  502  503 -0.00000000000E+00 -0.00000000000E+00 -0.10203830392E+03  0.10203830392E+03  0.00000000000E+00 0.  1.
         -6    2    1    2    0  503 -0.73707456984E+02 -0.10438180929E+03  0.87737494377E+02  0.23287320399E+03  0.17379214566E+03 0.  0.
        -24    2    3    3    0    0  0.54640567140E+01  0.41535285168E+01  0.20340670693E+02  0.82498771401E+02  0.79656742863E+02 0.  0.
          6    2    1    2  501    0  0.73707456984E+02  0.10438180929E+03  0.35488966536E+03  0.41383056359E+03  0.17023721525E+03 0.  0.
         24    2    5    5    0    0 -0.12824835813E+02  0.39176184152E+02  0.85937592162E+02  0.12383587584E+03  0.79062029953E+02 0.  0.
          5    1    5    5  501    0  0.86532292796E+02  0.65205625138E+02  0.26895207320E+03  0.28999468775E+03  0.47000000000E+01 0. -1.
        -13    1    6    6    0    0 -0.28951889970E+02  0.30474312301E+02  0.94635962778E+02  0.10355124864E+03  0.00000000000E+00 0.  1.
         14    1    6    6    0    0  0.16127054157E+02  0.87018718505E+01 -0.86983706158E+01  0.20284627205E+02  0.00000000000E+00 0. -1.
         -5    1    3    3    0  503 -0.79171513698E+02 -0.10853533781E+03  0.67396823683E+02  0.15037443259E+03  0.47000000000E+01 0.  1.
         11    1    4    4    0    0 -0.21820731131E+02  0.26927232153E+01 -0.22645897567E+02  0.31563138975E+02  0.00000000000E+00 0. -1.
        -12    1    4    4    0    0  0.27284787845E+02  0.14608053015E+01  0.42986568260E+02  0.50935632426E+02  0.00000000000E+00 0.  1.
<mgrwt>
<rscale>  2 0.21499593E+03</rscale>
<asrwt>0</asrwt>
<pdfrwt beam="1">  1       21 0.83794685E-01 0.21571291E+03</pdfrwt>
<pdfrwt beam="2">  1       21 0.15698201E-01 0.21571291E+03</pdfrwt>
<totfact> 0.44178207E+04</totfact>
</mgrwt>
</event>
<event>
12    1  0.1013215E-001  0.1939254E+03  0.7546771E-02  0.1155228E+00
         21   -1    0    0  501  502  0.00000000000E+00  0.00000000000E+00  0.20741906698E+04  0.20741906698E+04  0.00000000000E+00 0.  1.
         21   -1    0    0  502  503 -0.00000000000E+00 -0.00000000000E+00 -0.20482344381E+02  0.20482344381E+02  0.00000000000E+00 0.  1.
         -6    2    1    2    0  503  0.30107854028E+02 -0.79859321220E+02  0.66652055999E+03  0.69415899845E+03  0.17413518936E+03 0.  0.
        -24    2    3    3    0    0  0.41485850274E+02 -0.24926751327E+02  0.59799076409E+03  0.60547151929E+03  0.81611200368E+02 0.  0.
          6    2    1    2  501    0 -0.30107854028E+02  0.79859321220E+02  0.13871877654E+04  0.14005140157E+04  0.17281671694E+03 0.  0.
         24    2    5    5    0    0 -0.51347240046E+02  0.10616242632E+03  0.82946977547E+03  0.84175251815E+03  0.81364571995E+02 0.  0.
          5    1    5    5  501    0  0.21239386018E+02 -0.26303105099E+02  0.55771798997E+03  0.55876149759E+03  0.47000000000E+01 0. -1.
        -13    1    6    6    0    0 -0.24201079908E+02  0.63264819581E+02  0.69025658067E+03  0.69357211365E+03  0.00000000000E+00 0.  1.
         14    1    6    6    0    0 -0.27146160137E+02  0.42897606738E+02  0.13921319479E+03  0.14818040450E+03  0.00000000000E+00 0. -1.
         -5    1    3    3    0  503 -0.11377996246E+02 -0.54932569892E+02  0.68529795897E+02  0.88687479157E+02  0.47000000000E+01 0.  1.
         13    1    4    4    0    0 -0.11120755252E+01  0.19416727332E+02  0.32762133237E+03  0.32819808567E+03  0.00000000000E+00 0. -1.
        -14    1    4    4    0    0  0.42597925799E+02 -0.44343478660E+02  0.27036943172E+03  0.27727343362E+03  0.00000000000E+00 0.  1.
<mgrwt>
<rscale>  2 0.19362895E+03</rscale>
<asrwt>0</asrwt>
<pdfrwt beam="1">  1       21 0.31910609E+00 0.19392539E+03</pdfrwt>
<pdfrwt beam="2">  1       21 0.31511315E-02 0.19392539E+03</pdfrwt>
<totfact> 0.15426647E+04</totfact>
</mgrwt>
</event>
<event>
12    1  0.1013215E-001  0.1984377E+03  0.7546771E-02  0.1151072E+00
         21   -1    0    0  503  502  0.00000000000E+00  0.00000000000E+00  0.72900007713E+02  0.72900007713E+02  0.00000000000E+00 0. -1.
         21   -1    0    0  501  503 -0.00000000000E+00 -0.00000000000E+00 -0.70928132253E+03  0.70928132253E+03  0.00000000000E+00 0. -1.
          6    2    1    2  501    0 -0.16475091214E+02  0.95945177768E+02 -0.50919978114E+03  0.54648522861E+03  0.17287215568E+03 0.  0.
         24    2    3    3    0    0 -0.76003458429E+01  0.58435180282E+02 -0.12316334654E+03  0.15850071879E+03  0.80503617164E+02 0.  0.
         -6    2    1    2    0  502  0.16475091214E+02 -0.95945177768E+02 -0.12718153368E+03  0.23569610163E+03  0.17291791130E+03 0.  0.
        -24    2    5    5    0    0  0.73250939342E+02 -0.84398975202E+02 -0.72084619790E+02  0.15560508064E+03  0.80795182900E+02 0.  0.
          5    1    3    3  501    0 -0.88747453713E+01  0.37509997486E+02 -0.38603643460E+03  0.38798450981E+03  0.47000000000E+01 0. -1.
        -11    1    4    4    0    0 -0.80041885600E+00 -0.12402879214E+02 -0.66171748189E+02  0.67328837370E+02  0.00000000000E+00 0.  1.
         12    1    4    4    0    0 -0.67999269869E+01  0.70838059496E+02 -0.56991598347E+02  0.91171881424E+02  0.00000000000E+00 0. -1.
         -5    1    5    5    0  502 -0.56775848128E+02 -0.11546202566E+02 -0.55096913886E+02  0.80091020995E+02  0.47000000000E+01 0.  1.
         13    1    6    6    0    0  0.61383779406E+02 -0.90972522511E+02 -0.33560065385E+02  0.11476169315E+03  0.00000000000E+00 0. -1.
        -14    1    6    6    0    0  0.11867159936E+02  0.65735473084E+01 -0.38524554406E+02  0.40843387486E+02  0.00000000000E+00 0.  1.
<mgrwt>
<rscale>  2 0.19842770E+03</rscale>
<asrwt>0</asrwt>
<pdfrwt beam="1">  1       21 0.11215385E-01 0.19843767E+03</pdfrwt>
<pdfrwt beam="2">  1       21 0.10912021E+00 0.19843767E+03</pdfrwt>
<totfact> 0.43952862E+04</totfact>
</mgrwt>
</event>
<event>
12    1  0.1013215E-001  0.2264596E+03  0.7546771E-02  0.1129318E+00
         21   -1    0    0  503  502  0.00000000000E+00  0.00000000000E+00  0.18020077300E+03  0.18020077300E+03  0.00000000000E+00 0. -1.
         21   -1    0    0  501  503 -0.00000000000E+00 -0.00000000000E+00 -0.75131187414E+03  0.75131187414E+03  0.00000000000E+00 0. -1.
          6    2    1    2  501    0 -0.12631820854E+02 -0.14458856702E+03 -0.65287673099E+03  0.69074391086E+03  0.17266646434E+03 0.  0.
         24    2    3    3    0    0  0.42082916763E+02 -0.25459064309E+02 -0.29785050746E+03  0.31225844175E+03  0.79820259419E+02 0.  0.
         -6    2    1    2    0  502  0.12631820854E+02  0.14458856702E+03  0.81765629857E+02  0.24076873628E+03  0.17383483406E+03 0.  0.
        -24    2    5    5    0    0 -0.29413402104E+02  0.12896833829E+03  0.99255944630E+01  0.15594613903E+03  0.81992074905E+02 0.  0.
          5    1    3    3  501    0 -0.54714737617E+02 -0.11912950271E+03 -0.35502622353E+03  0.37848546910E+03  0.47000000000E+01 0. -1.
        -11    1    4    4    0    0 -0.10977993010E+02  0.15995074740E+02 -0.27535280613E+02  0.33683088114E+02  0.00000000000E+00 0.  1.
         12    1    4    4    0    0  0.53060909773E+02 -0.41454139049E+02 -0.27031522685E+03  0.27857535364E+03  0.00000000000E+00 0. -1.
         -5    1    5    5    0  502  0.42045222958E+02  0.15620228726E+02  0.71840035395E+02  0.84822597252E+02  0.47000000000E+01 0.  1.
         11    1    6    6    0    0 -0.34993650224E+02  0.29414931593E+02  0.29400475396E+02  0.54352384586E+02  0.00000000000E+00 0. -1.
        -12    1    6    6    0    0  0.55802481200E+01  0.99553406698E+02 -0.19474880933E+02  0.10159375444E+03  0.00000000000E+00 0.  1.
<mgrwt>
<rscale>  2 0.22623540E+03</rscale>
<asrwt>0</asrwt>
<pdfrwt beam="1">  1       21 0.27723196E-01 0.22645963E+03</pdfrwt>
<pdfrwt beam="2">  1       21 0.11558644E+00 0.22645963E+03</pdfrwt>
<totfact> 0.70172094E+03</totfact>
</mgrwt>
</event>
<event>
12    1  0.1013215E-001  0.2007132E+03  0.7546771E-02  0.1149285E+00
         21   -1    0    0  501  502  0.00000000000E+00  0.00000000000E+00  0.58554703335E+02  0.58554703335E+02  0.00000000000E+00 0.  1.
         21   -1    0    0  502  503 -0.00000000000E+00 -0.00000000000E+00 -0.12688125011E+04  0.12688125011E+04  0.00000000000E+00 0.  1.
         -6    2    1    2    0  503  0.10473873253E+02 -0.10093043189E+03 -0.10556498493E+04  0.10745614969E+04  0.17317376323E+03 0.  0.
        -24    2    3    3    0    0  0.16048048762E+02  0.13892715104E+02 -0.37467542606E+03  0.38393592427E+03  0.81083732329E+02 0.  0.
          6    2    1    2  501    0 -0.10473873253E+02  0.10093043189E+03 -0.15460794847E+03  0.25280570750E+03  0.17236720661E+03 0.  0.
         24    2    5    5    0    0  0.31044930350E+02  0.12858915658E+03 -0.10346672295E+03  0.18120730632E+03  0.68057080568E+02 0.  0.
          5    1    5    5  501    0 -0.41518803603E+02 -0.27658724691E+02 -0.51141225519E+02  0.71598401182E+02  0.47000000000E+01 0. -1.
        -13    1    6    6    0    0  0.38478798446E+02  0.34024262087E+02 -0.20914191004E+02  0.55458738948E+02  0.00000000000E+00 0.  1.
         14    1    6    6    0    0 -0.74338680953E+01  0.94564894493E+02 -0.82552531950E+02  0.12574856737E+03  0.00000000000E+00 0. -1.
         -5    1    3    3    0  503 -0.55741755090E+01 -0.11482314699E+03 -0.68097442322E+03  0.69062557265E+03  0.47000000000E+01 0.  1.
         13    1    4    4    0    0  0.33984322771E+02 -0.23957570186E+02 -0.16911051273E+03  0.17414725056E+03  0.00000000000E+00 0. -1.
        -14    1    4    4    0    0 -0.17936274009E+02  0.37850285290E+02 -0.20556491333E+03  0.20978867371E+03  0.00000000000E+00 0.  1.
<mgrwt>
<rscale>  2 0.20053915E+03</rscale>
<asrwt>0</asrwt>
<pdfrwt beam="1">  1       21 0.90084159E-02 0.20071324E+03</pdfrwt>
<pdfrwt beam="2">  1       21 0.19520192E+00 0.20071324E+03</pdfrwt>
<totfact> 0.13973784E+04</totfact>
</mgrwt>
</event>
<event>
12    1  0.1013215E-001  0.1823888E+03  0.7546771E-02  0.1165834E+00
         21   -1    0    0  501  502  0.00000000000E+00  0.00000000000E+00  0.65941670437E+03  0.65941670437E+03  0.00000000000E+00 0.  1.
         21   -1    0    0  502  503 -0.00000000000E+00 -0.00000000000E+00 -0.53503047062E+02  0.53503047062E+02  0.00000000000E+00 0.  1.
         -6    2    1    2    0  503  0.52528415196E+02 -0.49796296379E+01  0.21377012623E+03  0.28100418724E+03  0.17458996324E+03 0.  0.
        -24    2    3    3    0    0  0.88573509535E+02  0.32841933329E+02  0.11663359527E+03  0.17060801385E+03  0.81116210892E+02 0.  0.
          6    2    1    2  501    0 -0.52528415196E+02  0.49796296379E+01  0.39214353108E+03  0.43191556419E+03  0.17317758085E+03 0.  0.
         24    2    5    5    0    0 -0.37468012466E+02  0.68406175380E+02  0.19609976021E+03  0.22526370107E+03  0.78774121876E+02 0.  0.
          5    1    5    5  501    0 -0.15060402730E+02 -0.63426545742E+02  0.19604377087E+03  0.20665186312E+03  0.47000000000E+01 0. -1.
        -11    1    6    6    0    0 -0.35585751653E+02 -0.56615176725E+01  0.52495733150E+02  0.63672604014E+02  0.00000000000E+00 0.  1.
         12    1    6    6    0    0 -0.18822608127E+01  0.74067693052E+02  0.14360402706E+03  0.16159109705E+03  0.00000000000E+00 0. -1.
         -5    1    3    3    0  503 -0.36045094339E+02 -0.37821562967E+02  0.97136530963E+02  0.11039617339E+03  0.47000000000E+01 0.  1.
         11    1    4    4    0    0 -0.69527857970E+01  0.61630229599E+00 -0.77951074143E+01  0.10463496474E+02  0.00000000000E+00 0. -1.
        -12    1    4    4    0    0  0.95526295332E+02  0.32225631033E+02  0.12442870268E+03  0.16014451738E+03  0.00000000000E+00 0.  1.
<mgrwt>
<rscale>  2 0.18205001E+03</rscale>
<asrwt>0</asrwt>
<pdfrwt beam="1">  1       21 0.10144872E+00 0.18238883E+03</pdfrwt>
<pdfrwt beam="2">  1       21 0.82312385E-02 0.18238883E+03</pdfrwt>
<totfact> 0.90983881E+04</totfact>
</mgrwt>
</event>
<event>
12    1  0.1013215E-001  0.1907209E+03  0.7546771E-02  0.1158233E+00
         21   -1    0    0  503  502  0.00000000000E+00  0.00000000000E+00  0.12195666900E+04  0.12195666900E+04  0.00000000000E+00 0. -1.
         21   -1    0    0  501  503 -0.00000000000E+00 -0.00000000000E+00 -0.71178148787E+02  0.71178148787E+02  0.00000000000E+00 0. -1.
          6    2    1    2  501    0 -0.74110836946E+02 -0.25651935377E+01  0.79392077469E+02  0.20486828110E+03  0.17369200979E+03 0.  0.
         24    2    3    3    0    0 -0.14172931081E+02 -0.62515147529E+02  0.47288781277E+02  0.11409790505E+03  0.81688967770E+02 0.  0.
         -6    2    1    2    0  502  0.74110836946E+02  0.25651935377E+01  0.10689964638E+04  0.10858765577E+04  0.17571415043E+03 0.  0.
        -24    2    5    5    0    0  0.53217107262E+01 -0.58184064166E+02  0.52595515192E+03  0.53511492817E+03  0.79406917782E+02 0.  0.
          5    1    3    3  501    0 -0.59937905865E+02  0.59949953991E+02  0.32103296191E+02  0.90770376056E+02  0.47000000000E+01 0. -1.
        -13    1    4    4    0    0 -0.32476449733E+02 -0.25555938408E+02 -0.10933588588E+02  0.42747738357E+02  0.00000000000E+00 0.  1.
         14    1    4    4    0    0  0.18303518653E+02 -0.36959209121E+02  0.58222369866E+02  0.71350166690E+02  0.00000000000E+00 0. -1.
         -5    1    5    5    0  502  0.68789126219E+02  0.60749257704E+02  0.54304131185E+03  0.55076162954E+03  0.47000000000E+01 0.  1.
         13    1    6    6    0    0  0.22349811111E+02 -0.30458216537E+02  0.85679637272E+02  0.93638759360E+02  0.00000000000E+00 0. -1.
        -14    1    6    6    0    0 -0.17028100385E+02 -0.27725847629E+02  0.44027551465E+03  0.44147616881E+03  0.00000000000E+00 0.  1.
<mgrwt>
<rscale>  2 0.19025383E+03</rscale>
<asrwt>0</asrwt>
<pdfrwt beam="1">  1       21 0.18762563E+00 0.19072089E+03</pdfrwt>
<pdfrwt beam="2">  1       21 0.10950485E-01 0.19072089E+03</pdfrwt>
<totfact> 0.11189413E+04</totfact>
</mgrwt>
</event>
<event>
12    1  0.1013215E-001  0.1772189E+03  0.7546771E-02  0.1170730E+00
         21   -1    0    0  503  502  0.00000000000E+00  0.00000000000E+00  0.29945492326E+03  0.29945492326E+03  0.00000000000E+00 0. -1.
         21   -1    0    0  501  503 -0.00000000000E+00 -0.00000000000E+00 -0.12795809416E+03  0.12795809416E+03  0.00000000000E+00 0. -1.
          6    2    1    2  501    0 -0.37595876661E+02  0.60783411824E+01  0.17731141383E+03  0.25009873009E+03  0.17221974668E+03 0.  0.
         24    2    3    3    0    0 -0.22631095358E+02 -0.48857856910E+02  0.16352469697E+03  0.19132718849E+03  0.83465620934E+02 0.  0.
         -6    2    1    2    0  502  0.37595876661E+02 -0.60783411824E+01 -0.58145847325E+01  0.17731428733E+03  0.17307845308E+03 0.  0.
        -24    2    5    5    0    0  0.28160085502E+02  0.46926706454E+02 -0.48586229563E+02  0.10839351519E+03  0.79958903435E+02 0.  0.
          5    1    3    3  501    0 -0.14964781304E+02  0.54936198093E+02  0.13786716860E+02  0.58771541600E+02  0.47000000000E+01 0. -1.
        -13    1    4    4    0    0  0.30831367854E+02 -0.24821108167E+02  0.52159846300E+02  0.65477555089E+02  0.00000000000E+00 0.  1.
         14    1    4    4    0    0 -0.53462463211E+02 -0.24036748743E+02  0.11136485067E+03  0.12584963340E+03  0.00000000000E+00 0. -1.
         -5    1    5    5    0  502  0.94357911589E+01 -0.53005047637E+02  0.42771644831E+02  0.68920772132E+02  0.47000000000E+01 0.  1.
         11    1    6    6    0    0  0.29529414098E+02  0.11175326707E+02 -0.62486711037E+02  0.70010451221E+02  0.00000000000E+00 0. -1.
        -12    1    6    6    0    0 -0.13693285959E+01  0.35751379748E+02  0.13900481474E+02  0.38383063972E+02  0.00000000000E+00 0.  1.
<mgrwt>
<rscale>  2 0.17700891E+03</rscale>
<asrwt>0</asrwt>
<pdfrwt beam="1">  1       21 0.46069988E-01 0.17721892E+03</pdfrwt>
<pdfrwt beam="2">  1       21 0.19685861E-01 0.17721892E+03</pdfrwt>
<totfact> 0.10796041E+05</totfact>
</mgrwt>
</event>
<event>
12    1  0.1013215E-001  0.2052960E+03  0.7546771E-02  0.1146086E+00
         21   -1    0    0  503  502  0.00000000000E+00  0.00000000000E+00  0.64161903233E+02  0.64161903233E+02  0.00000000000E+00 0.  1.
         21   -1    0    0  501  503 -0.00000000000E+00 -0.00000000000E+00 -0.65414845871E+03  0.65414845871E+03  0.00000000000E+00 0.  1.
          6    2    1    2  501    0  0.99453961352E+02  0.24686558170E+02 -0.33390206672E+03  0.39009439190E+03  0.17373119423E+03 0.  0.
         24    2    3    3    0    0  0.10082961244E+03  0.75589950800E+02 -0.23822504255E+03  0.28160830638E+03  0.81679960314E+02 0.  0.
         -6    2    1    2    0  502 -0.99453961352E+02 -0.24686558170E+02 -0.25608448876E+03  0.32821597005E+03  0.17789306065E+03 0.  0.
        -24    2    5    5    0    0 -0.24973415337E+02 -0.15470444769E+02 -0.32078540146E+02  0.91925802043E+02  0.80983419342E+02 0.  0.
          5    1    3    3  501    0 -0.13756510912E+01 -0.50903392630E+02 -0.95677024165E+02  0.10848608551E+03  0.47000000000E+01 0. -1.
        -11    1    4    4    0    0  0.76648378726E+02  0.71767990431E+02 -0.11398030576E+03  0.15497460602E+03  0.00000000000E+00 0.  1.
         12    1    4    4    0    0  0.24181233717E+02  0.38219603693E+01 -0.12424473679E+03  0.12663370036E+03  0.00000000000E+00 0. -1.
         -5    1    5    5    0  502 -0.74480546015E+02 -0.92161134012E+01 -0.22400594862E+03  0.23629016801E+03  0.47000000000E+01 0.  1.
         11    1    6    6    0    0  0.78603204990E+01 -0.28408178998E+02 -0.45463094378E+02  0.54182120877E+02  0.00000000000E+00 0. -1.
        -12    1    6    6    0    0 -0.32833735836E+02  0.12937734229E+02  0.13384554232E+02  0.37743681166E+02  0.00000000000E+00 0.  1.
<mgrwt>
<rscale>  2 0.20439115E+03</rscale>
<asrwt>0</asrwt>
<pdfrwt beam="1">  1       21 0.98710616E-02 0.20529602E+03</pdfrwt>
<pdfrwt beam="2">  1       21 0.10063823E+00 0.20529602E+03</pdfrwt>
<totfact> 0.66732291E+04</totfact>
</mgrwt>
</event>
<event>
12    1  0.1013215E-001  0.2330123E+03  0.7546771E-02  0.1124711E+00
         21   -1    0    0  501  502  0.00000000000E+00  0.00000000000E+00  0.50144017254E+03  0.50144017254E+03  0.00000000000E+00 0. -1.
         21   -1    0    0  502  503 -0.00000000000E+00 -0.00000000000E+00 -0.10781710009E+03  0.10781710009E+03  0.00000000000E+00 0. -1.
         -6    2    1    2    0  503  0.47690141133E+02  0.14740941980E+03  0.19432591657E+03  0.30264010338E+03  0.17269795515E+03 0.  0.
        -24    2    3    3    0    0  0.60278911139E+02  0.25775961702E+02  0.61375930378E+02  0.12194432565E+03  0.82495250769E+02 0.  0.
          6    2    1    2  501    0 -0.47690141133E+02 -0.14740941980E+03  0.19929715588E+03  0.30661716926E+03  0.17404265435E+03 0.  0.
         24    2    5    5    0    0 -0.50837309878E+02 -0.13014493401E+03  0.22430147837E+03  0.27570967367E+03  0.78629097853E+02 0.  0.
          5    1    5    5  501    0  0.31471687453E+01 -0.17264485787E+02 -0.25004322487E+02  0.30907495590E+02  0.47000000000E+01 0. -1.
        -13    1    6    6    0    0 -0.22351535041E+02 -0.10815843222E+03  0.10999926812E+03  0.15587712009E+03  0.00000000000E+00 0.  1.
         14    1    6    6    0    0 -0.28485774837E+02 -0.21986501789E+02  0.11430221025E+03  0.11983255358E+03  0.00000000000E+00 0. -1.
         -5    1    3    3    0  503 -0.12588770007E+02  0.12163345810E+03  0.13294998619E+03  0.18069577772E+03  0.47000000000E+01 0.  1.
         11    1    4    4    0    0  0.14651988851E+02 -0.28820674702E+02  0.88987530510E+01  0.33533563387E+02  0.00000000000E+00 0. -1.
        -12    1    4    4    0    0  0.45626922288E+02  0.54596636405E+02  0.52477177327E+02  0.88410762266E+02  0.00000000000E+00 0.  1.
<mgrwt>
<rscale>  2 0.23276123E+03</rscale>
<asrwt>0</asrwt>
<pdfrwt beam="1">  1       21 0.77144641E-01 0.23301230E+03</pdfrwt>
<pdfrwt beam="2">  1       21 0.16587246E-01 0.23301230E+03</pdfrwt>
<totfact> 0.47791553E+04</totfact>
</mgrwt>
</event>
<event>
12    1  0.1013215E-001  0.1786030E+03  0.7546771E-02  0.1169734E+00
         21   -1    0    0  501  502  0.00000000000E+00  0.00000000000E+00  0.46873419087E+02  0.46873419087E+02  0.00000000000E+00 0. -1.
         21   -1    0    0  502  503 -0.00000000000E+00 -0.00000000000E+00 -0.67255307172E+03  0.67255307172E+03  0.00000000000E+00 0. -1.
         -6    2    1    2    0  503 -0.20695293700E+02 -0.41220838249E+02 -0.30214465563E+03  0.35098494773E+03  0.17254445201E+03 0.  0.
        -24    2    3    3    0    0 -0.64655315356E+01 -0.22785331380E+01 -0.44888576398E+02  0.90366894708E+02  0.78129357842E+02 0.  0.
          6    2    1    2  501    0  0.20695293700E+02  0.41220838249E+02 -0.32353499700E+03  0.36844154308E+03  0.17013766101E+03 0.  0.
         24    2    5    5    0    0  0.32611343156E+02  0.57633670561E+02 -0.10132920024E+03  0.14526251312E+03  0.80302249106E+02 0.  0.
          5    1    5    5  501    0 -0.11916049456E+02 -0.16412832312E+02 -0.22220579676E+03  0.22317902996E+03  0.47000000000E+01 0. -1.
        -11    1    6    6    0    0 -0.78057469793E+01  0.36071066631E+02 -0.32941250925E+01  0.37052702923E+02  0.00000000000E+00 0.  1.
         12    1    6    6    0    0  0.40417090135E+02  0.21562603930E+02 -0.98035075150E+02  0.10820981020E+03  0.00000000000E+00 0. -1.
         -5    1    3    3    0  503 -0.14229762164E+02 -0.38942305111E+02 -0.25725607923E+03  0.26061805302E+03  0.47000000000E+01 0.  1.
         13    1    4    4    0    0  0.33017633259E+02 -0.10980007832E+01 -0.36085816731E+01  0.33232387417E+02  0.00000000000E+00 0. -1.
        -14    1    4    4    0    0 -0.39483164795E+02 -0.11805323548E+01 -0.41279994725E+02  0.57134507291E+02  0.00000000000E+00 0.  1.
<mgrwt>
<rscale>  2 0.17801916E+03</rscale>
<asrwt>0</asrwt>
<pdfrwt beam="1">  1       21 0.72112952E-02 0.17860303E+03</pdfrwt>
<pdfrwt beam="2">  1       21 0.10346970E+00 0.17860303E+03</pdfrwt>
<totfact> 0.10936034E+05</totfact>
</mgrwt>
</event>
<event>
12    1  0.1013215E-001  0.2944589E+03  0.7546771E-02  0.1088865E+00
         21   -1    0    0  501  502  0.00000000000E+00  0.00000000000E+00  0.16790834823E+04  0.16790834823E+04  0.00000000000E+00 0.  1.
         21   -1    0    0  502  503 -0.00000000000E+00 -0.00000000000E+00 -0.53903758738E+02  0.53903758738E+02  0.00000000000E+00 0. -1.
         -6    2    1    2    0  503  0.80041902708E+01 -0.23777438480E+03  0.10209641946E+04  0.10608396193E+04  0.16251795625E+03 0.  0.
        -24    2    3    3    0    0  0.15345461399E+02 -0.18429933703E+03  0.53490974543E+03  0.57177470280E+03  0.81216662063E+02 0.  0.
          6    2    1    2  501    0 -0.80041902708E+01  0.23777438480E+03  0.60421552898E+03  0.67214762175E+03  0.17350877450E+03 0.  0.
         24    2    5    5    0    0  0.52977194013E+02  0.97222464341E+02  0.34901561708E+03  0.37445204468E+03  0.78381388972E+02 0.  0.
          5    1    5    5  501    0 -0.60981384283E+02  0.14055192046E+03  0.25519991190E+03  0.29769557708E+03  0.47000000000E+01 0. -1.
        -11    1    6    6    0    0 -0.20387401462E+02  0.14562252637E+02  0.59643459348E+02  0.64691943728E+02  0.00000000000E+00 0.  1.
         12    1    6    6    0    0  0.73364595475E+02  0.82660211704E+02  0.28937215773E+03  0.30976010095E+03  0.00000000000E+00 0. -1.
         -5    1    3    3    0  503 -0.73412711284E+01 -0.53475047777E+02  0.48605444913E+03  0.48906491647E+03  0.47000000000E+01 0.  1.
         13    1    4    4    0    0 -0.26132443263E+02 -0.12703691939E+03  0.31080577486E+03  0.33678110571E+03  0.00000000000E+00 0. -1.
        -14    1    4    4    0    0  0.41477904662E+02 -0.57262417641E+02  0.22410397057E+03  0.23499359709E+03  0.00000000000E+00 0.  1.
<mgrwt>
<rscale>  2 0.29286105E+03</rscale>
<asrwt>0</asrwt>
<pdfrwt beam="1">  1       21 0.25832050E+00 0.29445886E+03</pdfrwt>
<pdfrwt beam="2">  1       21 0.82928873E-02 0.29445886E+03</pdfrwt>
<totfact> 0.61527743E+03</totfact>
</mgrwt>
</event>
<event>
12    1  0.1013215E-001  0.2518669E+03  0.7546771E-02  0.1112354E+00
         21   -1    0    0  501  502  0.00000000000E+00  0.00000000000E+00  0.15874371271E+03  0.15874371271E+03  0.00000000000E+00 0. -1.
         21   -1    0    0  502  503 -0.00000000000E+00 -0.00000000000E+00 -0.53910843541E+03  0.53910843541E+03  0.00000000000E+00 0. -1.
         -6    2    1    2    0  503  0.15234600275E+03  0.10011788100E+03 -0.11664459796E+02  0.25213686056E+03  0.17379310166E+03 0.  0.
        -24    2    3    3    0    0  0.11836495606E+03 -0.71165630593E-01  0.12060689219E+02  0.14361253475E+03  0.80429049626E+02 0.  0.
          6    2    1    2  501    0 -0.15234600275E+03 -0.10011788100E+03 -0.36870026290E+03  0.44571528755E+03  0.17172460232E+03 0.  0.
         24    2    5    5    0    0 -0.12752375022E+03 -0.53042516477E+02 -0.14398983442E+03  0.21474104476E+03  0.79402949965E+02 0.  0.
          5    1    5    5  501    0 -0.24822252531E+02 -0.47075364520E+02 -0.22471042848E+03  0.23097424279E+03  0.47000000000E+01 0. -1.
        -13    1    6    6    0    0 -0.95187695114E+02 -0.74008743109E+02 -0.10439723497E+03  0.15948910316E+03  0.00000000000E+00 0.  1.
         14    1    6    6    0    0 -0.32336055103E+02  0.20966226633E+02 -0.39592599451E+02  0.55251941596E+02  0.00000000000E+00 0. -1.
         -5    1    3    3    0  503  0.33981046684E+02  0.10018904663E+03 -0.23725149015E+02  0.10852432581E+03  0.47000000000E+01 0.  1.
         11    1    4    4    0    0  0.47590273829E+01  0.11247480178E+02  0.25874047870E+02  0.28611544962E+02  0.00000000000E+00 0. -1.
        -12    1    4    4    0    0  0.11360592868E+03 -0.11318645808E+02 -0.13813358651E+02  0.11500098979E+03  0.00000000000E+00 0.  1.
<mgrwt>
<rscale>  2 0.25151044E+03</rscale>
<asrwt>0</asrwt>
<pdfrwt beam="1">  1       21 0.24422110E-01 0.25186690E+03</pdfrwt>
<pdfrwt beam="2">  1       21 0.82939759E-01 0.25186690E+03</pdfrwt>
<totfact> 0.19421719E+04</totfact>
</mgrwt>
</event>
<event>
12    1  0.1013215E-001  0.1875015E+03  0.7546771E-02  0.1160883E+00
         21   -1    0    0  501  502  0.00000000000E+00  0.00000000000E+00  0.10812273358E+04  0.10812273358E+04  0.00000000000E+00 0.  1.
         21   -1    0    0  502  503 -0.00000000000E+00 -0.00000000000E+00 -0.32643595080E+02  0.32643595080E+02  0.00000000000E+00 0.  1.
         -6    2    1    2    0  503  0.50752989316E+02  0.50130105252E+02  0.57295787873E+03  0.60285779956E+03  0.17340098706E+03 0.  0.
        -24    2    3    3    0    0  0.92511608542E+02  0.69270153569E+02  0.45009060303E+03  0.47160010963E+03  0.80426118704E+02 0.  0.
          6    2    1    2  501    0 -0.50752989316E+02 -0.50130105252E+02  0.47562586204E+03  0.51101313137E+03  0.17270080028E+03 0.  0.
         24    2    5    5    0    0 -0.35540886628E+02  0.40090960066E+02  0.24299497396E+03  0.26099219468E+03  0.78739625430E+02 0.  0.
          5    1    5    5  501    0 -0.15212102688E+02 -0.90221065318E+02  0.23263088807E+03  0.25002093669E+03  0.47000000000E+01 0. -1.
        -13    1    6    6    0    0  0.23377296858E+02  0.23117572611E+02  0.67204040033E+02  0.74815126603E+02  0.00000000000E+00 0.  1.
         14    1    6    6    0    0 -0.58918183486E+02  0.16973387455E+02  0.17579093393E+03  0.18617706808E+03  0.00000000000E+00 0. -1.
         -5    1    3    3    0  503 -0.41758619225E+02 -0.19140048317E+02  0.12286727570E+03  0.13125768993E+03  0.47000000000E+01 0.  1.
         13    1    4    4    0    0  0.19207932632E+02  0.61337008687E+02  0.16357877960E+03  0.17575320892E+03  0.00000000000E+00 0. -1.
        -14    1    4    4    0    0  0.73303675910E+02  0.79331448820E+01  0.28651182343E+03  0.29584690070E+03  0.00000000000E+00 0.  1.
<mgrwt>
<rscale>  2 0.18733941E+03</rscale>
<asrwt>0</asrwt>
<pdfrwt beam="1">  1       21 0.16634264E+00 0.18750146E+03</pdfrwt>
<pdfrwt beam="2">  1       21 0.50220924E-02 0.18750146E+03</pdfrwt>
<totfact> 0.60644940E+04</totfact>
</mgrwt>
</event>
<event>
12    1  0.1013215E-001  0.1776830E+03  0.7546771E-02  0.1170493E+00
         21   -1    0    0  503  502  0.00000000000E+00  0.00000000000E+00  0.24199270685E+03  0.24199270685E+03  0.00000000000E+00 0.  1.
         21   -1    0    0  501  503 -0.00000000000E+00 -0.00000000000E+00 -0.17173365929E+03  0.17173365929E+03  0.00000000000E+00 0.  1.
          6    2    1    2  501    0  0.34917092154E+02 -0.23389373178E+02 -0.67696054838E+02  0.19014206621E+03  0.17264119844E+03 0.  0.
         24    2    3    3    0    0  0.41976007246E+02 -0.63495199623E+02 -0.91568860121E+02  0.14270467137E+03  0.78652028118E+02 0.  0.
         -6    2    1    2    0  502 -0.34917092154E+02  0.23389373178E+02  0.13795510240E+03  0.22358429993E+03  0.17085684884E+03 0.  0.
        -24    2    5    5    0    0 -0.29183160431E+02 -0.50591339598E+02  0.61606599554E+02  0.11701409902E+03  0.80534376295E+02 0.  0.
          5    1    3    3  501    0 -0.70589150916E+01  0.40105826445E+02  0.23872805283E+02  0.47437394840E+02  0.47000000000E+01 0. -1.
        -13    1    4    4    0    0 -0.22999856819E+02 -0.20701180257E+02 -0.18998366362E+02  0.36310744996E+02  0.00000000000E+00 0.  1.
         14    1    4    4    0    0  0.64975864065E+02 -0.42794019365E+02 -0.72570493759E+02  0.10639392637E+03  0.00000000000E+00 0. -1.
         -5    1    5    5    0  502 -0.57339317236E+01  0.73980712776E+02  0.76348502848E+02  0.10657020091E+03  0.47000000000E+01 0.  1.
         13    1    6    6    0    0  0.67789301316E+00 -0.26336299197E+02  0.72411373231E+02  0.77054961992E+02  0.00000000000E+00 0. -1.
        -14    1    6    6    0    0 -0.29861053444E+02 -0.24255040401E+02 -0.10804773677E+02  0.39959137026E+02  0.00000000000E+00 0.  1.
<mgrwt>
<rscale>  2 0.17724811E+03</rscale>
<asrwt>0</asrwt>
<pdfrwt beam="1">  1       21 0.37229647E-01 0.17768300E+03</pdfrwt>
<pdfrwt beam="2">  1       21 0.26420563E-01 0.17768300E+03</pdfrwt>
<totfact> 0.95358408E+04</totfact>
</mgrwt>
</event>
<event>
12    1  0.1013215E-001  0.1818611E+03  0.7546771E-02  0.1166501E+00
         21   -1    0    0  501  502  0.00000000000E+00  0.00000000000E+00  0.52927969927E+03  0.52927969927E+03  0.00000000000E+00 0.  1.
         21   -1    0    0  502  503 -0.00000000000E+00 -0.00000000000E+00 -0.75507678575E+02  0.75507678575E+02  0.00000000000E+00 0.  1.
         -6    2    1    2    0  503 -0.26453177615E+02 -0.42162438291E+02  0.99050249625E+02  0.20708556157E+03  0.17491722629E+03 0.  0.
        -24    2    3    3    0    0  0.18276187947E+02  0.27057859477E+02  0.13171075947E+02  0.87965923235E+02  0.80612527585E+02 0.  0.
          6    2    1    2  501    0  0.26453177615E+02  0.42162438291E+02  0.35472177107E+03  0.39770181627E+03  0.17280554964E+03 0.  0.
         24    2    5    5    0    0  0.37408304287E+02  0.91762341143E+02  0.22977651039E+03  0.26274414390E+03  0.80109499742E+02 0.  0.
          5    1    5    5  501    0 -0.10955126672E+02 -0.49599902852E+02  0.12494526069E+03  0.13495767237E+03  0.47000000000E+01 0. -1.
        -13    1    6    6    0    0  0.36844574676E+02  0.37229364729E+02  0.18472224288E+03  0.19200483144E+03  0.00000000000E+00 0.  1.
         14    1    6    6    0    0  0.56372961132E+00  0.54532976414E+02  0.45054267508E+02  0.70739312468E+02  0.00000000000E+00 0. -1.
         -5    1    3    3    0  503 -0.44729365562E+02 -0.69220297768E+02  0.85879173678E+02  0.11911963834E+03  0.47000000000E+01 0.  1.
         11    1    4    4    0    0 -0.18379645864E+02  0.35007477177E+02 -0.13678728945E+02  0.41838289471E+02  0.00000000000E+00 0. -1.
        -12    1    4    4    0    0  0.36655833810E+02 -0.79496176997E+01  0.26849804892E+02  0.46127633763E+02  0.00000000000E+00 0.  1.
<mgrwt>
<rscale>  2 0.18135148E+03</rscale>
<asrwt>0</asrwt>
<pdfrwt beam="1">  1       21 0.81427644E-01 0.18186115E+03</pdfrwt>
<pdfrwt beam="2">  1       21 0.11616566E-01 0.18186115E+03</pdfrwt>
<totfact> 0.82545229E+04</totfact>
</mgrwt>
</event>
<event>
12    1  0.1013215E-001  0.1775876E+03  0.7546771E-02  0.1170498E+00
         21   -1    0    0  503  502  0.00000000000E+00  0.00000000000E+00  0.94232295007E+02  0.94232295007E+02  0.00000000000E+00 0.  1.
         21   -1    0    0  501  503 -0.00000000000E+00 -0.00000000000E+00 -0.74865589274E+03  0.74865589274E+03  0.00000000000E+00 0.  1.
          6    2    1    2  501    0  0.19655102717E+01 -0.38861643362E+02 -0.64101548379E+03  0.66479509569E+03  0.17186500002E+03 0.  0.
         24    2    3    3    0    0  0.60779949061E+02 -0.46618997028E+02 -0.34333954508E+03  0.36122900860E+03  0.82078135585E+02 0.  0.
         -6    2    1    2    0  502 -0.19655102717E+01  0.38861643362E+02 -0.13408113946E+02  0.17809309207E+03  0.17327227524E+03 0.  0.
        -24    2    5    5    0    0  0.56581180985E+02  0.60138901830E+02 -0.61190202016E+01  0.11519907269E+03  0.80095358083E+02 0.  0.
          5    1    3    3  501    0 -0.58814438790E+02  0.77573536656E+01 -0.29767593871E+03  0.30356608709E+03  0.47000000000E+01 0. -1.
        -11    1    4    4    0    0  0.17616441633E+02 -0.62602866583E+01 -0.25038200338E+03  0.25107902705E+03  0.00000000000E+00 0.  1.
         12    1    4    4    0    0  0.43163507429E+02 -0.40358710370E+02 -0.92957541704E+02  0.11014998155E+03  0.00000000000E+00 0. -1.
         -5    1    5    5    0  502 -0.58546691257E+02 -0.21277258468E+02 -0.72890937444E+01  0.62894019371E+02  0.47000000000E+01 0.  1.
         11    1    6    6    0    0  0.56094481382E+01  0.54097989527E+02 -0.25837646735E+02  0.60213307234E+02  0.00000000000E+00 0. -1.
        -12    1    6    6    0    0  0.50971732847E+02  0.60409123029E+01  0.19718626533E+02  0.54985765460E+02  0.00000000000E+00 0.  1.
<mgrwt>
<rscale>  2 0.17724344E+03</rscale>
<asrwt>0</asrwt>
<pdfrwt beam="1">  1       21 0.14497277E-01 0.17758765E+03</pdfrwt>
<pdfrwt beam="2">  1       21 0.11517782E+00 0.17758765E+03</pdfrwt>
<totfact> 0.24601433E+04</totfact>
</mgrwt>
</event>
<event>
12    1  0.1013215E-001  0.1880092E+03  0.7546771E-02  0.1160803E+00
         21   -1    0    0  503  502  0.00000000000E+00  0.00000000000E+00  0.80055701478E+02  0.80055701478E+02  0.00000000000E+00 0.  1.
         21   -1    0    0  501  503 -0.00000000000E+00 -0.00000000000E+00 -0.46281566416E+03  0.46281566416E+03  0.00000000000E+00 0.  1.
          6    2    1    2  501    0 -0.31042305099E+02  0.65377300091E+02 -0.25546325410E+03  0.31582093585E+03  0.17100752396E+03 0.  0.
         24    2    3    3    0    0  0.44553700151E+02  0.10868162885E+02 -0.13458833114E+03  0.16311586373E+03  0.79935079661E+02 0.  0.
         -6    2    1    2    0  502  0.31042305099E+02 -0.65377300091E+02 -0.12729670858E+03  0.22705042979E+03  0.17352126550E+03 0.  0.
        -24    2    5    5    0    0  0.66981643097E+02  0.61509054059E+01 -0.50405195857E+02  0.11595445810E+03  0.79877271075E+02 0.  0.
          5    1    3    3  501    0 -0.75596005249E+02  0.54509137206E+02 -0.12087492296E+03  0.15270507211E+03  0.47000000000E+01 0. -1.
        -11    1    4    4    0    0  0.32599340598E+02  0.41437545887E+02 -0.11039648177E+03  0.12234038746E+03  0.00000000000E+00 0.  1.
         12    1    4    4    0    0  0.11954359553E+02 -0.30569383002E+02 -0.24191849374E+02  0.40775476276E+02  0.00000000000E+00 0. -1.
         -5    1    5    5    0  502 -0.35939337999E+02 -0.71528205497E+02 -0.76891512723E+02  0.11109597169E+03  0.47000000000E+01 0.  1.
         13    1    6    6    0    0  0.66987604538E+02  0.13512594364E+01 -0.69339299024E+02  0.96421488543E+02  0.00000000000E+00 0. -1.
        -14    1    6    6    0    0 -0.59614407123E-02  0.47996459695E+01  0.18934103166E+02  0.19532969556E+02  0.00000000000E+00 0.  1.
<mgrwt>
<rscale>  2 0.18742709E+03</rscale>
<asrwt>0</asrwt>
<pdfrwt beam="1">  1       21 0.12316262E-01 0.18800916E+03</pdfrwt>
<pdfrwt beam="2">  1       21 0.71202410E-01 0.18800916E+03</pdfrwt>
<totfact> 0.10013332E+05</totfact>
</mgrwt>
</event>
<event>
12    1  0.1013215E-001  0.1872498E+03  0.7546771E-02  0.1160998E+00
         21   -1    0    0  503  502  0.00000000000E+00  0.00000000000E+00  0.63599042258E+02  0.63599042258E+02  0.00000000000E+00 0. -1.
         21   -1    0    0  501  503 -0.00000000000E+00 -0.00000000000E+00 -0.62301075217E+03  0.62301075217E+03  0.00000000000E+00 0. -1.
          6    2    1    2  501    0  0.30473243294E+02  0.65126828833E+02 -0.16280066378E+03  0.24801794286E+03  0.17273888231E+03 0.  0.
         24    2    3    3    0    0  0.67511526336E+02  0.59667643556E+02 -0.17594458225E+03  0.20806184561E+03  0.64924584706E+02 0.  0.
         -6    2    1    2    0  502 -0.30473243294E+02 -0.65126828833E+02 -0.39661104613E+03  0.43859185157E+03  0.17289409464E+03 0.  0.
        -24    2    5    5    0    0  0.47061144766E+02 -0.50256788822E+02 -0.26044079967E+03  0.28112082108E+03  0.80367964666E+02 0.  0.
          5    1    3    3  501    0 -0.37038283042E+02  0.54591852765E+01  0.13143918469E+02  0.39956097248E+02  0.47000000000E+01 0. -1.
        -13    1    4    4    0    0  0.52988898044E+02  0.60843888479E+02 -0.89917367058E+02  0.12080949872E+03  0.00000000000E+00 0.  1.
         14    1    4    4    0    0  0.14522628291E+02 -0.11762449230E+01 -0.86027215196E+02  0.87252346897E+02  0.00000000000E+00 0. -1.
         -5    1    5    5    0  502 -0.77534388060E+02 -0.14870040010E+02 -0.13617024646E+03  0.15747103049E+03  0.47000000000E+01 0.  1.
         13    1    6    6    0    0 -0.54071817018E+01 -0.44039466962E+02 -0.17604638983E+03  0.18155176573E+03  0.00000000000E+00 0. -1.
        -14    1    6    6    0    0  0.52468326468E+02 -0.62173218599E+01 -0.84394409835E+02  0.99569055358E+02  0.00000000000E+00 0.  1.
<mgrwt>
<rscale>  2 0.18721397E+03</rscale>
<asrwt>0</asrwt>
<pdfrwt beam="1">  1       21 0.97844678E-02 0.18724981E+03</pdfrwt>
<pdfrwt beam="2">  1       21 0.95847810E-01 0.18724981E+03</pdfrwt>
<totfact> 0.76688239E+04</totfact>
</mgrwt>
</event>
<event>
12    1  0.1013215E-001  0.1751640E+03  0.7546771E-02  0.1173023E+00
         21   -1    0    0  501  502  0.00000000000E+00  0.00000000000E+00  0.41811734507E+02  0.41811734507E+02  0.00000000000E+00 0. -1.
         21   -1    0    0  502  503 -0.00000000000E+00 -0.00000000000E+00 -0.82394427502E+03  0.82394427502E+03  0.00000000000E+00 0. -1.
         -6    2    1    2    0  503 -0.21593345161E+02 -0.14462036174E+02 -0.53832278772E+03  0.56554672529E+03  0.17139501643E+03 0.  0.
        -24    2    3    3    0    0 -0.96611276459E+01  0.88557181996E+01 -0.53196514352E+03  0.53818607611E+03  0.80533083035E+02 0.  0.
          6    2    1    2  501    0  0.21593345161E+02  0.14462036174E+02 -0.24380975279E+03  0.30020928424E+03  0.17322527455E+03 0.  0.
         24    2    5    5    0    0 -0.69749678203E+00 -0.13660420594E+02 -0.34979750300E+02  0.88266334015E+02  0.79876587288E+02 0.  0.
          5    1    5    5  501    0  0.22290841943E+02  0.28122456769E+02 -0.20883000249E+03  0.21194295023E+03  0.47000000000E+01 0. -1.
        -11    1    6    6    0    0 -0.80668129004E+01 -0.46352559571E+02 -0.15677156283E+02  0.49592403433E+02  0.00000000000E+00 0.  1.
         12    1    6    6    0    0  0.73693161184E+01  0.32692138976E+02 -0.19302594017E+02  0.38673930582E+02  0.00000000000E+00 0. -1.
         -5    1    3    3    0  503 -0.11932217515E+02 -0.23317754374E+02 -0.63576442028E+01  0.27360649182E+02  0.47000000000E+01 0.  1.
         13    1    4    4    0    0 -0.40978104827E+02 -0.36563192532E+01 -0.18161070625E+03  0.18621230456E+03  0.00000000000E+00 0. -1.
        -14    1    4    4    0    0  0.31316977181E+02  0.12512037453E+02 -0.35035443727E+03  0.35197377154E+03  0.00000000000E+00 0.  1.
<mgrwt>
<rscale>  2 0.17470977E+03</rscale>
<asrwt>0</asrwt>
<pdfrwt beam="1">  1       21 0.64325747E-02 0.17516398E+03</pdfrwt>
<pdfrwt beam="2">  1       21 0.12676065E+00 0.17516398E+03</pdfrwt>
<totfact> 0.81264170E+04</totfact>
</mgrwt>
</event>
<event>
12    1  0.1013215E-001  0.2427401E+03  0.7546771E-02  0.1118422E+00
         21   -1    0    0  503  502  0.00000000000E+00  0.00000000000E+00  0.12983943476E+03  0.12983943476E+03  0.00000000000E+00 0.  1.
         21   -1    0    0  501  503 -0.00000000000E+00 -0.00000000000E+00 -0.78050996712E+03  0.78050996712E+03  0.00000000000E+00 0. -1.
          6    2    1    2  501    0  0.10749587881E+03 -0.12610044860E+03 -0.62101864691E+03  0.66580491464E+03  0.17371049899E+03 0.  0.
         24    2    3    3    0    0  0.73007403047E+02 -0.11553385331E+03 -0.28825934505E+03  0.33106329657E+03  0.88494656165E+02 0.  0.
         -6    2    1    2    0  502 -0.10749587881E+03  0.12610044860E+03 -0.29651885454E+02  0.24454448724E+03  0.17738682259E+03 0.  0.
        -24    2    5    5    0    0 -0.71661722129E+02  0.16117355475E+03 -0.22301414822E+02  0.19364921262E+03  0.76748597881E+02 0.  0.
          5    1    3    3  501    0  0.34488475761E+02 -0.10566595293E+02 -0.33275930186E+03  0.33474161807E+03  0.47000000000E+01 0. -1.
        -13    1    4    4    0    0  0.38174908987E+02 -0.44791896361E+02 -0.41504622340E+02  0.72015771408E+02  0.00000000000E+00 0.  1.
         14    1    4    4    0    0  0.34832494060E+02 -0.70741956944E+02 -0.24675472271E+03  0.25904752517E+03  0.00000000000E+00 0. -1.
         -5    1    5    5    0  502 -0.35834156679E+02 -0.35073106149E+02 -0.73504706319E+01  0.50895274617E+02  0.47000000000E+01 0.  1.
         11    1    6    6    0    0  0.13236460826E+02  0.44833489960E+01  0.50231908819E+00  0.13984156674E+02  0.00000000000E+00 0. -1.
        -12    1    6    6    0    0 -0.84898182956E+02  0.15669020575E+03 -0.22803733910E+02  0.17966505594E+03  0.00000000000E+00 0.  1.
<mgrwt>
<rscale>  2 0.24206900E+03</rscale>
<asrwt>0</asrwt>
<pdfrwt beam="1">  1       21 0.19975297E-01 0.24274013E+03</pdfrwt>
<pdfrwt beam="2">  1       21 0.12007846E+00 0.24274013E+03</pdfrwt>
<totfact> 0.11810554E+04</totfact>
</mgrwt>
</event>
<event>
12    1  0.1013215E-001  0.1884475E+03  0.7546771E-02  0.1160251E+00
         21   -1    0    0  503  502  0.00000000000E+00  0.00000000000E+00  0.10795678810E+03  0.10795678810E+03  0.00000000000E+00 0.  1.
         21   -1    0    0  501  503 -0.00000000000E+00 -0.00000000000E+00 -0.47134965171E+03  0.47134965171E+03  0.00000000000E+00 0.  1.
          6    2    1    2  501    0  0.22764283851E+02  0.65400085805E+02 -0.34195914150E+03  0.38964393958E+03  0.17346746481E+03 0.  0.
         24    2    3    3    0    0  0.53822340313E+02  0.49005795662E+02 -0.33644148045E+03  0.35378434945E+03  0.81682824524E+02 0.  0.
         -6    2    1    2    0  502 -0.22764283851E+02 -0.65400085805E+02 -0.21433722105E+02  0.18966250024E+03  0.17526287602E+03 0.  0.
        -24    2    5    5    0    0 -0.33698946293E+02 -0.74994703692E+02 -0.72602402750E+02  0.13625887289E+03  0.80842729996E+02 0.  0.
          5    1    3    3  501    0 -0.31058056462E+02  0.16394290143E+02 -0.55176610507E+01  0.35859590126E+02  0.47000000000E+01 0. -1.
        -11    1    4    4    0    0  0.24206750495E+02  0.17635467945E+02 -0.28533922350E+03  0.28690669035E+03  0.00000000000E+00 0.  1.
         12    1    4    4    0    0  0.29615589818E+02  0.31370327717E+02 -0.51102256951E+02  0.66877659101E+02  0.00000000000E+00 0. -1.
         -5    1    5    5    0  502  0.10934662442E+02  0.95946178872E+01  0.51168680645E+02  0.53403627349E+02  0.47000000000E+01 0.  1.
         11    1    6    6    0    0  0.50709540872E+01 -0.70129174804E+02 -0.66373373246E+02  0.96691470203E+02  0.00000000000E+00 0. -1.
        -12    1    6    6    0    0 -0.38769900380E+02 -0.48655288880E+01 -0.62290295049E+01  0.39567402687E+02  0.00000000000E+00 0.  1.
<mgrwt>
<rscale>  2 0.18802895E+03</rscale>
<asrwt>0</asrwt>
<pdfrwt beam="1">  1       21 0.16608737E-01 0.18844750E+03</pdfrwt>
<pdfrwt beam="2">  1       21 0.72515330E-01 0.18844750E+03</pdfrwt>
<totfact> 0.55910134E+04</totfact>
</mgrwt>
</event>
<event>
12    1  0.1013215E-001  0.1836435E+03  0.7546771E-02  0.1165659E+00
         21   -1    0    0  501  502  0.00000000000E+00  0.00000000000E+00  0.19431709368E+03  0.19431709368E+03  0.00000000000E+00 0.  1.
         21   -1    0    0  502  503 -0.00000000000E+00 -0.00000000000E+00 -0.21859192829E+03  0.21859192829E+03  0.00000000000E+00 0.  1.
         -6    2    1    2    0  503 -0.61874810226E+02  0.45394421096E+01 -0.11098447067E+03  0.20982403053E+03  0.16691157056E+03 0.  0.
        -24    2    3    3    0    0 -0.88984430486E+02  0.39726422135E+02 -0.54227586125E+02  0.13759876476E+03  0.80600071220E+02 0.  0.
          6    2    1    2  501    0  0.61874810226E+02 -0.45394421096E+01  0.86709636054E+02  0.20308499144E+03  0.17284633085E+03 0.  0.
         24    2    5    5    0    0  0.74613180563E+02  0.36659416847E+02  0.11765691140E+02  0.11649228426E+03  0.80752592813E+02 0.  0.
          5    1    5    5  501    0 -0.12738370337E+02 -0.41198858957E+02  0.74943944914E+02  0.86592707184E+02  0.47000000000E+01 0. -1.
        -11    1    6    6    0    0 -0.50074508872E+00  0.39241017439E+02  0.12946995737E+02  0.41324724971E+02  0.00000000000E+00 0.  1.
         12    1    6    6    0    0  0.75113925652E+02 -0.25816005919E+01 -0.11813045970E+01  0.75167559286E+02  0.00000000000E+00 0. -1.
         -5    1    3    3    0  503  0.27109620260E+02 -0.35186980025E+02 -0.56756884541E+02  0.72225265779E+02  0.47000000000E+01 0.  1.
         11    1    4    4    0    0 -0.55616302071E+02  0.10716611232E+02 -0.70544700148E+02  0.90468632859E+02  0.00000000000E+00 0. -1.
        -12    1    4    4    0    0 -0.33368128415E+02  0.29009810903E+02  0.16317114023E+02  0.47130131897E+02  0.00000000000E+00 0.  1.
<mgrwt>
<rscale>  2 0.18223376E+03</rscale>
<asrwt>0</asrwt>
<pdfrwt beam="1">  1       21 0.29894938E-01 0.18364355E+03</pdfrwt>
<pdfrwt beam="2">  1       21 0.33629527E-01 0.18364355E+03</pdfrwt>
<totfact> 0.91699761E+04</totfact>
</mgrwt>
</event>
<event>
12    1  0.1013215E-001  0.2097946E+03  0.7546771E-02  0.1141957E+00
         21   -1    0    0  503  502  0.00000000000E+00  0.00000000000E+00  0.61353696986E+02  0.61353696986E+02  0.00000000000E+00 0.  1.
         21   -1    0    0  501  503 -0.00000000000E+00 -0.00000000000E+00 -0.79508963513E+03  0.79508963513E+03  0.00000000000E+00 0. -1.
          6    2    1    2  501    0  0.11545154016E+03  0.32330147542E+02 -0.50498679548E+03  0.54683219027E+03  0.17216121554E+03 0.  0.
         24    2    3    3    0    0 -0.97530832908E+00 -0.14551362614E+02 -0.23416954116E+03  0.24830721262E+03  0.81292093404E+02 0.  0.
         -6    2    1    2    0  502 -0.11545154016E+03 -0.32330147542E+02 -0.22874914267E+03  0.30961114185E+03  0.17075887187E+03 0.  0.
        -24    2    5    5    0    0 -0.50368413046E+02  0.45697450357E+02 -0.11988853039E+03  0.16062509427E+03  0.82473796980E+02 0.  0.
          5    1    3    3  501    0  0.11642684849E+03  0.46881510156E+02 -0.27081725432E+03  0.29852497765E+03  0.47000000000E+01 0. -1.
        -13    1    4    4    0    0  0.31522205829E+02 -0.20825580570E+02 -0.59152673185E+02  0.70188268331E+02  0.00000000000E+00 0.  1.
         14    1    4    4    0    0 -0.32497514159E+02  0.62742179555E+01 -0.17501686798E+03  0.17811894429E+03  0.00000000000E+00 0. -1.
         -5    1    5    5    0  502 -0.65083127113E+02 -0.78027597899E+02 -0.10886061227E+03  0.14898604758E+03  0.47000000000E+01 0.  1.
         13    1    6    6    0    0 -0.63397241541E+02  0.21161774882E+02 -0.11412124843E+03  0.13225237350E+03  0.00000000000E+00 0. -1.
        -14    1    6    6    0    0  0.13028828495E+02  0.24535675475E+02 -0.57672819577E+01  0.28372720775E+02  0.00000000000E+00 0.  1.
<mgrwt>
<rscale>  2 0.20950671E+03</rscale>
<asrwt>0</asrwt>
<pdfrwt beam="1">  1       21 0.94390309E-02 0.20979462E+03</pdfrwt>
<pdfrwt beam="2">  1       21 0.12232147E+00 0.20979462E+03</pdfrwt>
<totfact> 0.44820190E+04</totfact>
</mgrwt>
</event>
<event>
12    1  0.1013215E-001  0.2732159E+03  0.7546771E-02  0.1099838E+00
         21   -1    0    0  503  502  0.00000000000E+00  0.00000000000E+00  0.18380964505E+03  0.18380964505E+03  0.00000000000E+00 0.  1.
         21   -1    0    0  501  503 -0.00000000000E+00 -0.00000000000E+00 -0.45469272386E+03  0.45469272386E+03  0.00000000000E+00 0. -1.
          6    2    1    2  501    0  0.58951917885E+02 -0.20383242556E+03 -0.24463955048E+03  0.36673616923E+03  0.17211601272E+03 0.  0.
         24    2    3    3    0    0  0.14457030231E+02 -0.19829826401E+02 -0.80790940129E+02  0.11632608829E+03  0.80014717846E+02 0.  0.
         -6    2    1    2    0  502 -0.58951917885E+02  0.20383242556E+03 -0.26243528327E+02  0.27176619968E+03  0.16776518763E+03 0.  0.
        -24    2    5    5    0    0 -0.40372453274E+02  0.22307712427E+03 -0.37445306415E+02  0.24238721457E+03  0.77175594961E+02 0.  0.
          5    1    3    3  501    0  0.44494887654E+02 -0.18400259915E+03 -0.16384861035E+03  0.25041008094E+03  0.47000000000E+01 0. -1.
        -13    1    4    4    0    0  0.42428519596E+02  0.90648678529E+00 -0.66063662226E+02  0.78520115003E+02  0.00000000000E+00 0.  1.
         14    1    4    4    0    0 -0.27971489365E+02 -0.20736313186E+02 -0.14727277904E+02  0.37805973288E+02  0.00000000000E+00 0. -1.
         -5    1    5    5    0  502 -0.18579464612E+02 -0.19244698715E+02  0.11201778088E+02  0.29378985112E+02  0.47000000000E+01 0.  1.
         13    1    6    6    0    0  0.15991836075E+01 -0.46623273761E+01 -0.73718568420E+01  0.88678609637E+01  0.00000000000E+00 0. -1.
        -14    1    6    6    0    0 -0.41971636881E+02  0.22773945165E+03 -0.30073449573E+02  0.23351935360E+03  0.00000000000E+00 0.  1.
<mgrwt>
<rscale>  2 0.27253337E+03</rscale>
<asrwt>0</asrwt>
<pdfrwt beam="1">  1       21 0.28278407E-01 0.27321586E+03</pdfrwt>
<pdfrwt beam="2">  1       21 0.69952725E-01 0.27321586E+03</pdfrwt>
<totfact> 0.21275420E+04</totfact>
</mgrwt>
</event>
<event>
12    1  0.1013215E-001  0.2284304E+03  0.7546771E-02  0.1128938E+00
         21   -1    0    0  501  502  0.00000000000E+00  0.00000000000E+00  0.16643542759E+03  0.16643542759E+03  0.00000000000E+00 0. -1.
         21   -1    0    0  502  503 -0.00000000000E+00 -0.00000000000E+00 -0.32359758176E+03  0.32359758176E+03  0.00000000000E+00 0. -1.
         -6    2    1    2    0  503 -0.33151340873E+02 -0.13549490979E+03 -0.13695378661E+03  0.26071051028E+03  0.17249854644E+03 0.  0.
        -24    2    3    3    0    0  0.14280213953E+02 -0.14678363326E+02 -0.19943584385E+02  0.85896701569E+02  0.81000727909E+02 0.  0.
          6    2    1    2  501    0  0.33151340873E+02  0.13549490979E+03 -0.20208367567E+02  0.22932249906E+03  0.18089374914E+03 0.  0.
         24    2    5    5    0    0  0.55029375288E+02  0.20787671978E+02  0.24713476097E+02  0.10411682493E+03  0.82275135265E+02 0.  0.
          5    1    5    5  501    0 -0.21878034415E+02  0.11470723781E+03 -0.44921843664E+02  0.12520567413E+03  0.47000000000E+01 0. -1.
        -13    1    6    6    0    0  0.90325923735E+01  0.28604297019E+02  0.44312972269E+02  0.53511055346E+02  0.00000000000E+00 0.  1.
         14    1    6    6    0    0  0.45996782914E+02 -0.78166250406E+01 -0.19599496172E+02  0.50605769589E+02  0.00000000000E+00 0. -1.
         -5    1    3    3    0  503 -0.47431554826E+02 -0.12081654646E+03 -0.11701020222E+03  0.17481380871E+03  0.47000000000E+01 0.  1.
         13    1    4    4    0    0  0.67834285262E+01 -0.42450316606E+02  0.10249777905E+02  0.44193916206E+02  0.00000000000E+00 0. -1.
        -14    1    4    4    0    0  0.74967854265E+01  0.27771953280E+02 -0.30193362289E+02  0.41702785363E+02  0.00000000000E+00 0.  1.
<mgrwt>
<rscale>  2 0.22676501E+03</rscale>
<asrwt>0</asrwt>
<pdfrwt beam="1">  1       21 0.25605451E-01 0.22843036E+03</pdfrwt>
<pdfrwt beam="2">  1       21 0.49784243E-01 0.22843036E+03</pdfrwt>
<totfact> 0.54734366E+04</totfact>
</mgrwt>
</event>
<event>
12    1  0.1013215E-001  0.2204802E+03  0.7546771E-02  0.1133741E+00
         21   -1    0    0  503  502  0.00000000000E+00  0.00000000000E+00  0.12241469327E+03  0.12241469327E+03  0.00000000000E+00 0. -1.
         21   -1    0    0  501  503 -0.00000000000E+00 -0.00000000000E+00 -0.42445131618E+03  0.42445131618E+03  0.00000000000E+00 0.  1.
          6    2    1    2  501    0 -0.13179274119E+03 -0.36099940016E+02 -0.22338191547E+03  0.31386459484E+03  0.17302881676E+03 0.  0.
         24    2    3    3    0    0 -0.22676195707E+02 -0.61515376616E+02 -0.83952561181E+02  0.13493723596E+03  0.82835220210E+02 0.  0.
         -6    2    1    2    0  502  0.13179274119E+03  0.36099940016E+02 -0.78654707432E+02  0.23300141461E+03  0.17155338501E+03 0.  0.
        -24    2    5    5    0    0  0.10835479034E+03  0.79325038876E+01  0.11533439359E+02  0.13553996675E+03  0.80214569468E+02 0.  0.
          5    1    3    3  501    0 -0.10911654548E+03  0.25415436600E+02 -0.13942935429E+03  0.17892735888E+03  0.47000000000E+01 0. -1.
        -13    1    4    4    0    0 -0.11839762783E+02  0.20079162813E+02 -0.17444734517E+02  0.29114799061E+02  0.00000000000E+00 0.  1.
         14    1    4    4    0    0 -0.10836432924E+02 -0.81594539429E+02 -0.66507826665E+02  0.10582243690E+03  0.00000000000E+00 0. -1.
         -5    1    5    5    0  502  0.23437950851E+02  0.28167436128E+02 -0.90188146791E+02  0.97461447864E+02  0.47000000000E+01 0.  1.
         13    1    6    6    0    0  0.91820617971E+02  0.33112992097E+02  0.27550867090E+02  0.10142261290E+03  0.00000000000E+00 0. -1.
        -14    1    6    6    0    0  0.16534172369E+02 -0.25180488210E+02 -0.16017427731E+02  0.34117353847E+02  0.00000000000E+00 0.  1.
<mgrwt>
<rscale>  2 0.22019060E+03</rscale>
<asrwt>0</asrwt>
<pdfrwt beam="1">  1       21 0.18833029E-01 0.22048017E+03</pdfrwt>
<pdfrwt beam="2">  1       21 0.65300204E-01 0.22048017E+03</pdfrwt>
<totfact> 0.54989344E+04</totfact>
</mgrwt>
</event>
<event>
12    1  0.1013215E-001  0.1815568E+03  0.7546771E-02  0.1166483E+00
         21   -1    0    0  501  502  0.00000000000E+00  0.00000000000E+00  0.56778587871E+03  0.56778587871E+03  0.00000000000E+00 0. -1.
         21   -1    0    0  502  503 -0.00000000000E+00 -0.00000000000E+00 -0.21523221203E+03  0.21523221203E+03  0.00000000000E+00 0. -1.
         -6    2    1    2    0  503 -0.37371058977E+02 -0.36385223514E+02 -0.15864031618E+03  0.24054028383E+03  0.17312538141E+03 0.  0.
        -24    2    3    3    0    0  0.15405297810E+02 -0.50969667370E+02 -0.15808096558E+03  0.18558163837E+03  0.81337092574E+02 0.  0.
          6    2    1    2  501    0  0.37371058977E+02  0.36385223514E+02  0.51119398286E+03  0.54247780690E+03  0.17390342817E+03 0.  0.
         24    2    5    5    0    0  0.15669309869E+02  0.62377290301E+02  0.16197320267E+03  0.19158780025E+03  0.79587142209E+02 0.  0.
          5    1    5    5  501    0  0.21701749107E+02 -0.25992066787E+02  0.34922078019E+03  0.35089000665E+03  0.47000000000E+01 0. -1.
        -13    1    6    6    0    0 -0.25120603948E+02  0.51664888429E+02  0.71123997337E+02  0.91427175590E+02  0.00000000000E+00 0.  1.
         14    1    6    6    0    0  0.40789913818E+02  0.10712401872E+02  0.90849205330E+02  0.10016062466E+03  0.00000000000E+00 0. -1.
         -5    1    3    3    0  503 -0.52776356787E+02  0.14584443856E+02 -0.55935060725E+00  0.54958645466E+02  0.47000000000E+01 0.  1.
         11    1    4    4    0    0 -0.21625660423E+01 -0.39929762348E+02 -0.17794000009E+02  0.43768585188E+02  0.00000000000E+00 0. -1.
        -12    1    4    4    0    0  0.17567863853E+02 -0.11039905022E+02 -0.14028696557E+03  0.14181305318E+03  0.00000000000E+00 0.  1.
<mgrwt>
<rscale>  2 0.18137027E+03</rscale>
<asrwt>0</asrwt>
<pdfrwt beam="1">  1       21 0.87351673E-01 0.18155683E+03</pdfrwt>
<pdfrwt beam="2">  1       21 0.33112648E-01 0.18155683E+03</pdfrwt>
<totfact> 0.99610644E+03</totfact>
</mgrwt>
</event>
<event>
12    1  0.1013215E-001  0.2681092E+03  0.7546771E-02  0.1103839E+00
         21   -1    0    0  503  502  0.00000000000E+00  0.00000000000E+00  0.12380641867E+03  0.12380641867E+03  0.00000000000E+00 0.  1.
         21   -1    0    0  501  503 -0.00000000000E+00 -0.00000000000E+00 -0.55920636857E+03  0.55920636857E+03  0.00000000000E+00 0.  1.
          6    2    1    2  501    0  0.77000823363E+02  0.17523008135E+03 -0.21656688402E+03  0.33693413417E+03  0.17317242074E+03 0.  0.
         24    2    3    3    0    0  0.51655386711E+02  0.76063920672E+02 -0.19811603514E+03  0.23282437282E+03  0.80642583034E+02 0.  0.
         -6    2    1    2    0  502 -0.77000823363E+02 -0.17523008135E+03 -0.21883306588E+03  0.34607865307E+03  0.18774401503E+03 0.  0.
        -24    2    5    5    0    0 -0.91332290799E+01 -0.11528553160E+02 -0.10917140780E+03  0.13762729199E+03  0.82501829111E+02 0.  0.
          5    1    3    3  501    0  0.25345436652E+02  0.99166160678E+02 -0.18450848888E+02  0.10410976135E+03  0.47000000000E+01 0. -1.
        -11    1    4    4    0    0  0.59662550408E+02  0.84630295715E+02 -0.14346590375E+03  0.17693041686E+03  0.00000000000E+00 0.  1.
         12    1    4    4    0    0 -0.80071636969E+01 -0.85663750439E+01 -0.54650131389E+02  0.55893955958E+02  0.00000000000E+00 0. -1.
         -5    1    5    5    0  502 -0.67867594283E+02 -0.16370152819E+03 -0.10966165808E+03  0.20845136108E+03  0.47000000000E+01 0.  1.
         13    1    6    6    0    0  0.29059212830E+02 -0.71327347717E+01 -0.10466169166E+02  0.31699439311E+02  0.00000000000E+00 0. -1.
        -14    1    6    6    0    0 -0.38192441909E+02 -0.43958183886E+01 -0.98705238635E+02  0.10592785268E+03  0.00000000000E+00 0.  1.
<mgrwt>
<rscale>  2 0.26557494E+03</rscale>
<asrwt>0</asrwt>
<pdfrwt beam="1">  1       21 0.19047141E-01 0.26810916E+03</pdfrwt>
<pdfrwt beam="2">  1       21 0.86031751E-01 0.26810916E+03</pdfrwt>
<totfact> 0.28378864E+04</totfact>
</mgrwt>
</event>
<event>
12    1  0.1013215E-001  0.1940454E+03  0.7546771E-02  0.1155073E+00
         21   -1    0    0  503  502  0.00000000000E+00  0.00000000000E+00  0.11665984114E+03  0.11665984114E+03  0.00000000000E+00 0.  1.
         21   -1    0    0  501  503 -0.00000000000E+00 -0.00000000000E+00 -0.32959989816E+03  0.32959989816E+03  0.00000000000E+00 0.  1.
          6    2    1    2  501    0 -0.67292098660E+02 -0.58799521738E+02 -0.14240452241E+03  0.24069203549E+03  0.17224400612E+03 0.  0.
         24    2    3    3    0    0 -0.99013041065E+02 -0.82418877246E+02 -0.11578837245E+03  0.19279003573E+03  0.84643942820E+02 0.  0.
         -6    2    1    2    0  502  0.67292098660E+02  0.58799521738E+02 -0.70535534609E+02  0.20556770382E+03  0.17116427463E+03 0.  0.
        -24    2    5    5    0    0  0.80529450068E+02 -0.65894256926E+01 -0.80060259575E+02  0.13801215405E+03  0.78161989761E+02 0.  0.
          5    1    3    3  501    0  0.31720942405E+02  0.23619355508E+02 -0.26616149964E+02  0.47901999755E+02  0.47000000000E+01 0. -1.
        -13    1    4    4    0    0 -0.22229518248E+02 -0.54833278942E+02 -0.11326775553E+02  0.60242309098E+02  0.00000000000E+00 0.  1.
         14    1    4    4    0    0 -0.76783522817E+02 -0.27585598303E+02 -0.10446159690E+03  0.13254772663E+03  0.00000000000E+00 0. -1.
         -5    1    5    5    0  502 -0.13237351408E+02  0.65388947431E+02  0.95247249660E+01  0.67555549765E+02  0.47000000000E+01 0.  1.
         11    1    6    6    0    0  0.50428393742E+02 -0.35404880655E+02 -0.73366122192E+02  0.95807705092E+02  0.00000000000E+00 0. -1.
        -12    1    6    6    0    0  0.30101056326E+02  0.28815454962E+02 -0.66941373835E+01  0.42204448959E+02  0.00000000000E+00 0.  1.
<mgrwt>
<rscale>  2 0.19380549E+03</rscale>
<asrwt>0</asrwt>
<pdfrwt beam="1">  1       21 0.17947668E-01 0.19404538E+03</pdfrwt>
<pdfrwt beam="2">  1       21 0.50707677E-01 0.19404538E+03</pdfrwt>
<totfact> 0.10439673E+05</totfact>
</mgrwt>
</event>
<event>
12    1  0.1013215E-001  0.2026515E+03  0.7546771E-02  0.1147761E+00
         21   -1    0    0  503  502  0.00000000000E+00  0.00000000000E+00  0.39115896469E+02  0.39115896469E+02  0.00000000000E+00 0. -1.
         21   -1    0    0  501  503 -0.00000000000E+00 -0.00000000000E+00 -0.13736335437E+04  0.13736335437E+04  0.00000000000E+00 0.  1.
          6    2    1    2  501    0  0.30125729591E+02  0.10181557032E+03 -0.10118818800E+04  0.10317488354E+04  0.17125054894E+03 0.  0.
         24    2    3    3    0    0  0.60554028358E+02  0.11690295154E+03 -0.93383368548E+03  0.94650142434E+03  0.80538833631E+02 0.  0.
         -6    2    1    2    0  502 -0.30125729591E+02 -0.10181557032E+03 -0.32263576729E+03  0.38100060474E+03  0.17260837910E+03 0.  0.
        -24    2    5    5    0    0 -0.71633411545E+02 -0.10302708908E+03 -0.29553795667E+03  0.33119360946E+03  0.81244054409E+02 0.  0.
          5    1    3    3  501    0 -0.30428298767E+02 -0.15087381218E+02 -0.78048194479E+02  0.85247411100E+02  0.47000000000E+01 0. -1.
        -13    1    4    4    0    0  0.74719546724E+02  0.75802206945E+02 -0.54922241692E+03  0.55944101431E+03  0.00000000000E+00 0.  1.
         14    1    4    4    0    0 -0.14165518366E+02  0.41100744594E+02 -0.38461126856E+03  0.38706041004E+03  0.00000000000E+00 0. -1.
         -5    1    5    5    0  502  0.41507681954E+02  0.12115187585E+01 -0.27097810613E+02  0.49806995281E+02  0.47000000000E+01 0.  1.
         13    1    6    6    0    0 -0.35314580457E+02 -0.82062185365E+02 -0.11378924231E+03  0.14466967037E+03  0.00000000000E+00 0. -1.
        -14    1    6    6    0    0 -0.36318831089E+02 -0.20964903715E+02 -0.18174871436E+03  0.18652393909E+03  0.00000000000E+00 0.  1.
<mgrwt>
<rscale>  2 0.20236204E+03</rscale>
<asrwt>0</asrwt>
<pdfrwt beam="1">  1       21 0.60178306E-02 0.20265148E+03</pdfrwt>
<pdfrwt beam="2">  1       21 0.21132823E+00 0.20265148E+03</pdfrwt>
<totfact> 0.22162439E+04</totfact>
</mgrwt>
</event>
<event>
12    1  0.1013215E-001  0.2056889E+03  0.7546771E-02  0.1145759E+00
         21   -1    0    0  503  502  0.00000000000E+00  0.00000000000E+00  0.53537419858E+02  0.53537419858E+02  0.00000000000E+00 0. -1.
         21   -1    0    0  501  503 -0.00000000000E+00 -0.00000000000E+00 -0.10494109352E+04  0.10494109352E+04  0.00000000000E+00 0. -1.
          6    2    1    2  501    0 -0.10067787857E+02 -0.10177970947E+03 -0.78233733760E+03  0.80892499879E+03  0.17845860659E+03 0.  0.
         24    2    3    3    0    0 -0.22892275390E+02 -0.24460228356E+02 -0.16657600276E+03  0.18817796407E+03  0.80876587601E+02 0.  0.
         -6    2    1    2    0  502  0.10067787857E+02  0.10177970947E+03 -0.21353617775E+03  0.29402335627E+03  0.17433176765E+03 0.  0.
        -24    2    5    5    0    0  0.50152532672E+02  0.10528732658E+03 -0.95975551421E+02  0.16967834830E+03  0.77322297813E+02 0.  0.
          5    1    3    3  501    0  0.12824487533E+02 -0.77319481117E+02 -0.61576133484E+03  0.62074703473E+03  0.47000000000E+01 0. -1.
        -13    1    4    4    0    0  0.11125937568E+02 -0.44106136607E+02 -0.65584213699E+02  0.79814953860E+02  0.00000000000E+00 0.  1.
         14    1    4    4    0    0 -0.34018212958E+02  0.19645908251E+02 -0.10099178906E+03  0.10836301021E+03  0.00000000000E+00 0. -1.
         -5    1    5    5    0  502 -0.40084744815E+02 -0.35076171034E+01 -0.11756062633E+03  0.12434500798E+03  0.47000000000E+01 0.  1.
         11    1    6    6    0    0  0.29925991949E+01  0.90375525572E+02 -0.60088635242E+02  0.10856949552E+03  0.00000000000E+00 0. -1.
        -12    1    6    6    0    0  0.47159933477E+02  0.14911801004E+02 -0.35886916178E+02  0.61108852776E+02  0.00000000000E+00 0.  1.
<mgrwt>
<rscale>  2 0.20479056E+03</rscale>
<asrwt>0</asrwt>
<pdfrwt beam="1">  1       21 0.82365264E-02 0.20568895E+03</pdfrwt>
<pdfrwt beam="2">  1       21 0.16144783E+00 0.20568895E+03</pdfrwt>
<totfact> 0.27782395E+04</totfact>
</mgrwt>
</event>
<event>
12    1  0.1013215E-001  0.2224749E+03  0.7546771E-02  0.1132183E+00
         21   -1    0    0  501  502  0.00000000000E+00  0.00000000000E+00  0.73738520548E+03  0.73738520548E+03  0.00000000000E+00 0. -1.
         21   -1    0    0  502  503 -0.00000000000E+00 -0.00000000000E+00 -0.95875152580E+02  0.95875152580E+02  0.00000000000E+00 0.  1.
         -6    2    1    2    0  503 -0.46643634600E+02 -0.13084891072E+03  0.55013040043E+03  0.59341262851E+03  0.17377578693E+03 0.  0.
        -24    2    3    3    0    0 -0.12868424090E+02 -0.12039920855E+03  0.53347696814E+03  0.55405036324E+03  0.87821203109E+02 0.  0.
          6    2    1    2  501    0  0.46643634600E+02  0.13084891072E+03  0.91379652477E+02  0.23984772955E+03  0.17285724283E+03 0.  0.
         24    2    5    5    0    0  0.31559628377E+02  0.16356456678E+03  0.84813101409E+02  0.20292820913E+03  0.78976061196E+02 0.  0.
          5    1    5    5  501    0  0.15084006223E+02 -0.32715656059E+02  0.65665510688E+01  0.36919520420E+02  0.47000000000E+01 0. -1.
        -11    1    6    6    0    0 -0.25972818633E+02  0.35763864371E+02  0.20045239844E+02  0.48533008797E+02  0.00000000000E+00 0.  1.
         12    1    6    6    0    0  0.57532447009E+02  0.12780070240E+03  0.64767861565E+02  0.15439520033E+03  0.00000000000E+00 0. -1.
         -5    1    3    3    0  503 -0.33775210510E+02 -0.10449702169E+02  0.16653432285E+02  0.39362265271E+02  0.47000000000E+01 0.  1.
         13    1    4    4    0    0 -0.32348449496E+01  0.10766178817E+02  0.11119320804E+03  0.11176003016E+03  0.00000000000E+00 0. -1.
        -14    1    4    4    0    0 -0.96335791402E+01 -0.13116538736E+03  0.42228376010E+03  0.44229033308E+03  0.00000000000E+00 0.  1.
<mgrwt>
<rscale>  2 0.22229552E+03</rscale>
<asrwt>0</asrwt>
<pdfrwt beam="1">  1       21 0.11344387E+00 0.22247492E+03</pdfrwt>
<pdfrwt beam="2">  1       21 0.14750024E-01 0.22247492E+03</pdfrwt>
<totfact> 0.24085324E+04</totfact>
</mgrwt>
</event>
<event>
12    1  0.1013215E-001  0.2387977E+03  0.7546771E-02  0.1121435E+00
         21   -1    0    0  503  502  0.00000000000E+00  0.00000000000E+00  0.23431263836E+03  0.23431263836E+03  0.00000000000E+00 0.  1.
         21   -1    0    0  501  503 -0.00000000000E+00 -0.00000000000E+00 -0.28146240805E+03  0.28146240805E+03  0.00000000000E+00 0.  1.
          6    2    1    2  501    0  0.66075117312E+02  0.14782576022E+03 -0.12470625645E+03  0.26939929722E+03  0.17551625119E+03 0.  0.
         24    2    3    3    0    0  0.10811701624E+03  0.13112494250E+03 -0.81185737298E+02  0.20645039600E+03  0.84543493671E+02 0.  0.
         -6    2    1    2    0  502 -0.66075117312E+02 -0.14782576022E+03  0.77556486759E+02  0.24637574918E+03  0.16872351535E+03 0.  0.
        -24    2    5    5    0    0 -0.22375729938E+02 -0.15581579758E+03  0.91977542942E+02  0.19943393397E+03  0.80838045182E+02 0.  0.
          5    1    3    3  501    0 -0.42041898926E+02  0.16700817728E+02 -0.43520519150E+02  0.62948901223E+02  0.47000000000E+01 0. -1.
        -13    1    4    4    0    0  0.98897293674E+02  0.13764884608E+03 -0.90199951507E+02  0.19199976764E+03  0.00000000000E+00 0.  1.
         14    1    4    4    0    0  0.92197225638E+01 -0.65239035810E+01  0.90142142088E+01  0.14450628356E+02  0.00000000000E+00 0. -1.
         -5    1    5    5    0  502 -0.43699387374E+02  0.79900373545E+01 -0.14421056183E+02  0.46941815211E+02  0.47000000000E+01 0.  1.
         13    1    6    6    0    0 -0.83795969010E+01  0.85297066152E+01  0.75506201179E+01  0.14141619544E+02  0.00000000000E+00 0. -1.
        -14    1    6    6    0    0 -0.13996133037E+02 -0.16434550419E+03  0.84426922824E+02  0.18529231443E+03  0.00000000000E+00 0.  1.
<mgrwt>
<rscale>  2 0.23755113E+03</rscale>
<asrwt>0</asrwt>
<pdfrwt beam="1">  1       21 0.36048098E-01 0.23879768E+03</pdfrwt>
<pdfrwt beam="2">  1       21 0.43301909E-01 0.23879768E+03</pdfrwt>
<totfact> 0.37200654E+04</totfact>
</mgrwt>
</event>
<event>
12    1  0.1013215E-001  0.2078076E+03  0.7546771E-02  0.1144407E+00
         21   -1    0    0  503  502  0.00000000000E+00  0.00000000000E+00  0.10155088572E+04  0.10155088572E+04  0.00000000000E+00 0.  1.
         21   -1    0    0  501  503 -0.00000000000E+00 -0.00000000000E+00 -0.92222311946E+02  0.92222311946E+02  0.00000000000E+00 0. -1.
          6    2    1    2  501    0  0.80934745636E+02 -0.83207613452E+02  0.53343926581E+02  0.21454506738E+03  0.17236609715E+03 0.  0.
         24    2    3    3    0    0 -0.26949013836E+01 -0.35023871625E+02  0.74976679491E+02  0.11552155081E+03  0.80559246249E+02 0.  0.
         -6    2    1    2    0  502 -0.80934745636E+02  0.83207613452E+02  0.86994261871E+03  0.89318610180E+03  0.16585328641E+03 0.  0.
        -24    2    5    5    0    0  0.12581722387E+02  0.33755899916E+02  0.52459645814E+03  0.53197029043E+03  0.80580304597E+02 0.  0.
          5    1    3    3  501    0  0.83629647019E+02 -0.48183741827E+02 -0.21632752909E+02  0.99023516578E+02  0.47000000000E+01 0. -1.
        -13    1    4    4    0    0  0.14526124594E+02  0.23050312171E+02  0.21221289738E+02  0.34535030404E+02  0.00000000000E+00 0.  1.
         14    1    4    4    0    0 -0.17221025977E+02 -0.58074183796E+02  0.53755389753E+02  0.80986520402E+02  0.00000000000E+00 0. -1.
         -5    1    5    5    0  502 -0.93516468022E+02  0.49451713536E+02  0.34534616056E+03  0.36121581136E+03  0.47000000000E+01 0.  1.
         11    1    6    6    0    0  0.13757538414E+02  0.31741144306E+02  0.77532965434E+02  0.84900711623E+02  0.00000000000E+00 0. -1.
        -12    1    6    6    0    0 -0.11758160276E+01  0.20147556094E+01  0.44706349271E+03  0.44706957881E+03  0.00000000000E+00 0.  1.
<mgrwt>
<rscale>  2 0.20645208E+03</rscale>
<asrwt>0</asrwt>
<pdfrwt beam="1">  1       21 0.15623212E+00 0.20780763E+03</pdfrwt>
<pdfrwt beam="2">  1       21 0.14188049E-01 0.20780763E+03</pdfrwt>
<totfact> 0.11516411E+04</totfact>
</mgrwt>
</event>
<event>
12    1  0.1013215E-001  0.2835197E+03  0.7546771E-02  0.1093914E+00
         21   -1    0    0  501  502  0.00000000000E+00  0.00000000000E+00  0.50732392421E+03  0.50732392421E+03  0.00000000000E+00 0.  1.
         21   -1    0    0  502  503 -0.00000000000E+00 -0.00000000000E+00 -0.19571490166E+03  0.19571490166E+03  0.00000000000E+00 0. -1.
         -6    2    1    2    0  503 -0.10637052415E+03  0.19746167633E+03  0.10650953990E+01  0.28253796402E+03  0.17181607799E+03 0.  0.
        -24    2    3    3    0    0 -0.85181784852E+02  0.46952508108E+02 -0.19012706503E+02  0.12915223939E+03  0.82815116021E+02 0.  0.
          6    2    1    2  501    0  0.10637052415E+03 -0.19746167633E+03  0.31054392715E+03  0.42050086185E+03  0.17342906938E+03 0.  0.
         24    2    5    5    0    0  0.96850454810E+02 -0.70539069810E+02  0.22382252154E+03  0.26641428893E+03  0.80773022903E+02 0.  0.
          5    1    5    5  501    0  0.95200693356E+01 -0.12692260652E+03  0.86721405603E+02  0.15408657292E+03  0.47000000000E+01 0. -1.
        -13    1    6    6    0    0  0.41457725882E+02 -0.78011982410E+02  0.12919774989E+03  0.15651412400E+03  0.00000000000E+00 0.  1.
         14    1    6    6    0    0  0.55392728928E+02  0.74729126008E+01  0.94624771659E+02  0.10990016493E+03  0.00000000000E+00 0. -1.
         -5    1    3    3    0  503 -0.21188739294E+02  0.15050916822E+03  0.20077801902E+02  0.15338572463E+03  0.47000000000E+01 0.  1.
         13    1    4    4    0    0 -0.24283076793E+02  0.19559230414E+02 -0.47282981082E+02  0.56638428765E+02  0.00000000000E+00 0. -1.
        -14    1    4    4    0    0 -0.60898708059E+02  0.27393277694E+02  0.28270274578E+02  0.72513810621E+02  0.00000000000E+00 0.  1.
<mgrwt>
<rscale>  2 0.28327347E+03</rscale>
<asrwt>0</asrwt>
<pdfrwt beam="1">  1       21 0.78049834E-01 0.28351974E+03</pdfrwt>
<pdfrwt beam="2">  1       21 0.30109985E-01 0.28351974E+03</pdfrwt>
<totfact> 0.14639124E+04</totfact>
</mgrwt>
</event>
<event>
12    1  0.1013215E-001  0.1963470E+03  0.7546771E-02  0.1153000E+00
         21   -1    0    0  503  502  0.00000000000E+00  0.00000000000E+00  0.13303543232E+03  0.13303543232E+03  0.00000000000E+00 0.  1.
         21   -1    0    0  501  503 -0.00000000000E+00 -0.00000000000E+00 -0.32615032003E+03  0.32615032003E+03  0.00000000000E+00 0.  1.
          6    2    1    2  501    0 -0.56403785644E+02  0.73669452096E+02 -0.17436967723E+03  0.26259654046E+03  0.17304214376E+03 0.  0.
         24    2    3    3    0    0 -0.62997313730E+02  0.10751100310E+03 -0.17371141774E+03  0.22779354500E+03  0.78657263912E+02 0.  0.
         -6    2    1    2    0  502  0.56403785644E+02 -0.73669452096E+02 -0.18745210473E+02  0.19658921189E+03  0.17230020345E+03 0.  0.
        -24    2    5    5    0    0  0.69275322208E+02 -0.10633246009E+03  0.12987429777E+02  0.14903293994E+03  0.77048565965E+02 0.  0.
          5    1    3    3  501    0  0.65935280859E+01 -0.33841551005E+02 -0.65825948468E+00  0.34802995454E+02  0.47000000000E+01 0. -1.
        -13    1    4    4    0    0  0.65089754879E+01  0.37576545778E+02 -0.15066431254E+02  0.41004401047E+02  0.00000000000E+00 0.  1.
         14    1    4    4    0    0 -0.69506289218E+02  0.69934457323E+02 -0.15864498649E+03  0.18678914396E+03  0.00000000000E+00 0. -1.
         -5    1    5    5    0  502 -0.12871536563E+02  0.32663007997E+02 -0.31732640251E+02  0.47556271954E+02  0.47000000000E+01 0.  1.
         13    1    6    6    0    0  0.53290031179E+02 -0.19128392270E+02  0.20123995160E+02  0.60089083827E+02  0.00000000000E+00 0. -1.
        -14    1    6    6    0    0  0.15985291028E+02 -0.87204067823E+02 -0.71365653828E+01  0.88943856109E+02  0.00000000000E+00 0.  1.
<mgrwt>
<rscale>  2 0.19618344E+03</rscale>
<asrwt>0</asrwt>
<pdfrwt beam="1">  1       21 0.20466990E-01 0.19634704E+03</pdfrwt>
<pdfrwt beam="2">  1       21 0.50176972E-01 0.19634704E+03</pdfrwt>
<totfact> 0.83493105E+04</totfact>
</mgrwt>
</event>
<event>
12    1  0.1013215E-001  0.1791083E+03  0.7546771E-02  0.1169185E+00
         21   -1    0    0  503  502  0.00000000000E+00  0.00000000000E+00  0.15295792988E+03  0.15295792988E+03  0.00000000000E+00 0.  1.
         21   -1    0    0  501  503 -0.00000000000E+00 -0.00000000000E+00 -0.44357559945E+03  0.44357559945E+03  0.00000000000E+00 0.  1.
          6    2    1    2  501    0  0.23196104464E+02 -0.40525309390E+02 -0.36340856136E+03  0.40514879746E+03  0.17291444603E+03 0.  0.
         24    2    3    3    0    0 -0.19936969343E+02  0.16976104645E+02 -0.29037220617E+03  0.30256578789E+03  0.80897262059E+02 0.  0.
         -6    2    1    2    0  502 -0.23196104464E+02  0.40525309390E+02  0.72790891790E+02  0.19138473187E+03  0.17073149007E+03 0.  0.
        -24    2    5    5    0    0  0.42872014729E+01  0.54755392329E+02 -0.19234638861E+02  0.94180741947E+02  0.74050710571E+02 0.  0.
          5    1    3    3  501    0  0.43133073808E+02 -0.57501414035E+02 -0.73036355187E+02  0.10258300956E+03  0.47000000000E+01 0. -1.
        -11    1    4    4    0    0 -0.50389834077E+02  0.20445556086E+02 -0.18558876394E+03  0.19339168918E+03  0.00000000000E+00 0.  1.
         12    1    4    4    0    0  0.30452864733E+02 -0.34694514412E+01 -0.10478344223E+03  0.10917409871E+03  0.00000000000E+00 0. -1.
         -5    1    5    5    0  502 -0.27483305937E+02 -0.14230082939E+02  0.92025530651E+02  0.97203989925E+02  0.47000000000E+01 0.  1.
         11    1    6    6    0    0 -0.12105163805E+02 -0.15674282109E+02 -0.25426119455E+01  0.19967047501E+02  0.00000000000E+00 0. -1.
        -12    1    6    6    0    0  0.16392365278E+02  0.70429674438E+02 -0.16692026915E+02  0.74213694447E+02  0.00000000000E+00 0.  1.
<mgrwt>
<rscale>  2 0.17857927E+03</rscale>
<asrwt>0</asrwt>
<pdfrwt beam="1">  1       21 0.23531990E-01 0.17910825E+03</pdfrwt>
<pdfrwt beam="2">  1       21 0.68242399E-01 0.17910825E+03</pdfrwt>
<totfact> 0.33544136E+04</totfact>
</mgrwt>
</event>
<event>
12    1  0.1013215E-001  0.1993189E+03  0.7546771E-02  0.1151176E+00
         21   -1    0    0  503  502  0.00000000000E+00  0.00000000000E+00  0.53298385587E+02  0.53298385587E+02  0.00000000000E+00 0.  1.
         21   -1    0    0  501  503 -0.00000000000E+00 -0.00000000000E+00 -0.13246868883E+04  0.13246868883E+04  0.00000000000E+00 0.  1.
          6    2    1    2  501    0 -0.60715969544E+02  0.76393103812E+02 -0.10935817569E+04  0.11108836553E+04  0.16917181040E+03 0.  0.
         24    2    3    3    0    0 -0.92234365128E+02  0.77013835347E+02 -0.10289304685E+04  0.10388026339E+04  0.77296145734E+02 0.  0.
         -6    2    1    2    0  502  0.60715969544E+02 -0.76393103812E+02 -0.17780674589E+03  0.26710161861E+03  0.17379787258E+03 0.  0.
        -24    2    5    5    0    0 -0.32651493657E+02 -0.59767263194E+02 -0.83238821873E+02  0.13309011159E+03  0.78396623327E+02 0.  0.
          5    1    3    3  501    0  0.31518395584E+02 -0.62073153505E+00 -0.64651288341E+02  0.72081021441E+02  0.47000000000E+01 0. -1.
        -11    1    4    4    0    0 -0.41788541794E+02  0.69479923008E+02 -0.80815406056E+03  0.81221101170E+03  0.00000000000E+00 0.  1.
         12    1    4    4    0    0 -0.50445823334E+02  0.75339123396E+01 -0.22077640795E+03  0.22659162217E+03  0.00000000000E+00 0. -1.
         -5    1    5    5    0  502  0.93367463201E+02 -0.16625840618E+02 -0.94567924014E+02  0.13401150702E+03  0.47000000000E+01 0.  1.
         13    1    6    6    0    0 -0.28587683756E+01 -0.11760825306E+02 -0.75026663598E+02  0.75996643473E+02  0.00000000000E+00 0. -1.
        -14    1    6    6    0    0 -0.29792725281E+02 -0.48006437888E+02 -0.82121582751E+01  0.57093468119E+02  0.00000000000E+00 0.  1.
<mgrwt>
<rscale>  2 0.19830609E+03</rscale>
<asrwt>0</asrwt>
<pdfrwt beam="1">  1       21 0.81997524E-02 0.19931893E+03</pdfrwt>
<pdfrwt beam="2">  1       21 0.20379796E+00 0.19931893E+03</pdfrwt>
<totfact> 0.14518431E+04</totfact>
</mgrwt>
</event>
<event>
12    1  0.1013215E-001  0.2323977E+03  0.7546771E-02  0.1125136E+00
         21   -1    0    0  501  502  0.00000000000E+00  0.00000000000E+00  0.12131006627E+03  0.12131006627E+03  0.00000000000E+00 0. -1.
         21   -1    0    0  502  503 -0.00000000000E+00 -0.00000000000E+00 -0.48909524112E+03  0.48909524112E+03  0.00000000000E+00 0.  1.
         -6    2    1    2    0  503 -0.14381141120E+03 -0.55835261475E+02 -0.27691048498E+03  0.36087192347E+03  0.17248139042E+03 0.  0.
        -24    2    3    3    0    0 -0.12532873800E+03  0.18819233489E+02 -0.14964625782E+03  0.21209969373E+03  0.80813498149E+02 0.  0.
          6    2    1    2  501    0  0.14381141120E+03  0.55835261475E+02 -0.90874689865E+02  0.24953338392E+03  0.17380852112E+03 0.  0.
         24    2    5    5    0    0  0.14610138775E+02  0.31715463006E+02 -0.80482868255E+02  0.11760608033E+03  0.78322227365E+02 0.  0.
          5    1    5    5  501    0  0.12920127243E+03  0.24119798469E+02 -0.10391821610E+02  0.13192730359E+03  0.47000000000E+01 0. -1.
        -13    1    6    6    0    0  0.12091590367E+02 -0.48954377468E+01 -0.79844473137E+02  0.80903101046E+02  0.00000000000E+00 0.  1.
         14    1    6    6    0    0  0.25185484080E+01  0.36610900753E+02 -0.63839511786E+00  0.36702979284E+02  0.00000000000E+00 0. -1.
         -5    1    3    3    0  503 -0.18482673200E+02 -0.74654494964E+02 -0.12726422716E+03  0.14877222974E+03  0.47000000000E+01 0.  1.
         11    1    4    4    0    0 -0.32497519592E+02 -0.16463548090E+02 -0.51872584084E+01  0.36797348344E+02  0.00000000000E+00 0. -1.
        -12    1    4    4    0    0 -0.92831218409E+02  0.35282781578E+02 -0.14445899941E+03  0.17530234539E+03  0.00000000000E+00 0.  1.
<mgrwt>
<rscale>  2 0.23214960E+03</rscale>
<asrwt>0</asrwt>
<pdfrwt beam="1">  1       21 0.18663087E-01 0.23239772E+03</pdfrwt>
<pdfrwt beam="2">  1       21 0.75245421E-01 0.23239772E+03</pdfrwt>
<totfact> 0.40636879E+04</totfact>
</mgrwt>
</event>
<event>
12    1  0.1013215E-001  0.1799587E+03  0.7546771E-02  0.1167937E+00
         21   -1    0    0  501  502  0.00000000000E+00  0.00000000000E+00  0.10467522018E+03  0.10467522018E+03  0.00000000000E+00 0. -1.
         21   -1    0    0  502  503 -0.00000000000E+00 -0.00000000000E+00 -0.32332883658E+03  0.32332883658E+03  0.00000000000E+00 0. -1.
         -6    2    1    2    0  503  0.48486770963E+02  0.19645398242E+02 -0.15470512556E+03  0.23702097053E+03  0.17177996381E+03 0.  0.
        -24    2    3    3    0    0 -0.24550497774E+02  0.51740250531E+02 -0.78682194244E+02  0.12672093312E+03  0.81163580093E+02 0.  0.
          6    2    1    2  501    0 -0.48486770963E+02 -0.19645398242E+02 -0.63948490845E+02  0.19098308623E+03  0.17218658808E+03 0.  0.
         24    2    5    5    0    0 -0.42251209992E+02  0.48025942510E+02 -0.87279683398E+01  0.10329221620E+03  0.80631560802E+02 0.  0.
          5    1    5    5  501    0 -0.62355609714E+01 -0.67671340752E+02 -0.55220522505E+02  0.87690870024E+02  0.47000000000E+01 0. -1.
        -11    1    6    6    0    0  0.10703595343E+02  0.88322913452E+01  0.25513828142E+02  0.29043618062E+02  0.00000000000E+00 0.  1.
         12    1    6    6    0    0 -0.52954805335E+02  0.39193651165E+02 -0.34241796482E+02  0.74248598142E+02  0.00000000000E+00 0. -1.
         -5    1    3    3    0  503  0.73037268737E+02 -0.32094852289E+02 -0.76022931316E+02  0.11030003742E+03  0.47000000000E+01 0.  1.
         11    1    4    4    0    0  0.50306850747E+01  0.18346392847E+02  0.14161111566E+02  0.23715712167E+02  0.00000000000E+00 0. -1.
        -12    1    4    4    0    0 -0.29581182849E+02  0.33393857685E+02 -0.92843305809E+02  0.10300522095E+03  0.00000000000E+00 0.  1.
<mgrwt>
<rscale>  2 0.17986135E+03</rscale>
<asrwt>0</asrwt>
<pdfrwt beam="1">  1       21 0.16103880E-01 0.17995869E+03</pdfrwt>
<pdfrwt beam="2">  1       21 0.49742898E-01 0.17995869E+03</pdfrwt>
<totfact> 0.13329165E+05</totfact>
</mgrwt>
</event>
<event>
12    1  0.1013215E-001  0.1749530E+03  0.7546771E-02  0.1172918E+00
         21   -1    0    0  501  502  0.00000000000E+00  0.00000000000E+00  0.43872042827E+02  0.43872042827E+02  0.00000000000E+00 0.  1.
         21   -1    0    0  502  503 -0.00000000000E+00 -0.00000000000E+00 -0.78062488215E+03  0.78062488215E+03  0.00000000000E+00 0.  1.
         -6    2    1    2    0  503  0.13302026548E+02  0.32852692585E+01 -0.23274309589E+03  0.29116646696E+03  0.17441566985E+03 0.  0.
        -24    2    3    3    0    0  0.46679906133E+02 -0.52086507431E+02 -0.12217439371E+03  0.16299609440E+03  0.82153067004E+02 0.  0.
          6    2    1    2  501    0 -0.13302026548E+02 -0.32852692585E+01 -0.50400974343E+03  0.53333045802E+03  0.17386149393E+03 0.  0.
         24    2    5    5    0    0  0.56413922532E+01 -0.36903598442E+02 -0.12687561437E+03  0.15419817705E+03  0.79284017294E+02 0.  0.
          5    1    5    5  501    0 -0.18943418801E+02  0.33618329183E+02 -0.37713412906E+03  0.37913228097E+03  0.47000000000E+01 0. -1.
        -11    1    6    6    0    0  0.31326702412E+02 -0.30778325896E+02 -0.11868794505E+03  0.12655234462E+03  0.00000000000E+00 0.  1.
         12    1    6    6    0    0 -0.25685310159E+02 -0.61252725453E+01 -0.81876693247E+01  0.27645832429E+02  0.00000000000E+00 0. -1.
         -5    1    3    3    0  503 -0.33377879585E+02  0.55371776689E+02 -0.11056870218E+03  0.12817037256E+03  0.47000000000E+01 0.  1.
         13    1    4    4    0    0  0.49135650288E+02  0.17920361484E+01 -0.82501929127E+02  0.96042135714E+02  0.00000000000E+00 0. -1.
        -14    1    4    4    0    0 -0.24557441552E+01 -0.53878543579E+02 -0.39672464582E+02  0.66953958685E+02  0.00000000000E+00 0.  1.
<mgrwt>
<rscale>  2 0.17481475E+03</rscale>
<asrwt>0</asrwt>
<pdfrwt beam="1">  1       21 0.67495452E-02 0.17495303E+03</pdfrwt>
<pdfrwt beam="2">  1       21 0.12009613E+00 0.17495303E+03</pdfrwt>
<totfact> 0.85586991E+04</totfact>
</mgrwt>
</event>
<event>
12    1  0.1013215E-001  0.2803623E+03  0.7546771E-02  0.1095497E+00
         21   -1    0    0  503  502  0.00000000000E+00  0.00000000000E+00  0.26535493295E+03  0.26535493295E+03  0.00000000000E+00 0.  1.
         21   -1    0    0  501  503 -0.00000000000E+00 -0.00000000000E+00 -0.47039927723E+03  0.47039927723E+03  0.00000000000E+00 0. -1.
          6    2    1    2  501    0 -0.12712123670E+03  0.17961073016E+03 -0.32641360379E+03  0.43028925259E+03  0.17373306232E+03 0.  0.
         24    2    3    3    0    0 -0.10457377251E+03  0.20525646405E+03 -0.29964805464E+03  0.38664779948E+03  0.81496467795E+02 0.  0.
         -6    2    1    2    0  502  0.12712123670E+03 -0.17961073016E+03  0.12136925951E+03  0.30546495760E+03  0.17366208555E+03 0.  0.
        -24    2    5    5    0    0  0.57828065959E+02 -0.15007500883E+03  0.22678888186E+02  0.18122413605E+03  0.80381975781E+02 0.  0.
          5    1    3    3  501    0 -0.22547464184E+02 -0.25645733886E+02 -0.26765549154E+02  0.43641453106E+02  0.47000000000E+01 0. -1.
        -11    1    4    4    0    0 -0.90276535909E+01  0.71171597871E+02 -0.49436871054E+02  0.87125765951E+02  0.00000000000E+00 0.  1.
         12    1    4    4    0    0 -0.95546118923E+02  0.13408486618E+03 -0.25021118358E+03  0.29952203353E+03  0.00000000000E+00 0. -1.
         -5    1    5    5    0  502  0.69293170739E+02 -0.29535721330E+02  0.98690371326E+02  0.12424082154E+03  0.47000000000E+01 0.  1.
         11    1    6    6    0    0  0.17761420109E+02 -0.13387688844E+03  0.69324234946E+01  0.13522776267E+03  0.00000000000E+00 0. -1.
        -12    1    6    6    0    0  0.40066645849E+02 -0.16198120396E+02  0.15746464692E+02  0.45996373382E+02  0.00000000000E+00 0.  1.
<mgrwt>
<rscale>  2 0.28035127E+03</rscale>
<asrwt>0</asrwt>
<pdfrwt beam="1">  1       21 0.40823836E-01 0.28036227E+03</pdfrwt>
<pdfrwt beam="2">  1       21 0.72369119E-01 0.28036227E+03</pdfrwt>
<totfact> 0.94456925E+03</totfact>
</mgrwt>
</event>
<event>
12    1  0.1013215E-001  0.2149076E+03  0.7546771E-02  0.1138809E+00
         21   -1    0    0  503  502  0.00000000000E+00  0.00000000000E+00  0.70102215944E+03  0.70102215944E+03  0.00000000000E+00 0. -1.
         21   -1    0    0  501  503 -0.00000000000E+00 -0.00000000000E+00 -0.10527563373E+03  0.10527563373E+03  0.00000000000E+00 0.  1.
          6    2    1    2  501    0 -0.11647487900E+03 -0.59383956089E+01  0.48441155353E+02  0.22029940317E+03  0.18050933362E+03 0.  0.
         24    2    3    3    0    0 -0.71651260960E+02  0.67168212455E+02  0.44244829164E+02  0.13431433452E+03  0.80232559406E+02 0.  0.
         -6    2    1    2    0  502  0.11647487900E+03  0.59383956089E+01  0.54730537036E+03  0.58599839000E+03  0.17392320915E+03 0.  0.
        -24    2    5    5    0    0  0.43154356872E+02  0.90079097299E+01  0.47094357375E+03  0.47998643377E+03  0.81582387804E+02 0.  0.
          5    1    3    3  501    0 -0.44823618035E+02 -0.73106608064E+02  0.41963261884E+01  0.85985068645E+02  0.47000000000E+01 0. -1.
        -13    1    4    4    0    0 -0.76375903321E+02  0.19777534347E+02  0.23112236991E+02  0.82210735137E+02  0.00000000000E+00 0.  1.
         14    1    4    4    0    0  0.47246423617E+01  0.47390678107E+02  0.21132592173E+02  0.52103599385E+02  0.00000000000E+00 0. -1.
         -5    1    5    5    0  502  0.73320522123E+02 -0.30695141210E+01  0.76361796611E+02  0.10601195623E+03  0.47000000000E+01 0.  1.
         13    1    6    6    0    0  0.83491978063E+01  0.40121464557E+02  0.14369060847E+03  0.14942031985E+03  0.00000000000E+00 0. -1.
        -14    1    6    6    0    0  0.34805159066E+02 -0.31113554827E+02  0.32725296528E+03  0.33056611392E+03  0.00000000000E+00 0.  1.
<mgrwt>
<rscale>  2 0.21351885E+03</rscale>
<asrwt>0</asrwt>
<pdfrwt beam="1">  1       21 0.10784956E+00 0.21490761E+03</pdfrwt>
<pdfrwt beam="2">  1       21 0.16196252E-01 0.21490761E+03</pdfrwt>
<totfact> 0.23048824E+04</totfact>
</mgrwt>
</event>
<event>
12    1  0.1013215E-001  0.1996121E+03  0.7546771E-02  0.1150229E+00
         21   -1    0    0  501  502  0.00000000000E+00  0.00000000000E+00  0.10129005331E+03  0.10129005331E+03  0.00000000000E+00 0. -1.
         21   -1    0    0  502  503 -0.00000000000E+00 -0.00000000000E+00 -0.44250628921E+03  0.44250628921E+03  0.00000000000E+00 0. -1.
         -6    2    1    2    0  503 -0.67311534488E+02  0.73406555362E+02 -0.26229517672E+03  0.32914890656E+03  0.17210716984E+03 0.  0.
        -24    2    3    3    0    0 -0.97747235878E+02  0.80019940509E+02 -0.25777883909E+03  0.29732822008E+03  0.77436603569E+02 0.  0.
          6    2    1    2  501    0  0.67311534488E+02 -0.73406555362E+02 -0.78921059175E+02  0.21464743596E+03  0.17299024000E+03 0.  0.
         24    2    5    5    0    0  0.43463872501E+02 -0.96272912256E+02 -0.39524707968E+01  0.13258672366E+03  0.80037712470E+02 0.  0.
          5    1    5    5  501    0  0.23847661987E+02  0.22866356894E+02 -0.74968588379E+02  0.82060712301E+02  0.47000000000E+01 0. -1.
        -11    1    6    6    0    0 -0.82202020688E+01 -0.42629257141E+02 -0.30990382874E+02  0.53340689133E+02  0.00000000000E+00 0.  1.
         12    1    6    6    0    0  0.51684074570E+02 -0.53643655115E+02  0.27037912078E+02  0.79246034524E+02  0.00000000000E+00 0. -1.
         -5    1    3    3    0  503  0.30435701390E+02 -0.66133851467E+01 -0.45163376313E+01  0.31820686476E+02  0.47000000000E+01 0.  1.
         11    1    4    4    0    0 -0.71958354271E+02  0.92945400541E+02 -0.22351075073E+03  0.25253496376E+03  0.00000000000E+00 0. -1.
        -12    1    4    4    0    0 -0.25788881606E+02 -0.12925460033E+02 -0.34268088364E+02  0.44793256319E+02  0.00000000000E+00 0.  1.
<mgrwt>
<rscale>  2 0.19942062E+03</rscale>
<asrwt>0</asrwt>
<pdfrwt beam="1">  1       21 0.15583085E-01 0.19961209E+03</pdfrwt>
<pdfrwt beam="2">  1       21 0.68077891E-01 0.19961209E+03</pdfrwt>
<totfact> 0.71859099E+04</totfact>
</mgrwt>
</event>
<event>
12    1  0.1013215E-001  0.2128855E+03  0.7546771E-02  0.1139563E+00
         21   -1    0    0  503  502  0.00000000000E+00  0.00000000000E+00  0.44662991578E+03  0.44662991578E+03  0.00000000000E+00 0. -1.
         21   -1    0    0  501  503 -0.00000000000E+00 -0.00000000000E+00 -0.12180359081E+03  0.12180359081E+03  0.00000000000E+00 0. -1.
          6    2    1    2  501    0 -0.12189863965E+02 -0.12157854308E+03  0.44058540378E+02  0.21608315745E+03  0.17268711889E+03 0.  0.
         24    2    3    3    0    0 -0.94858229129E+00 -0.13912847542E+03  0.75975284473E+02  0.17767567000E+03  0.80241930295E+02 0.  0.
         -6    2    1    2    0  502  0.12189863965E+02  0.12157854308E+03  0.28076778459E+03  0.35235034915E+03  0.17432809514E+03 0.  0.
        -24    2    5    5    0    0  0.49286001644E+02  0.13141858401E+03  0.25081895949E+03  0.30344255875E+03  0.97299958065E+02 0.  0.
          5    1    3    3  501    0 -0.11241281674E+02  0.17549932338E+02 -0.31916744095E+02  0.38407487451E+02  0.47000000000E+01 0. -1.
        -13    1    4    4    0    0  0.16412851331E+02 -0.40549476343E+02 -0.10960215345E+02  0.45097317447E+02  0.00000000000E+00 0.  1.
         14    1    4    4    0    0 -0.17361433623E+02 -0.98578999075E+02  0.86935499818E+02  0.13257835255E+03  0.00000000000E+00 0. -1.
         -5    1    5    5    0  502 -0.37096137679E+02 -0.98400409327E+01  0.29948825109E+02  0.48907790398E+02  0.47000000000E+01 0.  1.
         11    1    6    6    0    0 -0.40968613718E+01  0.99254484632E+02  0.19889614217E+03  0.22232389067E+03  0.00000000000E+00 0. -1.
        -12    1    6    6    0    0  0.53382863016E+02  0.32164099381E+02  0.51922817321E+02  0.81118668081E+02  0.00000000000E+00 0.  1.
<mgrwt>
<rscale>  2 0.21254925E+03</rscale>
<asrwt>0</asrwt>
<pdfrwt beam="1">  1       21 0.68712294E-01 0.21288546E+03</pdfrwt>
<pdfrwt beam="2">  1       21 0.18739014E-01 0.21288546E+03</pdfrwt>
<totfact> 0.49806577E+04</totfact>
</mgrwt>
</event>
<event>
12    1  0.1013215E-001  0.2855141E+03  0.7546771E-02  0.1092847E+00
         21   -1    0    0  503  502  0.00000000000E+00  0.00000000000E+00  0.81923777600E+03  0.81923777600E+03  0.00000000000E+00 0. -1.
         21   -1    0    0  501  503 -0.00000000000E+00 -0.00000000000E+00 -0.10822553649E+03  0.10822553649E+03  0.00000000000E+00 0.  1.
          6    2    1    2  501    0  0.22608553595E+03  0.13512131830E+02  0.22185180005E+03  0.36157505410E+03  0.17384202970E+03 0.  0.
         24    2    3    3    0    0  0.17989207772E+03  0.64528900241E+02  0.12329145195E+03  0.24127219270E+03  0.80537880873E+02 0.  0.
         -6    2    1    2    0  502 -0.22608553595E+03 -0.13512131830E+02  0.48916043945E+03  0.56588825839E+03  0.17220435008E+03 0.  0.
        -24    2    5    5    0    0 -0.66693887094E+02  0.33226546201E+02  0.25799269988E+03  0.28119400911E+03  0.83413186155E+02 0.  0.
          5    1    3    3  501    0  0.46193458232E+02 -0.51016768411E+02  0.98560348104E+02  0.12030286140E+03  0.47000000000E+01 0. -1.
        -13    1    4    4    0    0  0.76056831610E+02 -0.10955074430E+02  0.29600666620E+02  0.82345945587E+02  0.00000000000E+00 0.  1.
         14    1    4    4    0    0  0.10383524611E+03  0.75483974671E+02  0.93690785328E+02  0.15892624711E+03  0.00000000000E+00 0. -1.
         -5    1    5    5    0  502 -0.15939164886E+03 -0.46738678032E+02  0.23116773958E+03  0.28469424928E+03  0.47000000000E+01 0.  1.
         13    1    6    6    0    0 -0.45161617557E+02  0.61270361567E+02  0.18655735111E+03  0.20148765262E+03  0.00000000000E+00 0. -1.
        -14    1    6    6    0    0 -0.21532269537E+02 -0.28043815366E+02  0.71435348767E+02  0.79706356492E+02  0.00000000000E+00 0.  1.
<mgrwt>
<rscale>  2 0.28526523E+03</rscale>
<asrwt>0</asrwt>
<pdfrwt beam="1">  1       21 0.12603658E+00 0.28551410E+03</pdfrwt>
<pdfrwt beam="2">  1       21 0.16650083E-01 0.28551410E+03</pdfrwt>
<totfact> 0.14355862E+04</totfact>
</mgrwt>
</event>
<event>
12    1  0.1013215E-001  0.1792796E+03  0.7546771E-02  0.1168812E+00
         21   -1    0    0  503  502  0.00000000000E+00  0.00000000000E+00  0.30090356221E+03  0.30090356221E+03  0.00000000000E+00 0.  1.
         21   -1    0    0  501  503 -0.00000000000E+00 -0.00000000000E+00 -0.11477494553E+03  0.11477494553E+03  0.00000000000E+00 0.  1.
          6    2    1    2  501    0 -0.17623020857E+02 -0.41485819606E+02  0.36099596010E+02  0.18287800124E+03  0.17352100280E+03 0.  0.
         24    2    3    3    0    0 -0.60705828737E+02 -0.72872813327E+02  0.36034649814E+02  0.12936757303E+03  0.80261001732E+02 0.  0.
         -6    2    1    2    0  502  0.17623020857E+02  0.41485819606E+02  0.15002902067E+03  0.23280050650E+03  0.17220837579E+03 0.  0.
        -24    2    5    5    0    0 -0.27423796864E+02 -0.49246350901E+01  0.19770627031E+02  0.87292825586E+02  0.80329590067E+02 0.  0.
          5    1    3    3  501    0  0.43082807880E+02  0.31386993721E+02  0.64946195584E-01  0.53510428214E+02  0.47000000000E+01 0. -1.
        -13    1    4    4    0    0 -0.20349862653E+02 -0.65149102712E+02  0.51460101024E+02  0.85479029542E+02  0.00000000000E+00 0.  1.
         14    1    4    4    0    0 -0.40355966084E+02 -0.77237106152E+01 -0.15425451210E+02  0.43888543485E+02  0.00000000000E+00 0. -1.
         -5    1    5    5    0  502  0.45046817721E+02  0.46410454696E+02  0.13025839364E+03  0.14550768092E+03  0.47000000000E+01 0.  1.
         11    1    6    6    0    0 -0.59726727984E+00 -0.40339520641E+02  0.12767154438E+02  0.42315882198E+02  0.00000000000E+00 0. -1.
        -12    1    6    6    0    0 -0.26826529584E+02  0.35414885551E+02  0.70034725927E+01  0.44976943388E+02  0.00000000000E+00 0.  1.
<mgrwt>
<rscale>  2 0.17896123E+03</rscale>
<asrwt>0</asrwt>
<pdfrwt beam="1">  1       21 0.46292855E-01 0.17927962E+03</pdfrwt>
<pdfrwt beam="2">  1       21 0.17657684E-01 0.17927962E+03</pdfrwt>
<totfact> 0.13063737E+05</totfact>
</mgrwt>
</event>
<event>
12    1  0.1013215E-001  0.3429820E+03  0.7546771E-02  0.1065639E+00
         21   -1    0    0  501  502  0.00000000000E+00  0.00000000000E+00  0.68627676275E+03  0.68627676275E+03  0.00000000000E+00 0. -1.
         21   -1    0    0  502  503 -0.00000000000E+00 -0.00000000000E+00 -0.60501125997E+03  0.60501125997E+03  0.00000000000E+00 0.  1.
         -6    2    1    2    0  503 -0.18018272915E+02  0.29505071666E+03 -0.50628229737E+03  0.61095790154E+03  0.17195409055E+03 0.  0.
        -24    2    3    3    0    0 -0.76426618954E+02  0.22446086851E+03 -0.37825372415E+03  0.45345276794E+03  0.79497316551E+02 0.  0.
          6    2    1    2  501    0  0.18018272915E+02 -0.29505071666E+03  0.58754780016E+03  0.68033012118E+03  0.17394560286E+03 0.  0.
         24    2    5    5    0    0  0.72769733214E+02 -0.13790989288E+03  0.31588391391E+03  0.36171700470E+03  0.82109510991E+02 0.  0.
          5    1    5    5  501    0 -0.54751460300E+02 -0.15714082377E+03  0.27166388625E+03  0.31861311648E+03  0.47000000000E+01 0. -1.
        -11    1    6    6    0    0  0.25634492974E+02 -0.60516878668E+02  0.55518725056E+02  0.86033415982E+02  0.00000000000E+00 0.  1.
         12    1    6    6    0    0  0.47135240240E+02 -0.77393014217E+02  0.26036518885E+03  0.27568358872E+03  0.00000000000E+00 0. -1.
         -5    1    3    3    0  503  0.58408346039E+02  0.70589848145E+02 -0.12802857323E+03  0.15750513360E+03  0.47000000000E+01 0.  1.
         13    1    4    4    0    0 -0.62942467024E+01  0.15028742565E+02 -0.10276826488E+01  0.16325954069E+02  0.00000000000E+00 0. -1.
        -14    1    4    4    0    0 -0.70132372252E+02  0.20943212595E+03 -0.37722604150E+03  0.43712681387E+03  0.00000000000E+00 0.  1.
<mgrwt>
<rscale>  2 0.34273030E+03</rscale>
<asrwt>0</asrwt>
<pdfrwt beam="1">  1       21 0.10558104E+00 0.34298201E+03</pdfrwt>
<pdfrwt beam="2">  1       21 0.93078655E-01 0.34298201E+03</pdfrwt>
<totfact> 0.62142914E+02</totfact>
</mgrwt>
</event>
<event>
12    1  0.1013215E-001  0.2751990E+03  0.7546771E-02  0.1098395E+00
         21   -1    0    0  501  502  0.00000000000E+00  0.00000000000E+00  0.50488569805E+03  0.50488569805E+03  0.00000000000E+00 0. -1.
         21   -1    0    0  502  503 -0.00000000000E+00 -0.00000000000E+00 -0.18950517186E+03  0.18950517186E+03  0.00000000000E+00 0. -1.
         -6    2    1    2    0  503  0.20358461489E+03 -0.64009358660E+02 -0.11659552914E+01  0.27520147439E+03  0.17375442049E+03 0.  0.
        -24    2    3    3    0    0  0.19965925698E+03 -0.85345763179E+02  0.33738919979E+02  0.23383613975E+03  0.79958159925E+02 0.  0.
          6    2    1    2  501    0 -0.20358461489E+03  0.64009358660E+02  0.31654648148E+03  0.41918939552E+03  0.17313053157E+03 0.  0.
         24    2    5    5    0    0 -0.13465949166E+03 -0.27392904164E+02  0.20591322534E+03  0.25991964439E+03  0.79211206759E+02 0.  0.
          5    1    5    5  501    0 -0.68925123229E+02  0.91402262824E+02  0.11063325614E+03  0.15926975113E+03  0.47000000000E+01 0. -1.
        -11    1    6    6    0    0  0.72635809444E+01 -0.14293412899E+02  0.22906392043E+02  0.27960043935E+02  0.00000000000E+00 0.  1.
         12    1    6    6    0    0 -0.14192307260E+03 -0.13099491265E+02  0.18300683330E+03  0.23195960045E+03  0.00000000000E+00 0. -1.
         -5    1    3    3    0  503  0.39253579013E+01  0.21336404519E+02 -0.34904875271E+02  0.41365334643E+02  0.47000000000E+01 0.  1.
         13    1    4    4    0    0  0.96236536324E+02 -0.96836223070E+01 -0.12665529585E+02  0.97548239883E+02  0.00000000000E+00 0. -1.
        -14    1    4    4    0    0  0.10342272066E+03 -0.75662140872E+02  0.46404449565E+02  0.13628789987E+03  0.00000000000E+00 0.  1.
<mgrwt>
<rscale>  2 0.27510058E+03</rscale>
<asrwt>0</asrwt>
<pdfrwt beam="1">  1       21 0.77674722E-01 0.27519900E+03</pdfrwt>
<pdfrwt beam="2">  1       21 0.29154642E-01 0.27519900E+03</pdfrwt>
<totfact> 0.15827546E+04</totfact>
</mgrwt>
</event>
<event>
12    1  0.1013215E-001  0.2127130E+03  0.7546771E-02  0.1140157E+00
         21   -1    0    0  503  502  0.00000000000E+00  0.00000000000E+00  0.31156430378E+03  0.31156430378E+03  0.00000000000E+00 0. -1.
         21   -1    0    0  501  503 -0.00000000000E+00 -0.00000000000E+00 -0.39728978459E+03  0.39728978459E+03  0.00000000000E+00 0.  1.
          6    2    1    2  501    0  0.98671898340E+02  0.67118525465E+02 -0.32643036779E+03  0.38762883071E+03  0.17163416151E+03 0.  0.
         24    2    3    3    0    0  0.13673977094E+03  0.55467086346E+02 -0.25231778103E+03  0.30336920530E+03  0.81204984279E+02 0.  0.
         -6    2    1    2    0  502 -0.98671898340E+02 -0.67118525465E+02  0.24070488698E+03  0.32122525766E+03  0.17608459205E+03 0.  0.
        -24    2    5    5    0    0 -0.10472370851E+03 -0.89550277840E+02  0.24923318567E+03  0.29603339787E+03  0.80822549022E+02 0.  0.
          5    1    3    3  501    0 -0.38067872605E+02  0.11651439119E+02 -0.74112586756E+02  0.84259625408E+02  0.47000000000E+01 0. -1.
        -13    1    4    4    0    0  0.14297473043E+03  0.62074872024E+02 -0.24887047269E+03  0.29365213341E+03  0.00000000000E+00 0.  1.
         14    1    4    4    0    0 -0.62349594824E+01 -0.66077856776E+01 -0.34473083420E+01  0.97170718899E+01  0.00000000000E+00 0. -1.
         -5    1    5    5    0  502  0.60518101745E+01  0.22431752375E+02 -0.85282986863E+01  0.25191859786E+02  0.47000000000E+01 0.  1.
         13    1    6    6    0    0 -0.87820589552E+02 -0.24571261306E+02  0.16261688822E+03  0.18644155965E+03  0.00000000000E+00 0. -1.
        -14    1    6    6    0    0 -0.16903118962E+02 -0.64979016534E+02  0.86616297453E+02  0.10959183822E+03  0.00000000000E+00 0.  1.
<mgrwt>
<rscale>  2 0.21178972E+03</rscale>
<asrwt>0</asrwt>
<pdfrwt beam="1">  1       21 0.47932970E-01 0.21271301E+03</pdfrwt>
<pdfrwt beam="2">  1       21 0.61121505E-01 0.21271301E+03</pdfrwt>
<totfact> 0.10219228E+04</totfact>
</mgrwt>
</event>
<event>
12    1  0.1013215E-001  0.1787369E+03  0.7546771E-02  0.1169531E+00
         21   -1    0    0  503  502  0.00000000000E+00  0.00000000000E+00  0.14716960144E+04  0.14716960144E+04  0.00000000000E+00 0. -1.
         21   -1    0    0  501  503 -0.00000000000E+00 -0.00000000000E+00 -0.27142469827E+02  0.27142469827E+02  0.00000000000E+00 0. -1.
          6    2    1    2  501    0 -0.35361795799E+02  0.16504749749E+02  0.37614973377E+03  0.41558708548E+03  0.17234018694E+03 0.  0.
         24    2    3    3    0    0 -0.12248179925E+02  0.10995125340E+01  0.37829204208E+03  0.38733394304E+03  0.82289048433E+02 0.  0.
         -6    2    1    2    0  502  0.35361795799E+02 -0.16504749749E+02  0.10684038109E+04  0.10832513988E+04  0.17442484509E+03 0.  0.
        -24    2    5    5    0    0  0.45635843717E+02 -0.56022833917E+02  0.97883231608E+03  0.98470000250E+03  0.79373822914E+02 0.  0.
          5    1    3    3  501    0 -0.23113615875E+02  0.15405237215E+02 -0.21423083140E+01  0.28253142433E+02  0.47000000000E+01 0. -1.
        -11    1    4    4    0    0 -0.91428301368E+01  0.23144508335E+02  0.35201725214E+03  0.35289574298E+03  0.00000000000E+00 0.  1.
         12    1    4    4    0    0 -0.31053497878E+01 -0.22044995801E+02  0.26274789942E+02  0.34438200064E+02  0.00000000000E+00 0. -1.
         -5    1    5    5    0  502 -0.10274047918E+02  0.39518084168E+02  0.89571494772E+02  0.98551396299E+02  0.47000000000E+01 0.  1.
         13    1    6    6    0    0 -0.11503664900E+02  0.20819173162E-02  0.42099576356E+03  0.42115290246E+03  0.00000000000E+00 0. -1.
        -14    1    6    6    0    0  0.57139508617E+02 -0.56024915834E+02  0.55783655252E+03  0.56354710004E+03  0.00000000000E+00 0.  1.
<mgrwt>
<rscale>  2 0.17822630E+03</rscale>
<asrwt>0</asrwt>
<pdfrwt beam="1">  1       21 0.22641471E+00 0.17873693E+03</pdfrwt>
<pdfrwt beam="2">  1       21 0.41757657E-02 0.17873693E+03</pdfrwt>
<totfact> 0.33877602E+04</totfact>
</mgrwt>
</event>
<event>
12    1  0.1013215E-001  0.2334188E+03  0.7546771E-02  0.1124660E+00
         21   -1    0    0  503  502  0.00000000000E+00  0.00000000000E+00  0.47469940944E+03  0.47469940944E+03  0.00000000000E+00 0.  1.
         21   -1    0    0  501  503 -0.00000000000E+00 -0.00000000000E+00 -0.51739493311E+03  0.51739493311E+03  0.00000000000E+00 0.  1.
          6    2    1    2  501    0 -0.14481869274E+03 -0.50245020232E+02 -0.45957077882E+03  0.51545091552E+03  0.17603218384E+03 0.  0.
         24    2    3    3    0    0 -0.28584891434E+02 -0.71713885716E+02 -0.26906367865E+03  0.29120494797E+03  0.80281262636E+02 0.  0.
         -6    2    1    2    0  502  0.14481869274E+03  0.50245020232E+02  0.41687525515E+03  0.47664342703E+03  0.17293629563E+03 0.  0.
        -24    2    5    5    0    0  0.11651227415E+03  0.56068354180E+02  0.17174440107E+03  0.22977020010E+03  0.81113717619E+02 0.  0.
          5    1    3    3  501    0 -0.11623380130E+03  0.21468865484E+02 -0.19050710016E+03  0.22424596755E+03  0.47000000000E+01 0. -1.
        -11    1    4    4    0    0 -0.37501714267E+02 -0.54124022321E+02 -0.92498708890E+02  0.11354206054E+03  0.00000000000E+00 0.  1.
         12    1    4    4    0    0  0.89168228329E+01 -0.17589863395E+02 -0.17656496976E+03  0.17766288743E+03  0.00000000000E+00 0. -1.
         -5    1    5    5    0  502  0.28306418589E+02 -0.58233339481E+01  0.24513085408E+03  0.24687322693E+03  0.47000000000E+01 0.  1.
         11    1    6    6    0    0  0.36592992768E+02  0.56608225090E+02  0.10901572043E+03  0.12817162545E+03  0.00000000000E+00 0. -1.
        -12    1    6    6    0    0  0.79919281379E+02 -0.53987090977E+00  0.62728680637E+02  0.10159857465E+03  0.00000000000E+00 0.  1.
<mgrwt>
<rscale>  2 0.23283518E+03</rscale>
<asrwt>0</asrwt>
<pdfrwt beam="1">  1       21 0.73030678E-01 0.23341882E+03</pdfrwt>
<pdfrwt beam="2">  1       21 0.79599220E-01 0.23341882E+03</pdfrwt>
<totfact> 0.22687400E+03</totfact>
</mgrwt>
</event>
<event>
12    1  0.1013215E-001  0.1854541E+03  0.7546771E-02  0.1162958E+00
         21   -1    0    0  501  502  0.00000000000E+00  0.00000000000E+00  0.18667217247E+03  0.18667217247E+03  0.00000000000E+00 0.  1.
         21   -1    0    0  502  503 -0.00000000000E+00 -0.00000000000E+00 -0.53779891148E+03  0.53779891148E+03  0.00000000000E+00 0.  1.
         -6    2    1    2    0  503  0.50010723026E+02 -0.41801609630E+02 -0.47007851825E+03  0.50533853019E+03  0.17362249220E+03 0.  0.
        -24    2    3    3    0    0  0.29432956903E+02 -0.70668347804E+02 -0.45165844669E+03  0.46511264217E+03  0.80461811463E+02 0.  0.
          6    2    1    2  501    0 -0.50010723026E+02  0.41801609630E+02  0.11895177923E+03  0.21913255376E+03  0.17210782478E+03 0.  0.
         24    2    5    5    0    0  0.42969830077E+02 -0.12394821235E+02  0.58038587773E+02  0.95378187098E+02  0.61061305367E+02 0.  0.
          5    1    5    5  501    0 -0.92980553103E+02  0.54196430865E+02  0.60913191460E+02  0.12375436666E+03  0.47000000000E+01 0. -1.
        -11    1    6    6    0    0  0.47793905261E+02 -0.39607802913E+00  0.65008143013E+02  0.80687501609E+02  0.00000000000E+00 0.  1.
         12    1    6    6    0    0 -0.48240751833E+01 -0.11998743206E+02 -0.69695552403E+01  0.14690685489E+02  0.00000000000E+00 0. -1.
         -5    1    3    3    0  503  0.20577766122E+02  0.28866738174E+02 -0.18420071556E+02  0.40225888027E+02  0.47000000000E+01 0.  1.
         13    1    4    4    0    0 -0.19465473752E+02  0.48040473064E+01 -0.59948889030E+02  0.63212758481E+02  0.00000000000E+00 0. -1.
        -14    1    4    4    0    0  0.48898430656E+02 -0.75472395111E+02 -0.39170955766E+03  0.40189988368E+03  0.00000000000E+00 0.  1.
<mgrwt>
<rscale>  2 0.18509875E+03</rscale>
<asrwt>0</asrwt>
<pdfrwt beam="1">  1       21 0.28718796E-01 0.18545408E+03</pdfrwt>
<pdfrwt beam="2">  1       21 0.82738293E-01 0.18545408E+03</pdfrwt>
<totfact> 0.14850136E+04</totfact>
</mgrwt>
</event>
<event>
12    1  0.1013215E-001  0.1746136E+03  0.7546771E-02  0.1173295E+00
         21   -1    0    0  501  502  0.00000000000E+00  0.00000000000E+00  0.33422277629E+02  0.33422277629E+02  0.00000000000E+00 0.  1.
         21   -1    0    0  502  503 -0.00000000000E+00 -0.00000000000E+00 -0.23441273111E+04  0.23441273111E+04  0.00000000000E+00 0.  1.
         -6    2    1    2    0  503 -0.23032202786E+02  0.18115774517E+02 -0.20865139519E+04  0.20938076287E+04  0.17213730184E+03 0.  0.
        -24    2    3    3    0    0  0.21822252594E+01 -0.54011583504E+02 -0.12406288042E+04  0.12444655914E+04  0.81318909817E+02 0.  0.
          6    2    1    2  501    0  0.23032202786E+02 -0.18115774517E+02 -0.22419108155E+03  0.28374196006E+03  0.17143277166E+03 0.  0.
         24    2    5    5    0    0 -0.59569673310E+01  0.13869535339E+01 -0.27372433538E+02  0.83790969584E+02  0.78957376895E+02 0.  0.
          5    1    5    5  501    0  0.28989170117E+02 -0.19502728051E+02 -0.19681864802E+03  0.19995099048E+03  0.47000000000E+01 0. -1.
        -11    1    6    6    0    0  0.23823402952E+02  0.27150969095E+02 -0.51317903205E+00  0.36124686902E+02  0.00000000000E+00 0.  1.
         12    1    6    6    0    0 -0.29780370283E+02 -0.25764015561E+02 -0.26859254506E+02  0.47666282682E+02  0.00000000000E+00 0. -1.
         -5    1    3    3    0  503 -0.25214428045E+02  0.72127358021E+02 -0.84588514777E+03  0.84934203733E+03  0.47000000000E+01 0.  1.
         13    1    4    4    0    0  0.30392867238E+02  0.52945326083E+01 -0.48949635696E+03  0.49046757480E+03  0.00000000000E+00 0. -1.
        -14    1    4    4    0    0 -0.28210641978E+02 -0.59306116113E+02 -0.75113244721E+03  0.75399801656E+03  0.00000000000E+00 0.  1.
<mgrwt>
<rscale>  2 0.17443973E+03</rscale>
<asrwt>0</asrwt>
<pdfrwt beam="1">  1       21 0.51418886E-02 0.17461361E+03</pdfrwt>
<pdfrwt beam="2">  1       21 0.36063499E+00 0.17461361E+03</pdfrwt>
<totfact> 0.39779777E+03</totfact>
</mgrwt>
</event>
<event>
12    1  0.1013215E-001  0.1793054E+03  0.7546771E-02  0.1169209E+00
         21   -1    0    0  501  502  0.00000000000E+00  0.00000000000E+00  0.43032896749E+02  0.43032896749E+02  0.00000000000E+00 0.  1.
         21   -1    0    0  502  503 -0.00000000000E+00 -0.00000000000E+00 -0.73822902321E+03  0.73822902321E+03  0.00000000000E+00 0.  1.
         -6    2    1    2    0  503  0.25657693352E+02 -0.41105618174E+02 -0.37740002652E+03  0.41782914849E+03  0.17263379806E+03 0.  0.
        -24    2    3    3    0    0  0.21618975460E+02  0.26112587459E+02 -0.31130716014E+03  0.32335716641E+03  0.80613037349E+02 0.  0.
          6    2    1    2  501    0 -0.25657693352E+02  0.41105618174E+02 -0.31779609994E+03  0.36343277147E+03  0.16953179398E+03 0.  0.
         24    2    5    5    0    0 -0.47056181451E+02  0.39817961189E+00 -0.77224954397E+02  0.11846020788E+03  0.76515910171E+02 0.  0.
          5    1    5    5  501    0  0.21398488099E+02  0.40707438562E+02 -0.24057114554E+03  0.24497256360E+03  0.47000000000E+01 0. -1.
        -13    1    6    6    0    0  0.13675862008E+02  0.21041222264E+02 -0.28034317934E+02  0.37625592594E+02  0.00000000000E+00 0.  1.
         14    1    6    6    0    0 -0.60732043459E+02 -0.20643042652E+02 -0.49190636463E+02  0.80834615285E+02  0.00000000000E+00 0. -1.
         -5    1    3    3    0  503  0.40387178920E+01 -0.67218205633E+02 -0.66092866385E+02  0.94471982078E+02  0.47000000000E+01 0.  1.
         11    1    4    4    0    0  0.11627387170E+02  0.28120756288E+02 -0.33094744604E+02  0.44958149283E+02  0.00000000000E+00 0. -1.
        -12    1    4    4    0    0  0.99915882896E+01 -0.20081688290E+01 -0.27821241553E+03  0.27839901712E+03  0.00000000000E+00 0.  1.
<mgrwt>
<rscale>  2 0.17855452E+03</rscale>
<asrwt>0</asrwt>
<pdfrwt beam="1">  1       21 0.66204464E-02 0.17930537E+03</pdfrwt>
<pdfrwt beam="2">  1       21 0.11357368E+00 0.17930537E+03</pdfrwt>
<totfact> 0.10121471E+05</totfact>
</mgrwt>
</event>
<event>
12    1  0.1013215E-001  0.1977345E+03  0.7546771E-02  0.1152334E+00
         21   -1    0    0  503  502  0.00000000000E+00  0.00000000000E+00  0.92849009660E+03  0.92849009660E+03  0.00000000000E+00 0. -1.
         21   -1    0    0  501  503 -0.00000000000E+00 -0.00000000000E+00 -0.41667453457E+02  0.41667453457E+02  0.00000000000E+00 0. -1.
          6    2    1    2  501    0  0.62623624991E+02 -0.73239452331E+02  0.48172437054E+03  0.52072767862E+03  0.17266502346E+03 0.  0.
         24    2    3    3    0    0  0.12222751045E+02 -0.81012170388E+02  0.43931097031E+03  0.45423219186E+03  0.81365767341E+02 0.  0.
         -6    2    1    2    0  502 -0.62623624991E+02  0.73239452331E+02  0.40509827260E+03  0.44942987143E+03  0.16910607052E+03 0.  0.
        -24    2    5    5    0    0 -0.53048367469E+02  0.52102368128E+02  0.41041823950E+03  0.42516355872E+03  0.82414405865E+02 0.  0.
          5    1    3    3  501    0  0.50400873946E+02  0.77727180573E+01  0.42413400234E+02  0.66495486764E+02  0.47000000000E+01 0. -1.
        -13    1    4    4    0    0 -0.50787517491E+01 -0.85750132566E+01  0.25839227815E+03  0.25858440397E+03  0.00000000000E+00 0.  1.
         14    1    4    4    0    0  0.17301502794E+02 -0.72437157131E+02  0.18091869216E+03  0.19564778789E+03  0.00000000000E+00 0. -1.
         -5    1    5    5    0  502 -0.95752575219E+01  0.21137084203E+02 -0.53199668936E+01  0.24266312718E+02  0.47000000000E+01 0.  1.
         11    1    6    6    0    0 -0.51002997036E+02  0.34902901436E+02  0.12722949289E+03  0.14144561533E+03  0.00000000000E+00 0. -1.
        -12    1    6    6    0    0 -0.20453704325E+01  0.17199466693E+02  0.28318874661E+03  0.28371794339E+03  0.00000000000E+00 0.  1.
<mgrwt>
<rscale>  2 0.19695493E+03</rscale>
<asrwt>0</asrwt>
<pdfrwt beam="1">  1       21 0.14284461E+00 0.19773453E+03</pdfrwt>
<pdfrwt beam="2">  1       21 0.64103781E-02 0.19773453E+03</pdfrwt>
<totfact> 0.59625062E+04</totfact>
</mgrwt>
</event>
<event>
12    1  0.1013215E-001  0.1972371E+03  0.7546771E-02  0.1152586E+00
         21   -1    0    0  503  502  0.00000000000E+00  0.00000000000E+00  0.70880008179E+03  0.70880008179E+03  0.00000000000E+00 0. -1.
         21   -1    0    0  501  503 -0.00000000000E+00 -0.00000000000E+00 -0.13486928683E+03  0.13486928683E+03  0.00000000000E+00 0.  1.
          6    2    1    2  501    0 -0.62623303722E+02  0.65970501504E+02 -0.39846454504E+02  0.19897952248E+03  0.17242773904E+03 0.  0.
         24    2    3    3    0    0 -0.70209953355E+02  0.24310661413E+02  0.33280114518E+02  0.11434687732E+03  0.80294436435E+02 0.  0.
         -6    2    1    2    0  502  0.62623303722E+02 -0.65970501504E+02  0.61377724946E+03  0.64468984614E+03  0.17501057261E+03 0.  0.
        -24    2    5    5    0    0  0.11159613975E+03 -0.70761287918E+02  0.46976901094E+03  0.49243429430E+03  0.65937487785E+02 0.  0.
          5    1    3    3  501    0  0.75866496328E+01  0.41659840091E+02 -0.73126569022E+02  0.84632645155E+02  0.47000000000E+01 0. -1.
        -11    1    4    4    0    0  0.24570359579E+01 -0.22546682527E+02  0.38087584384E+01  0.22997751184E+02  0.00000000000E+00 0.  1.
         12    1    4    4    0    0 -0.72666989313E+02  0.46857343941E+02  0.29471356079E+02  0.91349126138E+02  0.00000000000E+00 0. -1.
         -5    1    5    5    0  502 -0.48972836023E+02  0.47907864138E+01  0.14400823853E+03  0.15225555184E+03  0.47000000000E+01 0.  1.
         11    1    6    6    0    0  0.57897942353E+02 -0.38546334174E+02  0.35444978637E+03  0.36120997033E+03  0.00000000000E+00 0. -1.
        -12    1    6    6    0    0  0.53698197392E+02 -0.32214953744E+02  0.11531922457E+03  0.13122432397E+03  0.00000000000E+00 0.  1.
<mgrwt>
<rscale>  2 0.19666259E+03</rscale>
<asrwt>0</asrwt>
<pdfrwt beam="1">  1       21 0.10904616E+00 0.19723713E+03</pdfrwt>
<pdfrwt beam="2">  1       21 0.20749121E-01 0.19723713E+03</pdfrwt>
<totfact> 0.14328846E+04</totfact>
</mgrwt>
</event>
<event>
12    1  0.1013215E-001  0.1796515E+03  0.7546771E-02  0.1168333E+00
         21   -1    0    0  501  502  0.00000000000E+00  0.00000000000E+00  0.42789526506E+02  0.42789526506E+02  0.00000000000E+00 0. -1.
         21   -1    0    0  502  503 -0.00000000000E+00 -0.00000000000E+00 -0.10453631175E+04  0.10453631175E+04  0.00000000000E+00 0. -1.
         -6    2    1    2    0  503 -0.20931248095E+02 -0.41954821850E+02 -0.78922936572E+03  0.80924331838E+03  0.17260774142E+03 0.  0.
        -24    2    3    3    0    0  0.19520821361E+02 -0.32220162221E+02 -0.73508779225E+03  0.74079966638E+03  0.83731010193E+02 0.  0.
          6    2    1    2  501    0  0.20931248095E+02  0.41954821850E+02 -0.21334422531E+03  0.27890932567E+03  0.17342528434E+03 0.  0.
         24    2    5    5    0    0 -0.21462769616E+01 -0.14021952915E+02 -0.20085360608E+03  0.21690870434E+03  0.80659737646E+02 0.  0.
          5    1    5    5  501    0  0.23077525057E+02  0.55976774764E+02 -0.12490619234E+02  0.62000621324E+02  0.47000000000E+01 0. -1.
        -11    1    6    6    0    0  0.38236223592E+02  0.18928256240E+01 -0.10189277290E+03  0.10884727260E+03  0.00000000000E+00 0.  1.
         12    1    6    6    0    0 -0.40382500554E+02 -0.15914778539E+02 -0.98960833180E+02  0.10806143174E+03  0.00000000000E+00 0. -1.
         -5    1    3    3    0  503 -0.40452069457E+02 -0.97346596286E+01 -0.54141573473E+02  0.68443652003E+02  0.47000000000E+01 0.  1.
         11    1    4    4    0    0 -0.21106917354E+02 -0.43002716625E+01 -0.50644952154E+03  0.50690739999E+03  0.00000000000E+00 0. -1.
        -12    1    4    4    0    0  0.40627738716E+02 -0.27919890558E+02 -0.22863827071E+03  0.23389226638E+03  0.00000000000E+00 0.  1.
<mgrwt>
<rscale>  2 0.17945388E+03</rscale>
<asrwt>0</asrwt>
<pdfrwt beam="1">  1       21 0.65830045E-02 0.17965148E+03</pdfrwt>
<pdfrwt beam="2">  1       21 0.16082508E+00 0.17965148E+03</pdfrwt>
<totfact> 0.42070450E+04</totfact>
</mgrwt>
</event>
<event>
12    1  0.1013215E-001  0.1805507E+03  0.7546771E-02  0.1167362E+00
         21   -1    0    0  501  502  0.00000000000E+00  0.00000000000E+00  0.98147577061E+03  0.98147577061E+03  0.00000000000E+00 0. -1.
         21   -1    0    0  502  503 -0.00000000000E+00 -0.00000000000E+00 -0.31276818015E+03  0.31276818015E+03  0.00000000000E+00 0. -1.
         -6    2    1    2    0  503 -0.49877089571E+02 -0.31167410883E+01 -0.27748287223E+03  0.33105178844E+03  0.17349669769E+03 0.  0.
        -24    2    3    3    0    0 -0.83161994839E+02  0.36031246434E+02 -0.14024309214E+03  0.18443222261E+03  0.78313164529E+02 0.  0.
          6    2    1    2  501    0  0.49877089571E+02  0.31167410883E+01  0.94619046268E+03  0.96319216232E+03  0.17310491543E+03 0.  0.
         24    2    5    5    0    0 -0.12183398963E+02  0.17732730849E+02  0.79071752366E+03  0.79508786088E+03  0.80421510470E+02 0.  0.
          5    1    5    5  501    0  0.62060488534E+02 -0.14615989761E+02  0.15547293903E+03  0.16810430144E+03  0.47000000000E+01 0. -1.
        -11    1    6    6    0    0 -0.27905218703E+02  0.38489735227E+02  0.30596331604E+03  0.30963480378E+03  0.00000000000E+00 0.  1.
         12    1    6    6    0    0  0.15721819740E+02 -0.20757004377E+02  0.48475420762E+03  0.48545305710E+03  0.00000000000E+00 0. -1.
         -5    1    3    3    0  503  0.33284905267E+02 -0.39147987522E+02 -0.13723978008E+03  0.14661956583E+03  0.47000000000E+01 0.  1.
         11    1    4    4    0    0 -0.59048182329E+02  0.56711684873E+02 -0.12442519033E+03  0.14894472474E+03  0.00000000000E+00 0. -1.
        -12    1    4    4    0    0 -0.24113812509E+02 -0.20680438439E+02 -0.15817901811E+02  0.35487497876E+02  0.00000000000E+00 0.  1.
<mgrwt>
<rscale>  2 0.18045648E+03</rscale>
<asrwt>0</asrwt>
<pdfrwt beam="1">  1       21 0.15099627E+00 0.18055066E+03</pdfrwt>
<pdfrwt beam="2">  1       21 0.48118182E-01 0.18055066E+03</pdfrwt>
<totfact> 0.12277120E+03</totfact>
</mgrwt>
</event>
<event>
12    1  0.1013215E-001  0.2019558E+03  0.7546771E-02  0.1148140E+00
         21   -1    0    0  501  502  0.00000000000E+00  0.00000000000E+00  0.53159944232E+03  0.53159944232E+03  0.00000000000E+00 0.  1.
         21   -1    0    0  502  503 -0.00000000000E+00 -0.00000000000E+00 -0.39114619743E+03  0.39114619743E+03  0.00000000000E+00 0.  1.
         -6    2    1    2    0  503 -0.10299280935E+03 -0.90264569098E+01 -0.34347182646E+03  0.39844579144E+03  0.17348532340E+03 0.  0.
        -24    2    3    3    0    0 -0.32015353777E+02 -0.56675243726E+02 -0.11382738474E+03  0.15336036612E+03  0.79534032037E+02 0.  0.
          6    2    1    2  501    0  0.10299280935E+03  0.90264569098E+01  0.48392507135E+03  0.52429984832E+03  0.17325663207E+03 0.  0.
         24    2    5    5    0    0  0.21194313572E+02  0.13531454347E+02  0.39376416765E+03  0.40238853846E+03  0.78955791263E+02 0.  0.
          5    1    5    5  501    0  0.81798495782E+02 -0.45049974369E+01  0.90160903698E+02  0.12191130985E+03  0.47000000000E+01 0. -1.
        -11    1    6    6    0    0  0.42876205263E+02 -0.16398395852E+02  0.21788282835E+03  0.22266612508E+03  0.00000000000E+00 0.  1.
         12    1    6    6    0    0 -0.21681891691E+02  0.29929850199E+02  0.17588133930E+03  0.17972241339E+03  0.00000000000E+00 0. -1.
         -5    1    3    3    0  503 -0.70977455578E+02  0.47648786817E+02 -0.22964444173E+03  0.24508542531E+03  0.47000000000E+01 0.  1.
         13    1    4    4    0    0 -0.28515177981E+02 -0.76951083072E+02 -0.94066463610E+02  0.12483222395E+03  0.00000000000E+00 0. -1.
        -14    1    4    4    0    0 -0.35001757953E+01  0.20275839345E+02 -0.19760921129E+02  0.28528142169E+02  0.00000000000E+00 0.  1.
<mgrwt>
<rscale>  2 0.20190670E+03</rscale>
<asrwt>0</asrwt>
<pdfrwt beam="1">  1       21 0.81784530E-01 0.20195582E+03</pdfrwt>
<pdfrwt beam="2">  1       21 0.60176338E-01 0.20195582E+03</pdfrwt>
<totfact> 0.33428055E+03</totfact>
</mgrwt>
</event>
<event>
12    1  0.1013215E-001  0.2183489E+03  0.7546771E-02  0.1135288E+00
         21   -1    0    0  503  502  0.00000000000E+00  0.00000000000E+00  0.52286321899E+03  0.52286321899E+03  0.00000000000E+00 0.  1.
         21   -1    0    0  501  503 -0.00000000000E+00 -0.00000000000E+00 -0.11627494430E+03  0.11627494430E+03  0.00000000000E+00 0.  1.
          6    2    1    2  501    0  0.22754360386E+01  0.13212070796E+03  0.53420274601E+02  0.22392269796E+03  0.17270376325E+03 0.  0.
         24    2    3    3    0    0  0.81953902702E+00  0.81563121818E+01  0.60281817437E+02  0.99671091017E+02  0.78950818858E+02 0.  0.
         -6    2    1    2    0  502 -0.22754360386E+01 -0.13212070796E+03  0.35316800009E+03  0.41521546534E+03  0.17382516298E+03 0.  0.
        -24    2    5    5    0    0 -0.27941390059E+01 -0.18482777266E+02  0.24517864519E+03  0.25837912032E+03  0.79358562834E+02 0.  0.
          5    1    3    3  501    0  0.14558970116E+01  0.12396439578E+03 -0.68615428366E+01  0.12425160694E+03  0.47000000000E+01 0. -1.
        -11    1    4    4    0    0 -0.37066564656E+02 -0.76038692419E+01  0.23336311998E+02  0.44455961360E+02  0.00000000000E+00 0.  1.
         12    1    4    4    0    0  0.37886103683E+02  0.15760181424E+02  0.36945505440E+02  0.55215129656E+02  0.00000000000E+00 0. -1.
         -5    1    5    5    0  502  0.51870296731E+00 -0.11363793069E+03  0.10798935491E+03  0.15683634502E+03  0.47000000000E+01 0.  1.
         13    1    6    6    0    0 -0.45390379316E+01  0.52422638127E+01 -0.40415574459E+01  0.80261062674E+01  0.00000000000E+00 0. -1.
        -14    1    6    6    0    0  0.17448989257E+01 -0.23725041079E+02  0.24922020263E+03  0.25035301406E+03  0.00000000000E+00 0.  1.
<mgrwt>
<rscale>  2 0.21812565E+03</rscale>
<asrwt>0</asrwt>
<pdfrwt beam="1">  1       21 0.80440494E-01 0.21834891E+03</pdfrwt>
<pdfrwt beam="2">  1       21 0.17888453E-01 0.21834891E+03</pdfrwt>
<totfact> 0.38067902E+04</totfact>
</mgrwt>
</event>
<event>
12    1  0.1013215E-001  0.1920048E+03  0.7546771E-02  0.1157004E+00
         21   -1    0    0  503  502  0.00000000000E+00  0.00000000000E+00  0.31062284771E+03  0.31062284771E+03  0.00000000000E+00 0. -1.
         21   -1    0    0  501  503 -0.00000000000E+00 -0.00000000000E+00 -0.21903133223E+03  0.21903133223E+03  0.00000000000E+00 0. -1.
          6    2    1    2  501    0  0.36039743858E+02  0.72066748056E+02 -0.13438497785E+03  0.23312219348E+03  0.17260983607E+03 0.  0.
         24    2    3    3    0    0  0.13584489477E+02  0.20190582669E+01 -0.45066659222E+01  0.83785717016E+02  0.82529518280E+02 0.  0.
         -6    2    1    2    0  502 -0.36039743858E+02 -0.72066748056E+02  0.22597649333E+03  0.29653198646E+03  0.17427955745E+03 0.  0.
        -24    2    5    5    0    0 -0.83257741448E+02 -0.81883518240E+02  0.18312559722E+03  0.23184661277E+03  0.81124012615E+02 0.  0.
          5    1    3    3  501    0  0.22455254381E+02  0.70047689790E+02 -0.12987831193E+03  0.14933647646E+03  0.47000000000E+01 0.  1.
        -11    1    4    4    0    0  0.27491520125E+02 -0.34391940118E+01  0.33191428177E+02  0.43235201383E+02  0.00000000000E+00 0.  1.
         12    1    4    4    0    0 -0.13907030648E+02  0.54582522787E+01 -0.37698094099E+02  0.40550515633E+02  0.00000000000E+00 0. -1.
         -5    1    5    5    0  502  0.47217997590E+02  0.98167701834E+01  0.42850896104E+02  0.64685373696E+02  0.47000000000E+01 0.  1.
         13    1    6    6    0    0 -0.93505734758E+02 -0.89485150595E+02  0.16614999780E+03  0.21061039001E+03  0.00000000000E+00 0. -1.
        -14    1    6    6    0    0  0.10247993310E+02  0.76016323555E+01  0.16975599419E+02  0.21236222757E+02  0.00000000000E+00 0.  1.
<mgrwt>
<rscale>  2 0.19162510E+03</rscale>
<asrwt>0</asrwt>
<pdfrwt beam="1">  1       21 0.47788131E-01 0.19200480E+03</pdfrwt>
<pdfrwt beam="2">  1       21 0.33697128E-01 0.19200480E+03</pdfrwt>
<totfact> 0.35525832E+04</totfact>
</mgrwt>
</event>
<event>
12    1  0.1013215E-001  0.2284895E+03  0.7546771E-02  0.1128221E+00
         21   -1    0    0  501  502  0.00000000000E+00  0.00000000000E+00  0.15850368723E+03  0.15850368723E+03  0.00000000000E+00 0.  1.
         21   -1    0    0  502  503 -0.00000000000E+00 -0.00000000000E+00 -0.43715574556E+03  0.43715574556E+03  0.00000000000E+00 0. -1.
         -6    2    1    2    0  503 -0.14045914220E+03  0.42128116662E+02 -0.29066744824E+03  0.36972289612E+03  0.17522529957E+03 0.  0.
        -24    2    3    3    0    0 -0.14746095771E+03  0.76251324262E+01 -0.28912528839E+03  0.33417082728E+03  0.79207529489E+02 0.  0.
          6    2    1    2  501    0  0.14045914220E+03 -0.42128116662E+02  0.12015389902E+02  0.22593653667E+03  0.17146253284E+03 0.  0.
         24    2    5    5    0    0  0.36209865173E+02 -0.70664247063E+02  0.29001490852E+02  0.11642471026E+03  0.80056458446E+02 0.  0.
          5    1    5    5  501    0  0.10424927702E+03  0.28536130401E+02 -0.16986100950E+02  0.10951182641E+03  0.47000000000E+01 0. -1.
        -13    1    6    6    0    0  0.75124566483E+01 -0.81420695902E+02  0.17022101289E+02  0.83519570511E+02  0.00000000000E+00 0.  1.
         14    1    6    6    0    0  0.28697408525E+02  0.10756448839E+02  0.11979389564E+02  0.32905139750E+02  0.00000000000E+00 0. -1.
         -5    1    3    3    0  503  0.70018155096E+01  0.34502984236E+02 -0.15421598498E+01  0.35552068837E+02  0.47000000000E+01 0.  1.
         13    1    4    4    0    0 -0.11976146858E+03 -0.10151709577E+02 -0.27132096202E+03  0.29675062088E+03  0.00000000000E+00 0. -1.
        -14    1    4    4    0    0 -0.27699489124E+02  0.17776842004E+02 -0.17804326371E+02  0.37420206398E+02  0.00000000000E+00 0.  1.
<mgrwt>
<rscale>  2 0.22776792E+03</rscale>
<asrwt>0</asrwt>
<pdfrwt beam="1">  1       21 0.24385183E-01 0.22848951E+03</pdfrwt>
<pdfrwt beam="2">  1       21 0.67254729E-01 0.22848951E+03</pdfrwt>
<totfact> 0.31537179E+04</totfact>
</mgrwt>
</event>
<event>
12    1  0.1013215E-001  0.2233768E+03  0.7546771E-02  0.1131404E+00
         21   -1    0    0  503  502  0.00000000000E+00  0.00000000000E+00  0.37084044859E+03  0.37084044859E+03  0.00000000000E+00 0.  1.
         21   -1    0    0  501  503 -0.00000000000E+00 -0.00000000000E+00 -0.16365903386E+03  0.16365903386E+03  0.00000000000E+00 0. -1.
          6    2    1    2  501    0 -0.14073883812E+03  0.24698876993E+01 -0.91902197450E+01  0.22356582003E+03  0.17344651869E+03 0.  0.
         24    2    3    3    0    0 -0.10042867887E+03  0.62967327780E+02 -0.34089562593E+02  0.14657935064E+03  0.79199771773E+02 0.  0.
         -6    2    1    2    0  502  0.14073883812E+03 -0.24698876993E+01  0.21637163448E+03  0.31093366241E+03  0.17334802368E+03 0.  0.
        -24    2    5    5    0    0  0.12966632879E+03 -0.50111542103E+02  0.12483923656E+03  0.20704623504E+03  0.89212022657E+02 0.  0.
          5    1    3    3  501    0 -0.40310159253E+02 -0.60497440081E+02  0.24899342848E+02  0.76986469393E+02  0.47000000000E+01 0. -1.
        -11    1    4    4    0    0 -0.53266914018E+02  0.45505015003E+02  0.19866667358E+02  0.72820017793E+02  0.00000000000E+00 0.  1.
         12    1    4    4    0    0 -0.47161764851E+02  0.17462312777E+02 -0.53956229951E+02  0.73759332846E+02  0.00000000000E+00 0. -1.
         -5    1    5    5    0  502  0.11072509333E+02  0.47641654404E+02  0.91532397919E+02  0.10388742737E+03  0.47000000000E+01 0.  1.
         11    1    6    6    0    0 -0.13440494243E+02 -0.27682723051E+01  0.54786259706E+01  0.14775843786E+02  0.00000000000E+00 0. -1.
        -12    1    6    6    0    0  0.14310682303E+03 -0.47343269798E+02  0.11936061059E+03  0.19227039126E+03  0.00000000000E+00 0.  1.
<mgrwt>
<rscale>  2 0.22335773E+03</rscale>
<asrwt>0</asrwt>
<pdfrwt beam="1">  1       21 0.57052376E-01 0.22337685E+03</pdfrwt>
<pdfrwt beam="2">  1       21 0.25178313E-01 0.22337685E+03</pdfrwt>
<totfact> 0.42476456E+04</totfact>
</mgrwt>
</event>
<event>
12    1  0.1013215E-001  0.2874604E+03  0.7546771E-02  0.1091721E+00
         21   -1    0    0  501  502  0.00000000000E+00  0.00000000000E+00  0.40646894168E+03  0.40646894168E+03  0.00000000000E+00 0.  1.
         21   -1    0    0  502  503 -0.00000000000E+00 -0.00000000000E+00 -0.47505646738E+03  0.47505646738E+03  0.00000000000E+00 0.  1.
         -6    2    1    2    0  503  0.13779030384E+03  0.18368143443E+03 -0.36778149483E+03  0.46661512844E+03  0.17245698874E+03 0.  0.
        -24    2    3    3    0    0  0.76321395694E+02  0.16777912797E+03 -0.34465058623E+03  0.39887711141E+03  0.79650060850E+02 0.  0.
          6    2    1    2  501    0 -0.13779030384E+03 -0.18368143443E+03  0.29919396912E+03  0.41491028062E+03  0.17294066212E+03 0.  0.
         24    2    5    5    0    0 -0.12320829767E+03 -0.18058139398E+03  0.17710885691E+03  0.29182856070E+03  0.77501207579E+02 0.  0.
          5    1    5    5  501    0 -0.14582006171E+02 -0.31000404537E+01  0.12208511221E+03  0.12308171992E+03  0.47000000000E+01 0. -1.
        -13    1    6    6    0    0 -0.86563539714E+02 -0.93877598345E+02  0.14298282241E+03  0.19170377509E+03  0.00000000000E+00 0.  1.
         14    1    6    6    0    0 -0.36644757955E+02 -0.86703795633E+02  0.34126034509E+02  0.10012478561E+03  0.00000000000E+00 0. -1.
         -5    1    3    3    0  503  0.61468908145E+02  0.15902306460E+02 -0.23130908602E+02  0.67738017037E+02  0.47000000000E+01 0.  1.
         11    1    4    4    0    0  0.64440759429E+01  0.10618131684E+03 -0.16127523985E+03  0.19319860545E+03  0.00000000000E+00 0. -1.
        -12    1    4    4    0    0  0.69877319752E+02  0.61597811132E+02 -0.18337534638E+03  0.20567850595E+03  0.00000000000E+00 0.  1.
<mgrwt>
<rscale>  2 0.28738774E+03</rscale>
<asrwt>0</asrwt>
<pdfrwt beam="1">  1       21 0.62533684E-01 0.28746045E+03</pdfrwt>
<pdfrwt beam="2">  1       21 0.73085610E-01 0.28746045E+03</pdfrwt>
<totfact> 0.37426211E+03</totfact>
</mgrwt>
</event>
<event>
12    1  0.1013215E-001  0.3201384E+03  0.7546771E-02  0.1075660E+00
         21   -1    0    0  503  502  0.00000000000E+00  0.00000000000E+00  0.17101340660E+03  0.17101340660E+03  0.00000000000E+00 0. -1.
         21   -1    0    0  501  503 -0.00000000000E+00 -0.00000000000E+00 -0.71305132187E+03  0.71305132187E+03  0.00000000000E+00 0.  1.
          6    2    1    2  501    0 -0.64380360511E+02  0.26083195986E+03 -0.93758040713E+02  0.33358536443E+03  0.17409906105E+03 0.  0.
         24    2    3    3    0    0 -0.43899657834E+02  0.16301828195E+03 -0.12874095948E+03  0.22760013256E+03  0.82008813485E+02 0.  0.
         -6    2    1    2    0  502  0.64380360511E+02 -0.26083195986E+03 -0.44827987456E+03  0.55047936404E+03  0.17290038228E+03 0.  0.
        -24    2    5    5    0    0  0.65177574387E+01 -0.86609946999E+02 -0.91358437471E+02  0.14908629876E+03  0.79602740531E+02 0.  0.
          5    1    3    3  501    0 -0.20480702677E+02  0.97813677910E+02  0.34982918762E+02  0.10598523187E+03  0.47000000000E+01 0. -1.
        -13    1    4    4    0    0  0.67190921613E+01  0.66258080896E+02 -0.89507180214E+02  0.11156529386E+03  0.00000000000E+00 0.  1.
         14    1    4    4    0    0 -0.50618749995E+02  0.96760201051E+02 -0.39233779262E+02  0.11603483871E+03  0.00000000000E+00 0. -1.
         -5    1    5    5    0  502  0.57862603072E+02 -0.17422201286E+03 -0.35692143709E+03  0.40139306528E+03  0.47000000000E+01 0.  1.
         13    1    6    6    0    0  0.10046031005E+02 -0.77571881870E+02 -0.25139423710E+02  0.82160271544E+02  0.00000000000E+00 0. -1.
        -14    1    6    6    0    0 -0.35282735665E+01 -0.90380651299E+01 -0.66219013761E+02  0.66926027218E+02  0.00000000000E+00 0.  1.
<mgrwt>
<rscale>  2 0.31997575E+03</rscale>
<asrwt>0</asrwt>
<pdfrwt beam="1">  1       21 0.26309754E-01 0.32013845E+03</pdfrwt>
<pdfrwt beam="2">  1       21 0.10970021E+00 0.32013845E+03</pdfrwt>
<totfact> 0.83903228E+03</totfact>
</mgrwt>
</event>
<event>
12    1  0.1013215E-001  0.2162589E+03  0.7546771E-02  0.1138325E+00
         21   -1    0    0  501  502  0.00000000000E+00  0.00000000000E+00  0.14341409186E+04  0.14341409186E+04  0.00000000000E+00 0. -1.
         21   -1    0    0  502  503 -0.00000000000E+00 -0.00000000000E+00 -0.47706222973E+02  0.47706222973E+02  0.00000000000E+00 0.  1.
         -6    2    1    2    0  503 -0.13849650551E+01 -0.11914397344E+03  0.26860206277E+03  0.34484054308E+03  0.18047361994E+03 0.  0.
        -24    2    3    3    0    0  0.39922997914E+02 -0.11311406052E+03  0.26630788206E+03  0.30276845115E+03  0.79750927966E+02 0.  0.
          6    2    1    2  501    0  0.13849650551E+01  0.11914397344E+03  0.11178326328E+04  0.11370065985E+04  0.17040248061E+03 0.  0.
         24    2    5    5    0    0  0.59775211931E+02  0.49600356087E+02  0.73275260443E+03  0.74133697122E+03  0.81368632327E+02 0.  0.
          5    1    5    5  501    0 -0.58390246876E+02  0.69543617352E+02  0.38508002840E+03  0.39566962724E+03  0.47000000000E+01 0. -1.
        -11    1    6    6    0    0  0.50624086115E+02 -0.54061777160E+01  0.23386017504E+03  0.23933784975E+03  0.00000000000E+00 0.  1.
         12    1    6    6    0    0  0.91511258167E+01  0.55006533803E+02  0.49889242938E+03  0.50199912148E+03  0.00000000000E+00 0. -1.
         -5    1    3    3    0  503 -0.41307962969E+02 -0.60299129147E+01  0.22941807078E+01  0.42072091932E+02  0.47000000000E+01 0.  1.
         11    1    4    4    0    0 -0.13402474194E+02 -0.58109495811E+02  0.69516177483E+02  0.91590604048E+02  0.00000000000E+00 0. -1.
        -12    1    4    4    0    0  0.53325472108E+02 -0.55004564713E+02  0.19679170458E+03  0.21117784710E+03  0.00000000000E+00 0.  1.
<mgrwt>
<rscale>  2 0.21414553E+03</rscale>
<asrwt>0</asrwt>
<pdfrwt beam="1">  1       21 0.22063703E+00 0.21625895E+03</pdfrwt>
<pdfrwt beam="2">  1       21 0.73394200E-02 0.21625895E+03</pdfrwt>
<totfact> 0.13628196E+04</totfact>
</mgrwt>
</event>
<event>
12    1  0.1013215E-001  0.2885108E+03  0.7546771E-02  0.1091704E+00
         21   -1    0    0  503  502  0.00000000000E+00  0.00000000000E+00  0.19654243272E+03  0.19654243272E+03  0.00000000000E+00 0. -1.
         21   -1    0    0  501  503 -0.00000000000E+00 -0.00000000000E+00 -0.42025371513E+03  0.42025371513E+03  0.00000000000E+00 0. -1.
          6    2    1    2  501    0 -0.45125676117E+02  0.22065750595E+03 -0.13745737953E+03  0.31566790904E+03  0.17327906980E+03 0.  0.
         24    2    3    3    0    0 -0.37777265147E+02  0.11015329867E+03  0.27768268342E+00  0.13886797597E+03  0.75652935648E+02 0.  0.
         -6    2    1    2    0  502  0.45125676117E+02 -0.22065750595E+03 -0.86253902883E+02  0.30112823882E+03  0.18031200425E+03 0.  0.
        -24    2    5    5    0    0  0.24181742636E+02 -0.59510360519E+02  0.19566350016E+02  0.10715126402E+03  0.83500369111E+02 0.  0.
          5    1    3    3  501    0 -0.73484109703E+01  0.11050420727E+03 -0.13773506221E+03  0.17679993307E+03  0.47000000000E+01 0. -1.
        -13    1    4    4    0    0 -0.48357535994E+02  0.33639333794E+02 -0.13430918773E+02  0.60418917936E+02  0.00000000000E+00 0.  1.
         14    1    4    4    0    0  0.10580270847E+02  0.76513964879E+02  0.13708601456E+02  0.78449058035E+02  0.00000000000E+00 0. -1.
         -5    1    5    5    0  502  0.20943933481E+02 -0.16114714543E+03 -0.10582025290E+03  0.19397697480E+03  0.47000000000E+01 0.  1.
         13    1    6    6    0    0  0.47219133507E+02 -0.63085612184E+02  0.25979425154E+02  0.82972113178E+02  0.00000000000E+00 0. -1.
        -14    1    6    6    0    0 -0.23037390871E+02  0.35752516646E+01 -0.64130751383E+01  0.24179150840E+02  0.00000000000E+00 0.  1.
<mgrwt>
<rscale>  2 0.28741902E+03</rscale>
<asrwt>0</asrwt>
<pdfrwt beam="1">  1       21 0.30237297E-01 0.28851080E+03</pdfrwt>
<pdfrwt beam="2">  1       21 0.64654417E-01 0.28851080E+03</pdfrwt>
<totfact> 0.22062743E+04</totfact>
</mgrwt>
</event>
<event>
12    1  0.1013215E-001  0.1818093E+03  0.7546771E-02  0.1166189E+00
         21   -1    0    0  503  502  0.00000000000E+00  0.00000000000E+00  0.22631371486E+03  0.22631371486E+03  0.00000000000E+00 0. -1.
         21   -1    0    0  501  503 -0.00000000000E+00 -0.00000000000E+00 -0.22825858889E+03  0.22825858889E+03  0.00000000000E+00 0.  1.
          6    2    1    2  501    0 -0.30563468603E+01  0.56705995835E+02 -0.13771736170E+03  0.22808043865E+03  0.17271277764E+03 0.  0.
         24    2    3    3    0    0 -0.59110271677E+02 -0.32560413562E+01 -0.64436010104E+02  0.11794536302E+03  0.79085290904E+02 0.  0.
         -6    2    1    2    0  502  0.30563468603E+01 -0.56705995835E+02  0.13577248768E+03  0.22649186509E+03  0.17216121899E+03 0.  0.
        -24    2    5    5    0    0  0.54457149190E+02 -0.22302324474E+02  0.13383065828E+03  0.16443128353E+03  0.75259731148E+02 0.  0.
          5    1    3    3  501    0  0.56053924817E+02  0.59962037191E+02 -0.73281351600E+02  0.11013507563E+03  0.47000000000E+01 0. -1.
        -13    1    4    4    0    0 -0.17500735830E+02  0.32794192361E+02 -0.47559283975E+02  0.60362407999E+02  0.00000000000E+00 0.  1.
         14    1    4    4    0    0 -0.41609535847E+02 -0.36050233717E+02 -0.16876726129E+02  0.57582955024E+02  0.00000000000E+00 0. -1.
         -5    1    5    5    0  502 -0.51400802330E+02 -0.34403671360E+02  0.19418294031E+01  0.62060581569E+02  0.47000000000E+01 0.  1.
         13    1    6    6    0    0  0.46713688353E+02 -0.37109281438E+02  0.46839592313E+02  0.75849949615E+02  0.00000000000E+00 0. -1.
        -14    1    6    6    0    0  0.77434608371E+01  0.14806956964E+02  0.86991065962E+02  0.88581333911E+02  0.00000000000E+00 0.  1.
<mgrwt>
<rscale>  2 0.18167817E+03</rscale>
<asrwt>0</asrwt>
<pdfrwt beam="1">  1       21 0.34817495E-01 0.18180928E+03</pdfrwt>
<pdfrwt beam="2">  1       21 0.35116706E-01 0.18180928E+03</pdfrwt>
<totfact> 0.62456769E+04</totfact>
</mgrwt>
</event>
<event>
12    1  0.1013215E-001  0.2183217E+03  0.7546771E-02  0.1135381E+00
         21   -1    0    0  501  502  0.00000000000E+00  0.00000000000E+00  0.41554884462E+02  0.41554884462E+02  0.00000000000E+00 0. -1.
         21   -1    0    0  502  503 -0.00000000000E+00 -0.00000000000E+00 -0.11685090417E+04  0.11685090417E+04  0.00000000000E+00 0. -1.
         -6    2    1    2    0  503  0.38603054722E+02  0.12659562976E+03 -0.46791946420E+03  0.51580814102E+03  0.17202547503E+03 0.  0.
        -24    2    3    3    0    0  0.24578195420E+02  0.48626997003E+01 -0.27112565765E+03  0.28393426315E+03  0.80509688981E+02 0.  0.
          6    2    1    2  501    0 -0.38603054722E+02 -0.12659562976E+03 -0.65903469302E+03  0.69425578512E+03  0.17363098590E+03 0.  0.
         24    2    5    5    0    0  0.75995935000E+01 -0.14137887787E+03 -0.45425033835E+03  0.48375174467E+03  0.87330634119E+02 0.  0.
          5    1    5    5  501    0 -0.46202648222E+02  0.14783248108E+02 -0.20478435467E+03  0.21050404045E+03  0.47000000000E+01 0. -1.
        -11    1    6    6    0    0 -0.26107887983E+02 -0.12629061721E+03 -0.36738683617E+03  0.38936362080E+03  0.00000000000E+00 0.  1.
         12    1    6    6    0    0  0.33707481483E+02 -0.15088260653E+02 -0.86863502173E+02  0.94388123868E+02  0.00000000000E+00 0. -1.
         -5    1    3    3    0  503  0.14024859302E+02  0.12173293006E+03 -0.19679380655E+03  0.23187387787E+03  0.47000000000E+01 0.  1.
         13    1    4    4    0    0  0.16082101324E+02 -0.16277240936E+02 -0.16304482773E+02  0.28096596128E+02  0.00000000000E+00 0. -1.
        -14    1    4    4    0    0  0.84960940963E+01  0.21139940636E+02 -0.25482117487E+03  0.25583766703E+03  0.00000000000E+00 0.  1.
<mgrwt>
<rscale>  2 0.21800234E+03</rscale>
<asrwt>0</asrwt>
<pdfrwt beam="1">  1       21 0.63930595E-02 0.21832171E+03</pdfrwt>
<pdfrwt beam="2">  1       21 0.17977061E+00 0.21832171E+03</pdfrwt>
<totfact> 0.31761300E+04</totfact>
</mgrwt>
</event>
<event>
11    1  0.1013215E-001  0.3098885E+03  0.7546771E-02  0.1080471E+00
         21   -1    0    0  503  502  0.00000000000E+00  0.00000000000E+00  0.41196221794E+03  0.41196221794E+03  0.00000000000E+00 0.  1.
         21   -1    0    0  501  503 -0.00000000000E+00 -0.00000000000E+00 -0.27594313495E+03  0.27594313495E+03  0.00000000000E+00 0.  1.
          6    2    1    2  501    0 -0.21885782228E+03 -0.13500132924E+03 -0.68268658403E+02  0.31673913318E+03  0.17186903007E+03 0.  0.
         -6    2    1    2    0  502  0.21885782228E+03  0.13500132924E+03  0.20428774139E+03  0.37116621971E+03  0.17293575714E+03 0.  0.
        -24    2    4    4    0    0  0.20225419006E+03  0.16432504067E+03  0.16317369591E+03  0.31779941925E+03  0.80382457361E+02 0.  0.
          5    1    3    3  501    0 -0.57593040174E-01  0.19065127500E+01  0.34446403457E+02  0.34817852015E+02  0.47000000000E+01 0. -1.
        -11    1    3    3    0    0 -0.74605249184E+02 -0.26875736367E+02 -0.16083385096E+02  0.80913062525E+02  0.00000000000E+00 0.  1.
         12    1    3    3    0    0 -0.14419498006E+03 -0.11003210562E+03 -0.86631676763E+02  0.20100821864E+03  0.00000000000E+00 0. -1.
         -5    1    4    4    0  502  0.16603632229E+02 -0.29323711432E+02  0.41114045486E+02  0.53366800462E+02  0.47000000000E+01 0.  1.
         11    1    5    5    0    0  0.63771941431E+02  0.78368522480E+02  0.10237922569E+03  0.14384016019E+03  0.00000000000E+00 0. -1.
        -12    1    5    5    0    0  0.13848224862E+03  0.85956518191E+02  0.60794470213E+02  0.17395925906E+03  0.00000000000E+00 0.  1.
<mgrwt>
<rscale>  2 0.30973988E+03</rscale>
<asrwt>0</asrwt>
<pdfrwt beam="1">  1       21 0.63378803E-01 0.30988850E+03</pdfrwt>
<pdfrwt beam="2">  1       21 0.42452790E-01 0.30988850E+03</pdfrwt>
<totfact> 0.11539519E+04</totfact>
</mgrwt>
</event>
<event>
12    1  0.1013215E-001  0.3608871E+03  0.7546771E-02  0.1058287E+00
         21   -1    0    0  503  502  0.00000000000E+00  0.00000000000E+00  0.19105485289E+03  0.19105485289E+03  0.00000000000E+00 0. -1.
         21   -1    0    0  501  503 -0.00000000000E+00 -0.00000000000E+00 -0.82952838421E+03  0.82952838421E+03  0.00000000000E+00 0.  1.
          6    2    1    2  501    0 -0.28057076563E+03 -0.14329118293E+03 -0.53561231778E+03  0.64584832962E+03  0.17603179339E+03 0.  0.
         24    2    3    3    0    0 -0.12934779217E+03 -0.31226290237E+02 -0.34251704303E+03  0.37615442349E+03  0.80425698619E+02 0.  0.
         -6    2    1    2    0  502  0.28057076563E+03  0.14329118293E+03 -0.10286121354E+03  0.37473490748E+03  0.17490998828E+03 0.  0.
        -24    2    5    5    0    0  0.11650303117E+03  0.78499122160E+02  0.15146725607E+02  0.16245161485E+03  0.80162556206E+02 0.  0.
          5    1    3    3  501    0 -0.15122297346E+03 -0.11206489270E+03 -0.19309527474E+03  0.26969390613E+03  0.47000000000E+01 0. -1.
        -11    1    4    4    0    0 -0.69354435722E+02 -0.51650322625E+02 -0.24538495154E+03  0.26017603276E+03  0.00000000000E+00 0.  1.
         12    1    4    4    0    0 -0.59993356450E+02  0.20424032388E+02 -0.97132091494E+02  0.11597839073E+03  0.00000000000E+00 0. -1.
         -5    1    5    5    0  502  0.16406773446E+03  0.64792060772E+02 -0.11800793915E+03  0.21228329264E+03  0.47000000000E+01 0.  1.
         11    1    6    6    0    0  0.39047544673E+02 -0.13635913332E+02  0.49002701690E+01  0.41649268003E+02  0.00000000000E+00 0. -1.
        -12    1    6    6    0    0  0.77455486496E+02  0.92135035492E+02  0.10246455438E+02  0.12080234684E+03  0.00000000000E+00 0.  1.
<mgrwt>
<rscale>  2 0.36075057E+03</rscale>
<asrwt>0</asrwt>
<pdfrwt beam="1">  1       21 0.29393055E-01 0.36088712E+03</pdfrwt>
<pdfrwt beam="2">  1       21 0.12761975E+00 0.36088712E+03</pdfrwt>
<totfact> 0.45378905E+03</totfact>
</mgrwt>
</event>
<event>
12    1  0.1013215E-001  0.2696078E+03  0.7546771E-02  0.1101660E+00
         21   -1    0    0  503  502  0.00000000000E+00  0.00000000000E+00  0.32634353644E+03  0.32634353644E+03  0.00000000000E+00 0. -1.
         21   -1    0    0  501  503 -0.00000000000E+00 -0.00000000000E+00 -0.23361587309E+03  0.23361587309E+03  0.00000000000E+00 0.  1.
          6    2    1    2  501    0  0.31328598044E+02  0.20354292422E+03  0.10913870569E+03  0.28985259366E+03  0.17231385874E+03 0.  0.
         24    2    3    3    0    0 -0.46764804675E+01  0.17339297492E+03  0.24413416797E+02  0.19286883367E+03  0.80717896793E+02 0.  0.
         -6    2    1    2    0  502 -0.31328598044E+02 -0.20354292422E+03 -0.16411042347E+02  0.27010681587E+03  0.17400335231E+03 0.  0.
        -24    2    5    5    0    0 -0.61562327315E+02 -0.17586948464E+03  0.38180119890E+02  0.20168033972E+03  0.67061480036E+02 0.  0.
          5    1    3    3  501    0  0.36005078511E+02  0.30149949303E+02  0.84725288898E+02  0.96983759982E+02  0.47000000000E+01 0. -1.
        -13    1    4    4    0    0  0.33566881392E+02  0.59072127059E+02 -0.69787188553E+01  0.68300470266E+02  0.00000000000E+00 0.  1.
         14    1    4    4    0    0 -0.38243361859E+02  0.11432084786E+03  0.31392135652E+02  0.12456836341E+03  0.00000000000E+00 0. -1.
         -5    1    5    5    0  502  0.30233729271E+02 -0.27673439582E+02 -0.54591162238E+02  0.68426476151E+02  0.47000000000E+01 0.  1.
         13    1    6    6    0    0  0.53182104033E+01 -0.32398038211E+02  0.27844259409E+02  0.43049030464E+02  0.00000000000E+00 0. -1.
        -14    1    6    6    0    0 -0.66880537718E+02 -0.14347144643E+03  0.10335860481E+02  0.15863130926E+03  0.00000000000E+00 0.  1.
<mgrwt>
<rscale>  2 0.26933557E+03</rscale>
<asrwt>0</asrwt>
<pdfrwt beam="1">  1       21 0.50206698E-01 0.26960781E+03</pdfrwt>
<pdfrwt beam="2">  1       21 0.35940904E-01 0.26960781E+03</pdfrwt>
<totfact> 0.27155945E+04</totfact>
</mgrwt>
</event>
<event>
12    1  0.1013215E-001  0.1910576E+03  0.7546771E-02  0.1157590E+00
         21   -1    0    0  503  502  0.00000000000E+00  0.00000000000E+00  0.55050791656E+02  0.55050791656E+02  0.00000000000E+00 0.  1.
         21   -1    0    0  501  503 -0.00000000000E+00 -0.00000000000E+00 -0.68214058147E+03  0.68214058147E+03  0.00000000000E+00 0.  1.
          6    2    1    2  501    0  0.75420827195E+02  0.29789563241E+02 -0.37682904829E+03  0.42233675399E+03  0.17260499089E+03 0.  0.
         24    2    3    3    0    0  0.39161320469E+02  0.73407534334E+02 -0.32628372926E+03  0.34621712113E+03  0.80516755184E+02 0.  0.
         -6    2    1    2    0  502 -0.75420827195E+02 -0.29789563241E+02 -0.25026074153E+03  0.31485461914E+03  0.17299500915E+03 0.  0.
        -24    2    5    5    0    0 -0.47359372152E+02 -0.16667104216E+02 -0.65045618161E+02  0.12700793668E+03  0.96847204622E+02 0.  0.
          5    1    3    3  501    0  0.36259506726E+02 -0.43617971093E+02 -0.50545319028E+02  0.76119632854E+02  0.47000000000E+01 0. -1.
        -13    1    4    4    0    0  0.10712367562E+01  0.53040532977E+01  0.40711178741E+01  0.67715973239E+01  0.00000000000E+00 0.  1.
         14    1    4    4    0    0  0.38090083713E+02  0.68103481037E+02 -0.33035484714E+03  0.33944552381E+03  0.00000000000E+00 0. -1.
         -5    1    5    5    0  502 -0.28061455043E+02 -0.13122459025E+02 -0.18521512337E+03  0.18784668247E+03  0.47000000000E+01 0.  1.
         13    1    6    6    0    0  0.15376914527E+02 -0.24035133308E+00 -0.60023776293E+02  0.61962577331E+02  0.00000000000E+00 0. -1.
        -14    1    6    6    0    0 -0.62736286678E+02 -0.16426752882E+02 -0.50218418682E+01  0.65045359344E+02  0.00000000000E+00 0.  1.
<mgrwt>
<rscale>  2 0.19096923E+03</rscale>
<asrwt>0</asrwt>
<pdfrwt beam="1">  1       21 0.84693523E-02 0.19105756E+03</pdfrwt>
<pdfrwt beam="2">  1       21 0.10494471E+00 0.19105756E+03</pdfrwt>
<totfact> 0.79537035E+04</totfact>
</mgrwt>
</event>
<event>
12    1  0.1013215E-001  0.1750211E+03  0.7546771E-02  0.1172949E+00
         21   -1    0    0  501  502  0.00000000000E+00  0.00000000000E+00  0.29112178144E+03  0.29112178144E+03  0.00000000000E+00 0.  1.
         21   -1    0    0  502  503 -0.00000000000E+00 -0.00000000000E+00 -0.14402495202E+03  0.14402495202E+03  0.00000000000E+00 0.  1.
         -6    2    1    2    0  503 -0.12613935399E+02 -0.72751359600E+01 -0.40352270540E+02  0.17869097660E+03  0.17346504089E+03 0.  0.
        -24    2    3    3    0    0  0.35896816632E+02 -0.39668135142E+02  0.65975893592E+01  0.10366445593E+03  0.88547438407E+02 0.  0.
          6    2    1    2  501    0  0.12613935399E+02  0.72751359600E+01  0.18744909995E+03  0.25645575686E+03  0.17441430900E+03 0.  0.
         24    2    5    5    0    0 -0.19854301108E+02 -0.51689796048E+02  0.59581339402E+02  0.11187600802E+03  0.76813259770E+02 0.  0.
          5    1    5    5  501    0  0.32468236507E+02  0.58964932008E+02  0.12786776055E+03  0.14457974885E+03  0.47000000000E+01 0. -1.
        -11    1    6    6    0    0 -0.27364491451E+02 -0.17753608514E+02  0.68606448083E+02  0.75966115645E+02  0.00000000000E+00 0.  1.
         12    1    6    6    0    0  0.75101903427E+01 -0.33936187534E+02 -0.90251086808E+01  0.35909892370E+02  0.00000000000E+00 0. -1.
         -5    1    3    3    0  503 -0.48510752031E+02  0.32392999182E+02 -0.46949859899E+02  0.75026520665E+02  0.47000000000E+01 0.  1.
         11    1    4    4    0    0  0.60247283891E+02 -0.16860007444E+02 -0.14459602398E+02  0.64211176354E+02  0.00000000000E+00 0. -1.
        -12    1    4    4    0    0 -0.24350467259E+02 -0.22808127699E+02  0.21057191757E+02  0.39453279579E+02  0.00000000000E+00 0.  1.
<mgrwt>
<rscale>  2 0.17478414E+03</rscale>
<asrwt>0</asrwt>
<pdfrwt beam="1">  1       21 0.44787966E-01 0.17502111E+03</pdfrwt>
<pdfrwt beam="2">  1       21 0.22157685E-01 0.17502111E+03</pdfrwt>
<totfact> 0.91759732E+04</totfact>
</mgrwt>
</event>
<event>
12    1  0.1013215E-001  0.1997249E+03  0.7546771E-02  0.1150601E+00
         21   -1    0    0  503  502  0.00000000000E+00  0.00000000000E+00  0.27977858152E+03  0.27977858152E+03  0.00000000000E+00 0. -1.
         21   -1    0    0  501  503 -0.00000000000E+00 -0.00000000000E+00 -0.14051281864E+03  0.14051281864E+03  0.00000000000E+00 0. -1.
          6    2    1    2  501    0  0.38678664994E+01  0.94502190278E+02  0.65625724042E+02  0.20742311622E+03  0.17254561463E+03 0.  0.
         24    2    3    3    0    0 -0.62176080893E+02  0.79158731113E+02  0.39480565043E+02  0.13460221218E+03  0.80169013724E+02 0.  0.
         -6    2    1    2    0  502 -0.38678664994E+01 -0.94502190278E+02  0.73640038842E+02  0.21286828394E+03  0.17591028005E+03 0.  0.
        -24    2    5    5    0    0 -0.59353555857E+02 -0.85898432623E+02  0.82570499639E+02  0.15581980018E+03  0.80997144383E+02 0.  0.
          5    1    3    3  501    0  0.66043947393E+02  0.15343459166E+02  0.26145158999E+02  0.72820904041E+02  0.47000000000E+01 0. -1.
        -13    1    4    4    0    0  0.54267088005E+01 -0.12616518830E+02 -0.67270510050E+00  0.13750572641E+02  0.00000000000E+00 0.  1.
         14    1    4    4    0    0 -0.67602789694E+02  0.91775249943E+02  0.40153270144E+02  0.12085163954E+03  0.00000000000E+00 0. -1.
         -5    1    5    5    0  502  0.55485689357E+02 -0.86037576556E+01 -0.89304607968E+01  0.57048483760E+02  0.47000000000E+01 0.  1.
         13    1    6    6    0    0 -0.49688401553E+02 -0.73713817856E+02  0.19699143682E+02  0.91053393422E+02  0.00000000000E+00 0. -1.
        -14    1    6    6    0    0 -0.96651543039E+01 -0.12184614766E+02  0.62871355956E+02  0.64766406759E+02  0.00000000000E+00 0.  1.
<mgrwt>
<rscale>  2 0.19898154E+03</rscale>
<asrwt>0</asrwt>
<pdfrwt beam="1">  1       21 0.43042859E-01 0.19972494E+03</pdfrwt>
<pdfrwt beam="2">  1       21 0.21617357E-01 0.19972494E+03</pdfrwt>
<totfact> 0.10326237E+05</totfact>
</mgrwt>
</event>
<event>
12    1  0.1013215E-001  0.1760391E+03  0.7546771E-02  0.1172491E+00
         21   -1    0    0  501  502  0.00000000000E+00  0.00000000000E+00  0.19934826998E+04  0.19934826998E+04  0.00000000000E+00 0.  1.
         21   -1    0    0  502  503 -0.00000000000E+00 -0.00000000000E+00 -0.26628526527E+02  0.26628526527E+02  0.00000000000E+00 0.  1.
         -6    2    1    2    0  503  0.27284982692E+02 -0.39928920428E+01  0.31852922529E+03  0.36241255484E+03  0.17065045875E+03 0.  0.
        -24    2    3    3    0    0 -0.49338286564E+02  0.87124630540E+01  0.17599576450E+03  0.20002281106E+03  0.80774019886E+02 0.  0.
          6    2    1    2  501    0 -0.27284982692E+02  0.39928920428E+01  0.16483249480E+04  0.16576986715E+04  0.17386586165E+03 0.  0.
         24    2    5    5    0    0 -0.16143127159E+02 -0.29968823807E+02  0.15565608180E+04  0.15591071676E+04  0.82309470718E+02 0.  0.
          5    1    5    5  501    0 -0.11141855534E+02  0.33961715850E+02  0.91764130000E+02  0.98591503908E+02  0.47000000000E+01 0. -1.
        -13    1    6    6    0    0 -0.41498587801E+02 -0.14932630154E+01  0.11534377129E+04  0.11541849592E+04  0.00000000000E+00 0.  1.
         14    1    6    6    0    0  0.25355460643E+02 -0.28475560792E+02  0.40312310511E+03  0.40492220836E+03  0.00000000000E+00 0. -1.
         -5    1    3    3    0  503  0.76623269256E+02 -0.12705355097E+02  0.14253346079E+03  0.16238974378E+03  0.47000000000E+01 0.  1.
         11    1    4    4    0    0 -0.41183390033E+02  0.78698502624E+01  0.18390925875E+03  0.18862826302E+03  0.00000000000E+00 0. -1.
        -12    1    4    4    0    0 -0.81548965307E+01  0.84261279160E+00 -0.79134942479E+01  0.11394548036E+02  0.00000000000E+00 0.  1.
<mgrwt>
<rscale>  2 0.17523989E+03</rscale>
<asrwt>0</asrwt>
<pdfrwt beam="1">  1       21 0.30668953E+00 0.17603906E+03</pdfrwt>
<pdfrwt beam="2">  1       21 0.40966980E-02 0.17603906E+03</pdfrwt>
<totfact> 0.11980437E+04</totfact>
</mgrwt>
</event>
<event>
12    1  0.1013215E-001  0.1948968E+03  0.7546771E-02  0.1154201E+00
         21   -1    0    0  501  502  0.00000000000E+00  0.00000000000E+00  0.12208948469E+04  0.12208948469E+04  0.00000000000E+00 0.  1.
         21   -1    0    0  502  503 -0.00000000000E+00 -0.00000000000E+00 -0.58585429748E+02  0.58585429748E+02  0.00000000000E+00 0.  1.
         -6    2    1    2    0  503 -0.23614056793E+02 -0.85231271209E+02  0.14288158836E+03  0.24166070661E+03  0.17367428006E+03 0.  0.
        -24    2    3    3    0    0  0.16775796473E+02  0.11824274664E+02  0.43816100615E+02  0.97136729031E+02  0.84228573745E+02 0.  0.
          6    2    1    2  501    0  0.23614056793E+02  0.85231271209E+02  0.10194278288E+04  0.10378195701E+04  0.17324655431E+03 0.  0.
         24    2    5    5    0    0  0.28271846408E+02  0.11428760053E+03  0.95691195196E+03  0.96856431658E+03  0.92603448114E+02 0.  0.
          5    1    5    5  501    0 -0.46577896152E+01 -0.29056329318E+02  0.62515876875E+02  0.69255253511E+02  0.47000000000E+01 0. -1.
        -13    1    6    6    0    0 -0.19818129788E+02  0.76510326909E+02  0.36256106850E+03  0.37107562138E+03  0.00000000000E+00 0.  1.
         14    1    6    6    0    0  0.48089976196E+02  0.37777273618E+02  0.59435088347E+03  0.59748869520E+03  0.00000000000E+00 0. -1.
         -5    1    3    3    0  503 -0.40389853266E+02 -0.97055545873E+02  0.99065487747E+02  0.14452397758E+03  0.47000000000E+01 0.  1.
         13    1    4    4    0    0  0.32098683576E+02  0.17814535658E+02  0.62349603825E+02  0.72354379723E+02  0.00000000000E+00 0. -1.
        -14    1    4    4    0    0 -0.15322887103E+02 -0.59902609939E+01 -0.18533503210E+02  0.24782349307E+02  0.00000000000E+00 0.  1.
<mgrwt>
<rscale>  2 0.19480143E+03</rscale>
<asrwt>0</asrwt>
<pdfrwt beam="1">  1       21 0.18782996E+00 0.19489676E+03</pdfrwt>
<pdfrwt beam="2">  1       21 0.90131439E-02 0.19489676E+03</pdfrwt>
<totfact> 0.15680075E+04</totfact>
</mgrwt>
</event>
<event>
12    1  0.1013215E-001  0.1864431E+03  0.7546771E-02  0.1161980E+00
         21   -1    0    0  503  502  0.00000000000E+00  0.00000000000E+00  0.73341346068E+02  0.73341346068E+02  0.00000000000E+00 0.  1.
         21   -1    0    0  501  503 -0.00000000000E+00 -0.00000000000E+00 -0.57269866725E+03  0.57269866725E+03  0.00000000000E+00 0.  1.
          6    2    1    2  501    0  0.37218484420E+02  0.57571735538E+02 -0.38515401033E+03  0.42740010291E+03  0.17212645346E+03 0.  0.
         24    2    3    3    0    0 -0.35837458312E+02  0.39772437736E+02 -0.13784615204E+03  0.16887108608E+03  0.81545765435E+02 0.  0.
         -6    2    1    2    0  502 -0.37218484420E+02 -0.57571735538E+02 -0.11420331085E+03  0.21863991041E+03  0.17338193071E+03 0.  0.
        -24    2    5    5    0    0  0.41990451406E+02 -0.54333711779E+02 -0.49111626846E+02  0.11595808320E+03  0.79491980239E+02 0.  0.
          5    1    3    3  501    0  0.73055942732E+02  0.17799297802E+02 -0.24730785830E+03  0.25852901683E+03  0.47000000000E+01 0. -1.
        -13    1    4    4    0    0 -0.44918796911E+02  0.59984605892E+02 -0.11286857358E+03  0.13548123915E+03  0.00000000000E+00 0.  1.
         14    1    4    4    0    0  0.90813385997E+01 -0.20212168155E+02 -0.24977578456E+02  0.33389846927E+02  0.00000000000E+00 0. -1.
         -5    1    5    5    0  502 -0.79208935826E+02 -0.32380237594E+01 -0.65091684005E+02  0.10268182721E+03  0.47000000000E+01 0.  1.
         13    1    6    6    0    0  0.14077290687E+02 -0.36034628525E+02  0.16722779392E+02  0.42146363030E+02  0.00000000000E+00 0. -1.
        -14    1    6    6    0    0  0.27913160720E+02 -0.18299083253E+02 -0.65834406238E+02  0.73811720167E+02  0.00000000000E+00 0.  1.
<mgrwt>
<rscale>  2 0.18615063E+03</rscale>
<asrwt>0</asrwt>
<pdfrwt beam="1">  1       21 0.11283284E-01 0.18644306E+03</pdfrwt>
<pdfrwt beam="2">  1       21 0.88107489E-01 0.18644306E+03</pdfrwt>
<totfact> 0.72473566E+04</totfact>
</mgrwt>
</event>
<event>
12    1  0.1013215E-001  0.1817699E+03  0.7546771E-02  0.1166137E+00
         21   -1    0    0  501  502  0.00000000000E+00  0.00000000000E+00  0.31794037621E+02  0.31794037621E+02  0.00000000000E+00 0. -1.
         21   -1    0    0  502  503 -0.00000000000E+00 -0.00000000000E+00 -0.12503408525E+04  0.12503408525E+04  0.00000000000E+00 0. -1.
         -6    2    1    2    0  503 -0.53725471189E+02 -0.19388893015E+02 -0.87346350577E+03  0.89217643572E+03  0.17256286137E+03 0.  0.
        -24    2    3    3    0    0 -0.24217384817E+01 -0.10183022501E+02 -0.18679514509E+03  0.20351661506E+03  0.80106351877E+02 0.  0.
          6    2    1    2  501    0  0.53725471189E+02  0.19388893015E+02 -0.34508330911E+03  0.38995845439E+03  0.17240287266E+03 0.  0.
         24    2    5    5    0    0  0.74734987439E+02 -0.44679109439E+01 -0.12120926242E+03  0.16378987646E+03  0.80809391512E+02 0.  0.
          5    1    5    5  501    0 -0.21009516250E+02  0.23856803959E+02 -0.22387404668E+03  0.22616857794E+03  0.47000000000E+01 0. -1.
        -11    1    6    6    0    0  0.36744738623E+02 -0.28667888417E+02 -0.10675446301E+03  0.11648407194E+03  0.00000000000E+00 0.  1.
         12    1    6    6    0    0  0.37990248816E+02  0.24199977473E+02 -0.14454799409E+02  0.47305804514E+02  0.00000000000E+00 0. -1.
         -5    1    3    3    0  503 -0.51303732708E+02 -0.92058705145E+01 -0.68666836068E+03  0.68865982066E+03  0.47000000000E+01 0.  1.
         11    1    4    4    0    0 -0.97456115115E+01  0.77646266416E+01 -0.18341727717E+03  0.18384004987E+03  0.00000000000E+00 0. -1.
        -12    1    4    4    0    0  0.73238730299E+01 -0.17947649142E+02 -0.33778679150E+01  0.19676565187E+02  0.00000000000E+00 0.  1.
<mgrwt>
<rscale>  2 0.18173192E+03</rscale>
<asrwt>0</asrwt>
<pdfrwt beam="1">  1       21 0.48913912E-02 0.18176990E+03</pdfrwt>
<pdfrwt beam="2">  1       21 0.19236010E+00 0.18176990E+03</pdfrwt>
<totfact> 0.42321518E+04</totfact>
</mgrwt>
</event>
<event>
12    1  0.1013215E-001  0.1915927E+03  0.7546771E-02  0.1157248E+00
         21   -1    0    0  503  502  0.00000000000E+00  0.00000000000E+00  0.48476539896E+02  0.48476539896E+02  0.00000000000E+00 0. -1.
         21   -1    0    0  501  503 -0.00000000000E+00 -0.00000000000E+00 -0.85008143270E+03  0.85008143270E+03  0.00000000000E+00 0. -1.
          6    2    1    2  501    0  0.69305834758E+02 -0.43181746308E+02 -0.55139809985E+03  0.58342120206E+03  0.17225699562E+03 0.  0.
         24    2    3    3    0    0  0.10994379686E+03 -0.17402921645E+02 -0.35030618107E+03  0.37659750524E+03  0.81980243393E+02 0.  0.
         -6    2    1    2    0  502 -0.69305834758E+02  0.43181746308E+02 -0.25020679295E+03  0.31513677054E+03  0.17331988623E+03 0.  0.
        -24    2    5    5    0    0 -0.18442473644E+01 -0.21900767053E+02 -0.59902814015E+02  0.10294701179E+03  0.80787964846E+02 0.  0.
          5    1    3    3  501    0 -0.40637962101E+02 -0.25778824662E+02 -0.20109191879E+03  0.20682369682E+03  0.47000000000E+01 0. -1.
        -13    1    4    4    0    0  0.32362989512E+02  0.15446644577E+02 -0.34554310916E+02  0.49799220092E+02  0.00000000000E+00 0.  1.
         14    1    4    4    0    0  0.77580807348E+02 -0.32849566223E+02 -0.31575187015E+03  0.32679828514E+03  0.00000000000E+00 0. -1.
         -5    1    5    5    0  502 -0.67461587394E+02  0.65082513361E+02 -0.19030397893E+03  0.21218975875E+03  0.47000000000E+01 0.  1.
         11    1    6    6    0    0 -0.39231670729E+02 -0.24451326461E+02 -0.34262481141E+02  0.57540498502E+02  0.00000000000E+00 0. -1.
        -12    1    6    6    0    0  0.37387423365E+02  0.25505594081E+01 -0.25640332874E+02  0.45406513289E+02  0.00000000000E+00 0.  1.
<mgrwt>
<rscale>  2 0.19135196E+03</rscale>
<asrwt>0</asrwt>
<pdfrwt beam="1">  1       21 0.74579297E-02 0.19159265E+03</pdfrwt>
<pdfrwt beam="2">  1       21 0.13078175E+00 0.19159265E+03</pdfrwt>
<totfact> 0.57747879E+04</totfact>
</mgrwt>
</event>
<event>
12    1  0.1013215E-001  0.2059437E+03  0.7546771E-02  0.1145525E+00
         21   -1    0    0  503  502  0.00000000000E+00  0.00000000000E+00  0.33095423867E+03  0.33095423867E+03  0.00000000000E+00 0. -1.
         21   -1    0    0  501  503 -0.00000000000E+00 -0.00000000000E+00 -0.34563097973E+03  0.34563097973E+03  0.00000000000E+00 0. -1.
          6    2    1    2  501    0 -0.81780463120E+02 -0.75186595617E+02 -0.27697158800E+03  0.34310150069E+03  0.16930537767E+03 0.  0.
         24    2    3    3    0    0 -0.87166982296E+02 -0.85145929972E+02 -0.12975004434E+03  0.19537040766E+03  0.80539493358E+02 0.  0.
         -6    2    1    2    0  502  0.81780463120E+02  0.75186595617E+02  0.26229484694E+03  0.33348371771E+03  0.17341203804E+03 0.  0.
        -24    2    5    5    0    0 -0.26589397134E+02  0.24717221976E+02  0.62873588284E+02  0.10092810567E+03  0.70110322411E+02 0.  0.
          5    1    3    3  501    0  0.53865191763E+01  0.99593343547E+01 -0.14722154366E+03  0.14773109303E+03  0.47000000000E+01 0. -1.
        -11    1    4    4    0    0 -0.62352077790E+02 -0.16043603933E+02 -0.28769397413E+02  0.70518487359E+02  0.00000000000E+00 0.  1.
         12    1    4    4    0    0 -0.24814904506E+02 -0.69102326038E+02 -0.10098064693E+03  0.12485192030E+03  0.00000000000E+00 0. -1.
         -5    1    5    5    0  502  0.10836986025E+03  0.50469373641E+02  0.19942125866E+03  0.23255561204E+03  0.47000000000E+01 0.  1.
         13    1    6    6    0    0  0.21050767909E+02  0.22682319459E+02  0.29254138069E+02  0.42584352053E+02  0.00000000000E+00 0. -1.
        -14    1    6    6    0    0 -0.47640165043E+02  0.20349025171E+01  0.33619450215E+02  0.58343753619E+02  0.00000000000E+00 0.  1.
<mgrwt>
<rscale>  2 0.20507677E+03</rscale>
<asrwt>0</asrwt>
<pdfrwt beam="1">  1       21 0.50916037E-01 0.20594369E+03</pdfrwt>
<pdfrwt beam="2">  1       21 0.53173997E-01 0.20594369E+03</pdfrwt>
<totfact> 0.12180901E+04</totfact>
</mgrwt>
</event>
<event>
12    1  0.1013215E-001  0.1791780E+03  0.7546771E-02  0.1169163E+00
         21   -1    0    0  503  502  0.00000000000E+00  0.00000000000E+00  0.21359715512E+02  0.21359715512E+02  0.00000000000E+00 0.  1.
         21   -1    0    0  501  503 -0.00000000000E+00 -0.00000000000E+00 -0.14975984494E+04  0.14975984494E+04  0.00000000000E+00 0. -1.
          6    2    1    2  501    0  0.36720857579E+02  0.19586395728E+02 -0.81554683081E+03  0.83499782967E+03  0.17427763492E+03 0.  0.
         24    2    3    3    0    0  0.65919279104E+02  0.60643936899E+02 -0.44360815155E+03  0.45963301961E+03  0.80319873945E+02 0.  0.
         -6    2    1    2    0  502 -0.36720857579E+02 -0.19586395728E+02 -0.66069190305E+03  0.68396033521E+03  0.17191829777E+03 0.  0.
        -24    2    5    5    0    0 -0.71745490866E+02 -0.40083844202E+02 -0.59874972414E+03  0.60975929844E+03  0.80938494187E+02 0.  0.
          5    1    3    3  501    0 -0.29198421524E+02 -0.41057541171E+02 -0.37193867926E+03  0.37536481007E+03  0.47000000000E+01 0. -1.
        -13    1    4    4    0    0  0.72087484920E+02  0.14299126661E+02 -0.26377652968E+03  0.27382316942E+03  0.00000000000E+00 0.  1.
         14    1    4    4    0    0 -0.61682058158E+01  0.46344810238E+02 -0.17983162187E+03  0.18580985018E+03  0.00000000000E+00 0. -1.
         -5    1    5    5    0  502  0.35024633287E+02  0.20497448474E+02 -0.61942178908E+02  0.74201036776E+02  0.47000000000E+01 0.  1.
         13    1    6    6    0    0 -0.40868244910E+02 -0.32540538964E+02 -0.54360870985E+03  0.54611311058E+03  0.00000000000E+00 0. -1.
        -14    1    6    6    0    0 -0.30877245956E+02 -0.75433052385E+01 -0.55141014294E+02  0.63646187860E+02  0.00000000000E+00 0.  1.
<mgrwt>
<rscale>  2 0.17860170E+03</rscale>
<asrwt>0</asrwt>
<pdfrwt beam="1">  1       21 0.32861094E-02 0.17917796E+03</pdfrwt>
<pdfrwt beam="2">  1       21 0.23039981E+00 0.17917796E+03</pdfrwt>
<totfact> 0.47788097E+04</totfact>
</mgrwt>
</event>
<event>
12    1  0.1013215E-001  0.2200041E+03  0.7546771E-02  0.1136009E+00
         21   -1    0    0  501  502  0.00000000000E+00  0.00000000000E+00  0.19712300261E+03  0.19712300261E+03  0.00000000000E+00 0.  1.
         21   -1    0    0  502  503 -0.00000000000E+00 -0.00000000000E+00 -0.23863404745E+03  0.23863404745E+03  0.00000000000E+00 0.  1.
         -6    2    1    2    0  503  0.13256319199E+03  0.24887746875E+02 -0.53847130417E+02  0.22649793868E+03  0.17380852384E+03 0.  0.
        -24    2    3    3    0    0  0.54709640182E+02  0.75079916799E+02 -0.78722505171E+01  0.12297881469E+03  0.80197742484E+02 0.  0.
          6    2    1    2  501    0 -0.13256319199E+03 -0.24887746875E+02  0.12336085578E+02  0.20925911138E+03  0.15951425289E+03 0.  0.
         24    2    5    5    0    0 -0.60369536890E+02  0.26200785252E+01  0.61586614424E+02  0.11751866836E+03  0.79789601710E+02 0.  0.
          5    1    5    5  501    0 -0.72193655096E+02 -0.27507825401E+02 -0.49250528846E+02  0.91740443023E+02  0.47000000000E+01 0. -1.
        -11    1    6    6    0    0 -0.46658131466E+02 -0.29610367867E+02  0.61245818009E+02  0.82491244025E+02  0.00000000000E+00 0.  1.
         12    1    6    6    0    0 -0.13711405423E+02  0.32230446392E+02  0.34079641493E+00  0.35027424335E+02  0.00000000000E+00 0. -1.
         -5    1    3    3    0  503  0.77853551804E+02 -0.50192169924E+02 -0.45974879900E+02  0.10351912399E+03  0.47000000000E+01 0.  1.
         13    1    4    4    0    0 -0.20910729630E+02  0.11252367920E+02 -0.24856261955E+01  0.23875777161E+02  0.00000000000E+00 0. -1.
        -14    1    4    4    0    0  0.75620369811E+02  0.63827548880E+02 -0.53866243216E+01  0.99103037532E+02  0.00000000000E+00 0.  1.
<mgrwt>
<rscale>  2 0.21717268E+03</rscale>
<asrwt>0</asrwt>
<pdfrwt beam="1">  1       21 0.30326616E-01 0.22000410E+03</pdfrwt>
<pdfrwt beam="2">  1       21 0.36712931E-01 0.22000410E+03</pdfrwt>
<totfact> 0.73788278E+04</totfact>
</mgrwt>
</event>
<event>
12    1  0.1013215E-001  0.2158982E+03  0.7546771E-02  0.1137052E+00
         21   -1    0    0  503  502  0.00000000000E+00  0.00000000000E+00  0.10179165900E+03  0.10179165900E+03  0.00000000000E+00 0. -1.
         21   -1    0    0  501  503 -0.00000000000E+00 -0.00000000000E+00 -0.47160826966E+03  0.47160826966E+03  0.00000000000E+00 0. -1.
          6    2    1    2  501    0  0.10015937128E+03  0.81522476413E+02 -0.23534007525E+03  0.31936965480E+03  0.17301506170E+03 0.  0.
         24    2    3    3    0    0  0.91226293959E+02  0.74164797274E+01 -0.20526711792E+03  0.23875965928E+03  0.80587494826E+02 0.  0.
         -6    2    1    2    0  502 -0.10015937128E+03 -0.81522476413E+02 -0.13447653541E+03  0.25403027386E+03  0.17253877143E+03 0.  0.
        -24    2    5    5    0    0 -0.83650848445E+02  0.14892889474E+02 -0.73263343779E+02  0.13854175090E+03  0.81283679783E+02 0.  0.
          5    1    3    3  501    0  0.89330773174E+01  0.74105996686E+02 -0.30072957334E+02  0.80609995521E+02  0.47000000000E+01 0. -1.
        -13    1    4    4    0    0  0.60180785695E+02  0.24735180102E+01 -0.44343789151E+02  0.74794497755E+02  0.00000000000E+00 0.  1.
         14    1    4    4    0    0  0.31045508264E+02  0.49429617173E+01 -0.16092332876E+03  0.16396516153E+03  0.00000000000E+00 0. -1.
         -5    1    5    5    0  502 -0.16508522831E+02 -0.96415365887E+02 -0.61213191630E+02  0.11548852296E+03  0.47000000000E+01 0.  1.
         11    1    6    6    0    0 -0.62364273309E+02  0.37287365477E+01 -0.89779248028E+02  0.10937787454E+03  0.00000000000E+00 0. -1.
        -12    1    6    6    0    0 -0.21286575137E+02  0.11164152926E+02  0.16515904248E+02  0.29163876367E+02  0.00000000000E+00 0.  1.
<mgrwt>
<rscale>  2 0.21580275E+03</rscale>
<asrwt>0</asrwt>
<pdfrwt beam="1">  1       21 0.15660256E-01 0.21589818E+03</pdfrwt>
<pdfrwt beam="2">  1       21 0.72555117E-01 0.21589818E+03</pdfrwt>
<totfact> 0.61407940E+04</totfact>
</mgrwt>
</event>
<event>
12    1  0.1013215E-001  0.2166273E+03  0.7546771E-02  0.1136441E+00
         21   -1    0    0  501  502  0.00000000000E+00  0.00000000000E+00  0.58095729716E+03  0.58095729716E+03  0.00000000000E+00 0.  1.
         21   -1    0    0  502  503 -0.00000000000E+00 -0.00000000000E+00 -0.95772774677E+02  0.95772774677E+02  0.00000000000E+00 0. -1.
         -6    2    1    2    0  503  0.34759205312E+02 -0.12676051121E+03  0.37669565771E+03  0.43454231004E+03  0.17219457343E+03 0.  0.
        -24    2    3    3    0    0 -0.33834674646E+02 -0.56182788674E+02  0.11406078279E+03  0.15403294689E+03  0.80093667710E+02 0.  0.
          6    2    1    2  501    0 -0.34759205312E+02  0.12676051121E+03  0.10848886477E+03  0.24218776179E+03  0.17207163807E+03 0.  0.
         24    2    5    5    0    0 -0.28139559590E+02  0.10061276008E+03  0.14550824272E+03  0.19614377259E+03  0.79905998029E+02 0.  0.
          5    1    5    5  501    0 -0.66196457229E+01  0.26147751124E+02 -0.37019377948E+02  0.46043989206E+02  0.47000000000E+01 0. -1.
        -11    1    6    6    0    0  0.14593802163E+02  0.79625299215E+02  0.11082056484E+03  0.13723835079E+03  0.00000000000E+00 0.  1.
         12    1    6    6    0    0 -0.42733361753E+02  0.20987460869E+02  0.34687677873E+02  0.58905421794E+02  0.00000000000E+00 0. -1.
         -5    1    3    3    0  503  0.68593879958E+02 -0.70577722534E+02  0.26263487493E+03  0.28050936315E+03  0.47000000000E+01 0.  1.
         11    1    4    4    0    0  0.25549521726E+02 -0.14958188658E+02  0.21509224046E+02  0.36594701630E+02  0.00000000000E+00 0. -1.
        -12    1    4    4    0    0 -0.59384196372E+02 -0.41224600015E+02  0.92551558742E+02  0.11743824526E+03  0.00000000000E+00 0.  1.
<mgrwt>
<rscale>  2 0.21660290E+03</rscale>
<asrwt>0</asrwt>
<pdfrwt beam="1">  1       21 0.89378044E-01 0.21662733E+03</pdfrwt>
<pdfrwt beam="2">  1       21 0.14734273E-01 0.21662733E+03</pdfrwt>
<totfact> 0.42735435E+04</totfact>
</mgrwt>
</event>
<event>
12    1  0.1013215E-001  0.2960341E+03  0.7546771E-02  0.1087275E+00
         21   -1    0    0  503  502  0.00000000000E+00  0.00000000000E+00  0.90240823170E+03  0.90240823170E+03  0.00000000000E+00 0.  1.
         21   -1    0    0  501  503 -0.00000000000E+00 -0.00000000000E+00 -0.18543993561E+03  0.18543993561E+03  0.00000000000E+00 0. -1.
          6    2    1    2  501    0  0.15908940911E+03 -0.18012057058E+03 -0.17183703556E+02  0.29625778775E+03  0.17239645326E+03 0.  0.
         24    2    3    3    0    0  0.46822242332E+02 -0.77568366100E+02 -0.65046911685E+02  0.13677785775E+03  0.79170119703E+02 0.  0.
         -6    2    1    2    0  502 -0.15908940911E+03  0.18012057058E+03  0.73415199964E+03  0.79159037957E+03  0.17286789869E+03 0.  0.
        -24    2    5    5    0    0 -0.12199606772E+03  0.18300088458E+03  0.70821947148E+03  0.74599654006E+03  0.81016379183E+02 0.  0.
          5    1    3    3  501    0  0.11226716678E+03 -0.10255220448E+03  0.47863208129E+02  0.15947993000E+03  0.47000000000E+01 0. -1.
        -13    1    4    4    0    0 -0.18220736288E+02 -0.42129965320E+02 -0.19872601454E+02  0.50018491553E+02  0.00000000000E+00 0.  1.
         14    1    4    4    0    0  0.65042978620E+02 -0.35438400780E+02 -0.45174310231E+02  0.86759366194E+02  0.00000000000E+00 0. -1.
         -5    1    5    5    0  502 -0.37093341389E+02 -0.28803139929E+01  0.25932528160E+02  0.45593839505E+02  0.47000000000E+01 0.  1.
         11    1    6    6    0    0 -0.41145847100E+02  0.87438752853E+01  0.11523387129E+03  0.12267143588E+03  0.00000000000E+00 0. -1.
        -12    1    6    6    0    0 -0.80850220625E+02  0.17425700929E+03  0.59298560020E+03  0.62332510418E+03  0.00000000000E+00 0.  1.
<mgrwt>
<rscale>  2 0.29596528E+03</rscale>
<asrwt>0</asrwt>
<pdfrwt beam="1">  1       21 0.13883203E+00 0.29603407E+03</pdfrwt>
<pdfrwt beam="2">  1       21 0.28529221E-01 0.29603407E+03</pdfrwt>
<totfact> 0.39970841E+03</totfact>
</mgrwt>
</event>
<event>
12    1  0.1013215E-001  0.2005107E+03  0.7546771E-02  0.1149629E+00
         21   -1    0    0  501  502  0.00000000000E+00  0.00000000000E+00  0.92739784538E+03  0.92739784538E+03  0.00000000000E+00 0. -1.
         21   -1    0    0  502  503 -0.00000000000E+00 -0.00000000000E+00 -0.45087511960E+02  0.45087511960E+02  0.00000000000E+00 0. -1.
         -6    2    1    2    0  503 -0.97550779835E+02 -0.85706194756E+01  0.33555112826E+03  0.39011934433E+03  0.17323086613E+03 0.  0.
        -24    2    3    3    0    0 -0.10243065254E+03 -0.55288422946E+02  0.29756607743E+03  0.32952792245E+03  0.80586803788E+02 0.  0.
          6    2    1    2  501    0  0.97550779835E+02  0.85706194756E+01  0.54675920516E+03  0.58236601301E+03  0.17497123912E+03 0.  0.
         24    2    5    5    0    0 -0.14334500253E+02  0.27224151040E+02  0.27835150085E+03  0.29093668045E+03  0.78854053238E+02 0.  0.
          5    1    5    5  501    0  0.11188528009E+03 -0.18653531564E+02  0.26840770431E+03  0.29142933256E+03  0.47000000000E+01 0. -1.
        -13    1    6    6    0    0 -0.27701384462E+02 -0.16293249979E+01  0.31228236573E+02  0.41775880128E+02  0.00000000000E+00 0.  1.
         14    1    6    6    0    0  0.13366884209E+02  0.28853476038E+02  0.24712326427E+03  0.24916080033E+03  0.00000000000E+00 0. -1.
         -5    1    3    3    0  503  0.48798727076E+01  0.46717803470E+02  0.37985050824E+02  0.60591421875E+02  0.47000000000E+01 0.  1.
         11    1    4    4    0    0 -0.53762841654E+02 -0.72047244501E+02  0.19764287371E+03  0.21712658546E+03  0.00000000000E+00 0. -1.
        -12    1    4    4    0    0 -0.48667810888E+02  0.16758821555E+02  0.99923203721E+02  0.11240133700E+03  0.00000000000E+00 0.  1.
<mgrwt>
<rscale>  2 0.20013041E+03</rscale>
<asrwt>0</asrwt>
<pdfrwt beam="1">  1       21 0.14267658E+00 0.20051071E+03</pdfrwt>
<pdfrwt beam="2">  1       21 0.69365410E-02 0.20051071E+03</pdfrwt>
<totfact> 0.52124731E+04</totfact>
</mgrwt>
</event>
<event>
12    1  0.1013215E-001  0.2098710E+03  0.7546771E-02  0.1141781E+00
         21   -1    0    0  503  502  0.00000000000E+00  0.00000000000E+00  0.50268487463E+03  0.50268487463E+03  0.00000000000E+00 0.  1.
         21   -1    0    0  501  503 -0.00000000000E+00 -0.00000000000E+00 -0.14337618989E+03  0.14337618989E+03  0.00000000000E+00 0. -1.
          6    2    1    2  501    0 -0.71223840432E+02 -0.95382164033E+02 -0.22066218923E+02  0.21102789918E+03  0.17284462257E+03 0.  0.
         24    2    3    3    0    0 -0.10857200385E+03 -0.75244719680E+02  0.13605728470E+02  0.15539535649E+03  0.80702869288E+02 0.  0.
         -6    2    1    2    0  502  0.71223840432E+02  0.95382164033E+02  0.38137490366E+03  0.43503316534E+03  0.17215238931E+03 0.  0.
        -24    2    5    5    0    0  0.10423249448E+03  0.11043031108E+03  0.29785878656E+03  0.34385723767E+03  0.80365892367E+02 0.  0.
          5    1    3    3  501    0  0.37348163414E+02 -0.20137444353E+02 -0.35671947393E+02  0.55632542691E+02  0.47000000000E+01 0. -1.
        -11    1    4    4    0    0 -0.86076787159E+02 -0.25259371182E+02  0.35357789867E+02  0.96423142577E+02  0.00000000000E+00 0.  1.
         12    1    4    4    0    0 -0.22495216687E+02 -0.49985348499E+02 -0.21752061397E+02  0.58972213909E+02  0.00000000000E+00 0. -1.
         -5    1    5    5    0  502 -0.33008654048E+02 -0.15048147046E+02  0.83516117095E+02  0.91175927668E+02  0.47000000000E+01 0.  1.
         13    1    6    6    0    0 -0.11220341497E+02  0.26535717282E+02  0.57727901921E+02  0.64517834861E+02  0.00000000000E+00 0. -1.
        -14    1    6    6    0    0  0.11545283598E+03  0.83894593798E+02  0.24013088464E+03  0.27933940281E+03  0.00000000000E+00 0.  1.
<mgrwt>
<rscale>  2 0.20972847E+03</rscale>
<asrwt>0</asrwt>
<pdfrwt beam="1">  1       21 0.77336134E-01 0.20987105E+03</pdfrwt>
<pdfrwt beam="2">  1       21 0.22057876E-01 0.20987105E+03</pdfrwt>
<totfact> 0.28237939E+04</totfact>
</mgrwt>
</event>
<event>
12    1  0.1013215E-001  0.2157262E+03  0.7546771E-02  0.1137210E+00
         21   -1    0    0  501  502  0.00000000000E+00  0.00000000000E+00  0.11069966067E+04  0.11069966067E+04  0.00000000000E+00 0.  1.
         21   -1    0    0  502  503 -0.00000000000E+00 -0.00000000000E+00 -0.21458402521E+03  0.21458402521E+03  0.00000000000E+00 0. -1.
         -6    2    1    2    0  503 -0.70488270869E+02  0.10641051236E+03 -0.14639910708E+03  0.26071148035E+03  0.17391372563E+03 0.  0.
        -24    2    3    3    0    0 -0.41194533286E+02  0.36330895511E+02 -0.15631191971E+03  0.18396755803E+03  0.79960756774E+02 0.  0.
          6    2    1    2  501    0  0.70488270869E+02 -0.10641051236E+03  0.10388116885E+04  0.10608691515E+04  0.17326811286E+03 0.  0.
         24    2    5    5    0    0  0.16058599046E+02  0.15365492880E+02  0.40818401516E+03  0.41627211688E+03  0.78576765595E+02 0.  0.
          5    1    5    5  501    0  0.54429671823E+02 -0.12177600524E+03  0.63062767339E+03  0.64459703465E+03  0.47000000000E+01 0. -1.
        -11    1    6    6    0    0  0.40968244434E+02 -0.80210194568E+01  0.14533690283E+03  0.15121358778E+03  0.00000000000E+00 0.  1.
         12    1    6    6    0    0 -0.24909645388E+02  0.23386512337E+02  0.26284711232E+03  0.26505852910E+03  0.00000000000E+00 0. -1.
         -5    1    3    3    0  503 -0.29293737584E+02  0.70079616844E+02  0.99128126259E+01  0.76743922319E+02  0.47000000000E+01 0.  1.
         13    1    4    4    0    0 -0.17433858182E+02  0.59144310185E+02 -0.81263944564E+02  0.10200890904E+03  0.00000000000E+00 0. -1.
        -14    1    4    4    0    0 -0.23760675104E+02 -0.22813414674E+02 -0.75047975143E+02  0.81958648986E+02  0.00000000000E+00 0.  1.
<mgrwt>
<rscale>  2 0.21559601E+03</rscale>
<asrwt>0</asrwt>
<pdfrwt beam="1">  1       21 0.17030717E+00 0.21572616E+03</pdfrwt>
<pdfrwt beam="2">  1       21 0.33012928E-01 0.21572616E+03</pdfrwt>
<totfact> 0.18343775E+03</totfact>
</mgrwt>
</event>
<event>
12    1  0.1013215E-001  0.1873607E+03  0.7546771E-02  0.1161017E+00
         21   -1    0    0  501  502  0.00000000000E+00  0.00000000000E+00  0.11035659746E+04  0.11035659746E+04  0.00000000000E+00 0. -1.
         21   -1    0    0  502  503 -0.00000000000E+00 -0.00000000000E+00 -0.95715472603E+02  0.95715472603E+02  0.00000000000E+00 0. -1.
         -6    2    1    2    0  503 -0.67949329137E+02 -0.18546132657E+02  0.13818896132E+02  0.18786963209E+03  0.17361729869E+03 0.  0.
        -24    2    3    3    0    0 -0.84433966346E+02 -0.60422368309E+02 -0.17232434247E+02  0.13299124386E+03  0.81300411370E+02 0.  0.
          6    2    1    2  501    0  0.67949329137E+02  0.18546132657E+02  0.99403160588E+03  0.10114118151E+04  0.17289868687E+03 0.  0.
         24    2    5    5    0    0  0.92854748168E+02  0.18401117325E+02  0.96470155250E+03  0.97264787624E+03  0.80213467604E+02 0.  0.
          5    1    5    5  501    0 -0.24905419031E+02  0.14501533250E+00  0.29330053377E+02  0.38763938883E+02  0.47000000000E+01 0. -1.
        -11    1    6    6    0    0 -0.10466015611E+02  0.16767765827E+02  0.11503089074E+03  0.11671675663E+03  0.00000000000E+00 0.  1.
         12    1    6    6    0    0  0.10332076378E+03  0.16333514977E+01  0.84967066176E+03  0.85593111962E+03  0.00000000000E+00 0. -1.
         -5    1    3    3    0  503  0.16484637210E+02  0.41876235652E+02  0.31051330379E+02  0.54878388229E+02  0.47000000000E+01 0.  1.
         11    1    4    4    0    0 -0.34298234463E+02  0.11530351165E+02 -0.26435679733E+02  0.44812532267E+02  0.00000000000E+00 0. -1.
        -12    1    4    4    0    0 -0.50135731884E+02 -0.71952719474E+02  0.92032454861E+01  0.88178711596E+02  0.00000000000E+00 0.  1.
<mgrwt>
<rscale>  2 0.18719406E+03</rscale>
<asrwt>0</asrwt>
<pdfrwt beam="1">  1       21 0.16977937E+00 0.18736071E+03</pdfrwt>
<pdfrwt beam="2">  1       21 0.14725458E-01 0.18736071E+03</pdfrwt>
<totfact> 0.87249166E+03</totfact>
</mgrwt>
</event>
<event>
12    1  0.1013215E-001  0.3034738E+03  0.7546771E-02  0.1083834E+00
         21   -1    0    0  501  502  0.00000000000E+00  0.00000000000E+00  0.49569700152E+03  0.49569700152E+03  0.00000000000E+00 0.  1.
         21   -1    0    0  502  503 -0.00000000000E+00 -0.00000000000E+00 -0.18614186676E+03  0.18614186676E+03  0.00000000000E+00 0. -1.
         -6    2    1    2    0  503  0.15841886877E+03 -0.19158306028E+03  0.12085119985E+03  0.32665178396E+03  0.17405679675E+03 0.  0.
        -24    2    3    3    0    0  0.87057442081E+02 -0.39632581223E+02  0.15987179000E+02  0.12866200097E+03  0.84549280801E+02 0.  0.
          6    2    1    2  501    0 -0.15841886877E+03  0.19158306028E+03  0.18870393492E+03  0.35518708431E+03  0.16955259610E+03 0.  0.
         24    2    5    5    0    0 -0.18506694557E+03  0.16452937114E+03  0.17944366316E+03  0.31581876295E+03  0.78878225607E+02 0.  0.
          5    1    5    5  501    0  0.26648076807E+02  0.27053689142E+02  0.92602717589E+01  0.39368321360E+02  0.47000000000E+01 0. -1.
        -13    1    6    6    0    0 -0.17872901205E+03  0.12252310731E+03  0.14103017195E+03  0.25854493028E+03  0.00000000000E+00 0.  1.
         14    1    6    6    0    0 -0.63379335230E+01  0.42006263828E+02  0.38413491215E+02  0.57273832676E+02  0.00000000000E+00 0. -1.
         -5    1    3    3    0  503  0.71361426687E+02 -0.15195047905E+03  0.10486402085E+03  0.19798978300E+03  0.47000000000E+01 0.  1.
         13    1    4    4    0    0  0.79006029774E+01 -0.17176388105E+02 -0.29202730677E+02  0.34788608980E+02  0.00000000000E+00 0. -1.
        -14    1    4    4    0    0  0.79156839103E+02 -0.22456193118E+02  0.45189909678E+02  0.93873391986E+02  0.00000000000E+00 0.  1.
<mgrwt>
<rscale>  2 0.30283162E+03</rscale>
<asrwt>0</asrwt>
<pdfrwt beam="1">  1       21 0.76261077E-01 0.30347385E+03</pdfrwt>
<pdfrwt beam="2">  1       21 0.28637210E-01 0.30347385E+03</pdfrwt>
<totfact> 0.16882120E+04</totfact>
</mgrwt>
</event>
<event>
12    1  0.1013215E-001  0.1817023E+03  0.7546771E-02  0.1168622E+00
         21   -1    0    0  503  502  0.00000000000E+00  0.00000000000E+00  0.21413635600E+02  0.21413635600E+02  0.00000000000E+00 0.  1.
         21   -1    0    0  501  503 -0.00000000000E+00 -0.00000000000E+00 -0.15595870434E+04  0.15595870434E+04  0.00000000000E+00 0.  1.
          6    2    1    2  501    0  0.35007113869E+01  0.82794179166E+01 -0.58805837429E+03  0.61549034391E+03  0.18147977336E+03 0.  0.
         24    2    3    3    0    0 -0.17243812822E+01  0.16736995802E+02 -0.10672608397E+03  0.13403245798E+03  0.79316721281E+02 0.  0.
         -6    2    1    2    0  502 -0.35007113869E+01 -0.82794179166E+01 -0.95011503348E+03  0.96551033505E+03  0.17149584985E+03 0.  0.
        -24    2    5    5    0    0 -0.44212655204E+02 -0.44527983443E+02 -0.42018575834E+03  0.43276410323E+03  0.82408721297E+02 0.  0.
          5    1    3    3  501    0  0.52250926691E+01 -0.84575778849E+01 -0.48133229032E+03  0.48145788593E+03  0.47000000000E+01 0. -1.
        -13    1    4    4    0    0  0.31814931839E+02 -0.10606572157E+02 -0.68603989239E+02  0.76362272100E+02  0.00000000000E+00 0.  1.
         14    1    4    4    0    0 -0.33539313121E+02  0.27343567958E+02 -0.38122094729E+02  0.57670185884E+02  0.00000000000E+00 0. -1.
         -5    1    5    5    0  502  0.40711943818E+02  0.36248565526E+02 -0.52992927514E+03  0.53274623182E+03  0.47000000000E+01 0.  1.
         11    1    6    6    0    0  0.21780724265E+02  0.31356239862E+01 -0.99899213575E+02  0.10229411010E+03  0.00000000000E+00 0. -1.
        -12    1    6    6    0    0 -0.65993379470E+02 -0.47663607429E+02 -0.32028654477E+03  0.33046999314E+03  0.00000000000E+00 0.  1.
<mgrwt>
<rscale>  2 0.17915651E+03</rscale>
<asrwt>0</asrwt>
<pdfrwt beam="1">  1       21 0.32944051E-02 0.18170226E+03</pdfrwt>
<pdfrwt beam="2">  1       21 0.23993649E+00 0.18170226E+03</pdfrwt>
<totfact> 0.41663920E+04</totfact>
</mgrwt>
</event>
<event>
12    1  0.1013215E-001  0.1814766E+03  0.7546771E-02  0.1166412E+00
         21   -1    0    0  501  502  0.00000000000E+00  0.00000000000E+00  0.18920494494E+03  0.18920494494E+03  0.00000000000E+00 0.  1.
         21   -1    0    0  502  503 -0.00000000000E+00 -0.00000000000E+00 -0.35049591344E+03  0.35049591344E+03  0.00000000000E+00 0.  1.
         -6    2    1    2    0  503  0.19808919287E+02 -0.48873778069E+02 -0.27218308922E+03  0.32713511851E+03  0.17364536342E+03 0.  0.
        -24    2    3    3    0    0  0.29798003714E+00  0.29203310132E+01 -0.23999486443E+03  0.26293637785E+03  0.10737498182E+03 0.  0.
          6    2    1    2  501    0 -0.19808919287E+02  0.48873778069E+02  0.11089212072E+03  0.21256573988E+03  0.17351107131E+03 0.  0.
         24    2    5    5    0    0  0.41127929194E+02 -0.14745327846E+02  0.73297086953E+02  0.11666909393E+03  0.79563077298E+02 0.  0.
          5    1    5    5  501    0 -0.60936848481E+02  0.63619105915E+02  0.37595033767E+02  0.95896645949E+02  0.47000000000E+01 0. -1.
        -13    1    6    6    0    0  0.30021789506E+02 -0.23704043689E+02  0.88138374552E+02  0.96081021024E+02  0.00000000000E+00 0.  1.
         14    1    6    6    0    0  0.11106139688E+02  0.89587158426E+01 -0.14841287599E+02  0.20588072904E+02  0.00000000000E+00 0. -1.
         -5    1    3    3    0  503  0.19510939249E+02 -0.51794109082E+02 -0.32188224796E+02  0.64198740654E+02  0.47000000000E+01 0.  1.
         11    1    4    4    0    0  0.51853015455E+02  0.31075698847E+01 -0.15558211812E+03  0.16402496054E+03  0.00000000000E+00 0. -1.
        -12    1    4    4    0    0 -0.51555035418E+02 -0.18723887152E+00 -0.84412746312E+02  0.98911417315E+02  0.00000000000E+00 0.  1.
<mgrwt>
<rscale>  2 0.18144446E+03</rscale>
<asrwt>0</asrwt>
<pdfrwt beam="1">  1       21 0.29108453E-01 0.18147659E+03</pdfrwt>
<pdfrwt beam="2">  1       21 0.53922448E-01 0.18147659E+03</pdfrwt>
<totfact> 0.36963201E+04</totfact>
</mgrwt>
</event>
<event>
12    1  0.1013215E-001  0.2265016E+03  0.7546771E-02  0.1129173E+00
         21   -1    0    0  501  502  0.00000000000E+00  0.00000000000E+00  0.68537196739E+02  0.68537196739E+02  0.00000000000E+00 0. -1.
         21   -1    0    0  502  503 -0.00000000000E+00 -0.00000000000E+00 -0.13080202787E+04  0.13080202787E+04  0.00000000000E+00 0. -1.
         -6    2    1    2    0  503 -0.13172453209E+03 -0.62571774506E+02 -0.10704264778E+04  0.10941278822E+04  0.17331012336E+03 0.  0.
        -24    2    3    3    0    0  0.44198724710E+01 -0.28769548354E+02 -0.34381960365E+03  0.35408901229E+03  0.79497714318E+02 0.  0.
          6    2    1    2  501    0  0.13172453209E+03  0.62571774506E+02 -0.16905660416E+03  0.28242959326E+03  0.17297329395E+03 0.  0.
         24    2    5    5    0    0  0.66799551274E+01  0.44388049848E+02 -0.10750411920E+03  0.14179676468E+03  0.80834807217E+02 0.  0.
          5    1    5    5  501    0  0.12504457697E+03  0.18183724658E+02 -0.61552484955E+02  0.14063282858E+03  0.47000000000E+01 0. -1.
        -11    1    6    6    0    0  0.19838878372E+02  0.35451030832E+01 -0.94982114649E+02  0.97096606296E+02  0.00000000000E+00 0.  1.
         12    1    6    6    0    0 -0.13158923245E+02  0.40842946765E+02 -0.12522004555E+02  0.44700158384E+02  0.00000000000E+00 0. -1.
         -5    1    3    3    0  503 -0.13614440456E+03 -0.33802226152E+02 -0.72660687414E+03  0.74003886988E+03  0.47000000000E+01 0.  1.
         11    1    4    4    0    0  0.11387102228E+02 -0.55562480416E+02 -0.24364641641E+03  0.25016081139E+03  0.00000000000E+00 0. -1.
        -12    1    4    4    0    0 -0.69672297574E+01  0.26792932062E+02 -0.10017318724E+03  0.10392820089E+03  0.00000000000E+00 0.  1.
<mgrwt>
<rscale>  2 0.22643717E+03</rscale>
<asrwt>0</asrwt>
<pdfrwt beam="1">  1       21 0.10544184E-01 0.22650161E+03</pdfrwt>
<pdfrwt beam="2">  1       21 0.20123389E+00 0.22650161E+03</pdfrwt>
<totfact> 0.94783476E+03</totfact>
</mgrwt>
</event>
<event>
12    1  0.1013215E-001  0.1941159E+03  0.7546771E-02  0.1155146E+00
         21   -1    0    0  503  502  0.00000000000E+00  0.00000000000E+00  0.32337333513E+03  0.32337333513E+03  0.00000000000E+00 0.  1.
         21   -1    0    0  501  503 -0.00000000000E+00 -0.00000000000E+00 -0.11590292427E+03  0.11590292427E+03  0.00000000000E+00 0.  1.
          6    2    1    2  501    0 -0.81515934702E+02 -0.64090892922E+01  0.92631659705E+02  0.21508509640E+03  0.17605411179E+03 0.  0.
         24    2    3    3    0    0 -0.71106709368E+02  0.58853994088E+02  0.82728293334E+02  0.14809413664E+03  0.81042865525E+02 0.  0.
         -6    2    1    2    0  502  0.81515934702E+02  0.64090892922E+01  0.11483875116E+03  0.22419116299E+03  0.17432101066E+03 0.  0.
        -24    2    5    5    0    0  0.75814099729E+02 -0.29545311620E+02  0.23423232387E+02  0.12568168660E+03  0.92879143913E+02 0.  0.
          5    1    3    3  501    0 -0.10409225334E+02 -0.65263083380E+02  0.99033663704E+01  0.66990959762E+02  0.47000000000E+01 0. -1.
        -13    1    4    4    0    0 -0.39927498343E+02 -0.51258575613E+01  0.17631559362E+01  0.40293774439E+02  0.00000000000E+00 0.  1.
         14    1    4    4    0    0 -0.31179211025E+02  0.63979851650E+02  0.80965137398E+02  0.10780036220E+03  0.00000000000E+00 0. -1.
         -5    1    5    5    0  502  0.57018349729E+01  0.35954400912E+02  0.91415518769E+02  0.98509476391E+02  0.47000000000E+01 0.  1.
         11    1    6    6    0    0 -0.78191642183E+01 -0.37355503642E+02 -0.10902422954E+01  0.38180644438E+02  0.00000000000E+00 0. -1.
        -12    1    6    6    0    0  0.83633263948E+02  0.78101920221E+01  0.24513474683E+02  0.87501042159E+02  0.00000000000E+00 0.  1.
<mgrwt>
<rscale>  2 0.19372207E+03</rscale>
<asrwt>0</asrwt>
<pdfrwt beam="1">  1       21 0.49749744E-01 0.19411588E+03</pdfrwt>
<pdfrwt beam="2">  1       21 0.17831219E-01 0.19411588E+03</pdfrwt>
<totfact> 0.10994734E+05</totfact>
</mgrwt>
</event>
<event>
12    1  0.1013215E-001  0.2232413E+03  0.7546771E-02  0.1131583E+00
         21   -1    0    0  501  502  0.00000000000E+00  0.00000000000E+00  0.11421609423E+03  0.11421609423E+03  0.00000000000E+00 0.  1.
         21   -1    0    0  502  503 -0.00000000000E+00 -0.00000000000E+00 -0.54118691816E+03  0.54118691816E+03  0.00000000000E+00 0.  1.
         -6    2    1    2    0  503 -0.41675412812E+02  0.13431153039E+03 -0.35860698276E+03  0.42241645078E+03  0.17337895655E+03 0.  0.
        -24    2    3    3    0    0  0.74546985128E+01  0.15348429946E+02 -0.20997350197E+03  0.22574416316E+03  0.81119719176E+02 0.  0.
          6    2    1    2  501    0  0.41675412812E+02 -0.13431153039E+03 -0.68363841173E+02  0.23298656162E+03  0.17272144015E+03 0.  0.
         24    2    5    5    0    0 -0.19800114024E+02 -0.94916535353E+02  0.70245482734E+01  0.12793083689E+03  0.83161057901E+02 0.  0.
          5    1    5    5  501    0  0.61475526837E+02 -0.39394995034E+02 -0.75388389446E+02  0.10505572472E+03  0.47000000000E+01 0. -1.
        -13    1    6    6    0    0 -0.95630080721E+01 -0.62198577343E+02 -0.36327178689E+02  0.72662081297E+02  0.00000000000E+00 0.  1.
         14    1    6    6    0    0 -0.10237105952E+02 -0.32717958010E+02  0.43351726963E+02  0.55268755597E+02  0.00000000000E+00 0. -1.
         -5    1    3    3    0  503 -0.49130111325E+02  0.11896310044E+03 -0.14863348079E+03  0.19667228762E+03  0.47000000000E+01 0.  1.
         13    1    4    4    0    0 -0.13385083128E+02 -0.23579630089E+02 -0.30017018714E+02  0.40449731989E+02  0.00000000000E+00 0. -1.
        -14    1    4    4    0    0  0.20839781641E+02  0.38928060035E+02 -0.17995648325E+03  0.18529443117E+03  0.00000000000E+00 0.  1.
<mgrwt>
<rscale>  2 0.22311365E+03</rscale>
<asrwt>0</asrwt>
<pdfrwt beam="1">  1       21 0.17571707E-01 0.22324133E+03</pdfrwt>
<pdfrwt beam="2">  1       21 0.83259526E-01 0.22324133E+03</pdfrwt>
<totfact> 0.36291117E+04</totfact>
</mgrwt>
</event>
<event>
12    1  0.1013215E-001  0.2057048E+03  0.7546771E-02  0.1145147E+00
         21   -1    0    0  503  502  0.00000000000E+00  0.00000000000E+00  0.58195427812E+02  0.58195427812E+02  0.00000000000E+00 0. -1.
         21   -1    0    0  501  503 -0.00000000000E+00 -0.00000000000E+00 -0.78290699522E+03  0.78290699522E+03  0.00000000000E+00 0.  1.
          6    2    1    2  501    0 -0.76878247524E+02  0.77473390304E+02 -0.47747388768E+03  0.51989976491E+03  0.17436186792E+03 0.  0.
         24    2    3    3    0    0 -0.11247608003E+03  0.23813978204E+02 -0.33346191201E+03  0.36207683462E+03  0.81760707386E+02 0.  0.
         -6    2    1    2    0  502  0.76878247524E+02 -0.77473390304E+02 -0.24723767972E+03  0.32120265812E+03  0.17358653796E+03 0.  0.
        -24    2    5    5    0    0  0.47862873671E+02  0.50217326022E+01 -0.86232483011E+02  0.13792117899E+03  0.96281555941E+02 0.  0.
          5    1    3    3  501    0  0.35597832509E+02  0.53659412100E+02 -0.14401197568E+03  0.15782293029E+03  0.47000000000E+01 0. -1.
        -13    1    4    4    0    0 -0.55679967033E+02  0.24454247512E+02 -0.27062343788E+03  0.27737215808E+03  0.00000000000E+00 0.  1.
         14    1    4    4    0    0 -0.56796113000E+02 -0.64026930744E+00 -0.62838474130E+02  0.84704676540E+02  0.00000000000E+00 0. -1.
         -5    1    5    5    0  502  0.29015373853E+02 -0.82495122906E+02 -0.16100519671E+03  0.18328147913E+03  0.47000000000E+01 0.  1.
         11    1    6    6    0    0 -0.57169849141E+01 -0.35780189011E+02 -0.13166721042E+02  0.38552151498E+02  0.00000000000E+00 0. -1.
        -12    1    6    6    0    0  0.53579858586E+02  0.40801921613E+02 -0.73065761970E+02  0.99369027496E+02  0.00000000000E+00 0.  1.
<mgrwt>
<rscale>  2 0.20554038E+03</rscale>
<asrwt>0</asrwt>
<pdfrwt beam="1">  1       21 0.89531432E-02 0.20570477E+03</pdfrwt>
<pdfrwt beam="2">  1       21 0.12044722E+00 0.20570477E+03</pdfrwt>
<totfact> 0.51228482E+04</totfact>
</mgrwt>
</event>
<event>
12    1  0.1013215E-001  0.1779961E+03  0.7546771E-02  0.1169998E+00
         21   -1    0    0  503  502  0.00000000000E+00  0.00000000000E+00  0.22462094442E+03  0.22462094442E+03  0.00000000000E+00 0.  1.
         21   -1    0    0  501  503 -0.00000000000E+00 -0.00000000000E+00 -0.16464213483E+04  0.16464213483E+04  0.00000000000E+00 0.  1.
          6    2    1    2  501    0 -0.31625250275E+01 -0.41647643381E+02 -0.16055139278E+04  0.16152429881E+04  0.17201863492E+03 0.  0.
         24    2    3    3    0    0 -0.67237096270E+02 -0.31931151403E+02 -0.83017022684E+03  0.83718135469E+03  0.78419318843E+02 0.  0.
         -6    2    1    2    0  502  0.31625250275E+01  0.41647643381E+02  0.18371352384E+03  0.25579930461E+03  0.17302629174E+03 0.  0.
        -24    2    5    5    0    0 -0.58322537656E+02  0.51839055752E+02  0.92251838184E+02  0.14502201559E+03  0.80200855711E+02 0.  0.
          5    1    3    3  501    0  0.64074571243E+02 -0.97164919778E+01 -0.77534370093E+03  0.77806163346E+03  0.47000000000E+01 0. -1.
        -11    1    4    4    0    0 -0.24077611138E+02 -0.47236372286E+02 -0.27090105904E+03  0.27604055863E+03  0.00000000000E+00 0.  1.
         12    1    4    4    0    0 -0.43159485132E+02  0.15305220883E+02 -0.55926916780E+03  0.56114079605E+03  0.00000000000E+00 0. -1.
         -5    1    5    5    0  502  0.61485062684E+02 -0.10191412371E+02  0.91461685657E+02  0.11077728902E+03  0.47000000000E+01 0.  1.
         13    1    6    6    0    0  0.37508457050E+01  0.48972103736E+02  0.48492215086E+02  0.69020509356E+02  0.00000000000E+00 0. -1.
        -14    1    6    6    0    0 -0.62073383361E+02  0.28669520166E+01  0.43759623098E+02  0.76001506232E+02  0.00000000000E+00 0.  1.
<mgrwt>
<rscale>  2 0.17775079E+03</rscale>
<asrwt>0</asrwt>
<pdfrwt beam="1">  1       21 0.34557069E-01 0.17799614E+03</pdfrwt>
<pdfrwt beam="2">  1       21 0.25329559E+00 0.17799614E+03</pdfrwt>
<totfact> 0.52375564E+02</totfact>
</mgrwt>
</event>
<event>
12    1  0.1013215E-001  0.1812881E+03  0.7546771E-02  0.1167050E+00
         21   -1    0    0  501  502  0.00000000000E+00  0.00000000000E+00  0.99897390314E+02  0.99897390314E+02  0.00000000000E+00 0.  1.
         21   -1    0    0  502  503 -0.00000000000E+00 -0.00000000000E+00 -0.34643443263E+03  0.34643443263E+03  0.00000000000E+00 0.  1.
         -6    2    1    2    0  503 -0.34994361182E+02  0.44432213430E+02 -0.17899300229E+03  0.25476235165E+03  0.17223975744E+03 0.  0.
        -24    2    3    3    0    0 -0.10886157918E+02  0.90920559622E+02 -0.15449193896E+03  0.19675576667E+03  0.80374224211E+02 0.  0.
          6    2    1    2  501    0  0.34994361182E+02 -0.44432213430E+02 -0.67544040028E+02  0.19156947130E+03  0.17011125209E+03 0.  0.
         24    2    5    5    0    0 -0.27589501519E+02 -0.49235104906E+02 -0.67824954144E+01  0.10408311270E+03  0.87189540410E+02 0.  0.
          5    1    5    5  501    0  0.62583862701E+02  0.48028914755E+01 -0.60761544614E+02  0.87486358600E+02  0.47000000000E+01 0. -1.
        -11    1    6    6    0    0 -0.23254417764E+02 -0.65043835370E+02 -0.30289534579E+02  0.75424958536E+02  0.00000000000E+00 0.  1.
         12    1    6    6    0    0 -0.43350837555E+01  0.15808730464E+02  0.23507039164E+02  0.28658154168E+02  0.00000000000E+00 0. -1.
         -5    1    3    3    0  503 -0.24108203264E+02 -0.46488346192E+02 -0.24501063334E+02  0.58006584978E+02  0.47000000000E+01 0.  1.
         13    1    4    4    0    0  0.31068857585E+02  0.15976576818E+02 -0.33696013742E+02  0.48538090821E+02  0.00000000000E+00 0. -1.
        -14    1    4    4    0    0 -0.41955015503E+02  0.74943982804E+02 -0.12079592522E+03  0.14821767585E+03  0.00000000000E+00 0.  1.
<mgrwt>
<rscale>  2 0.18078067E+03</rscale>
<asrwt>0</asrwt>
<pdfrwt beam="1">  1       21 0.15368829E-01 0.18128806E+03</pdfrwt>
<pdfrwt beam="2">  1       21 0.53297604E-01 0.18128806E+03</pdfrwt>
<totfact> 0.12558996E+05</totfact>
</mgrwt>
</event>
<event>
12    1  0.1013215E-001  0.2310954E+03  0.7546771E-02  0.1127011E+00
         21   -1    0    0  503  502  0.00000000000E+00  0.00000000000E+00  0.16487880541E+03  0.16487880541E+03  0.00000000000E+00 0.  1.
         21   -1    0    0  501  503 -0.00000000000E+00 -0.00000000000E+00 -0.31938728598E+03  0.31938728598E+03  0.00000000000E+00 0.  1.
          6    2    1    2  501    0 -0.13605743488E+03 -0.45912486380E+02 -0.10680068429E+03  0.25458099342E+03  0.18106770571E+03 0.  0.
         24    2    3    3    0    0 -0.16125418426E+03 -0.66026943324E+02 -0.71580587185E+02  0.20660169791E+03  0.84841098128E+02 0.  0.
         -6    2    1    2    0  502  0.13605743488E+03  0.45912486380E+02 -0.47707796273E+02  0.22968509797E+03  0.17279938776E+03 0.  0.
        -24    2    5    5    0    0  0.87849211132E+01  0.33390843405E+02 -0.55214728750E+02  0.10149177389E+03  0.77844657064E+02 0.  0.
          5    1    3    3  501    0  0.25196749376E+02  0.20114456944E+02 -0.35220097108E+02  0.47979295509E+02  0.47000000000E+01 0. -1.
        -11    1    4    4    0    0 -0.20717651133E+02 -0.43355553255E+02 -0.18493308664E+01  0.48086849462E+02  0.00000000000E+00 0.  1.
         12    1    4    4    0    0 -0.14053653312E+03 -0.22671390069E+02 -0.69731256319E+02  0.15851484845E+03  0.00000000000E+00 0. -1.
         -5    1    5    5    0  502  0.12727251377E+03  0.12521642976E+02  0.75069324764E+01  0.12819332408E+03  0.47000000000E+01 0.  1.
         11    1    6    6    0    0  0.41524650455E+02  0.50497907794E+01 -0.25898253474E+02  0.49198745059E+02  0.00000000000E+00 0. -1.
        -12    1    6    6    0    0 -0.32739729342E+02  0.28341052625E+02 -0.29316475276E+02  0.52293028827E+02  0.00000000000E+00 0.  1.
<mgrwt>
<rscale>  2 0.22947352E+03</rscale>
<asrwt>0</asrwt>
<pdfrwt beam="1">  1       21 0.25365970E-01 0.23109543E+03</pdfrwt>
<pdfrwt beam="2">  1       21 0.49136505E-01 0.23109543E+03</pdfrwt>
<totfact> 0.57214727E+04</totfact>
</mgrwt>
</event>
<event>
12    1  0.1013215E-001  0.2333192E+03  0.7546771E-02  0.1124403E+00
         21   -1    0    0  503  502  0.00000000000E+00  0.00000000000E+00  0.82745901055E+02  0.82745901055E+02  0.00000000000E+00 0. -1.
         21   -1    0    0  501  503 -0.00000000000E+00 -0.00000000000E+00 -0.66142376414E+03  0.66142376414E+03  0.00000000000E+00 0. -1.
          6    2    1    2  501    0  0.12807731621E+02 -0.15583102004E+03 -0.32133914988E+03  0.39711041902E+03  0.17317762804E+03 0.  0.
         24    2    3    3    0    0 -0.45675222866E+02 -0.63494773825E+02 -0.19726735380E+03  0.23169536858E+03  0.93008185975E+02 0.  0.
         -6    2    1    2    0  502 -0.12807731621E+02  0.15583102004E+03 -0.25733871321E+03  0.34705924618E+03  0.17256755850E+03 0.  0.
        -24    2    5    5    0    0  0.80065261627E+01  0.16809530020E+03 -0.15972606298E+03  0.24639164772E+03  0.82923425268E+02 0.  0.
          5    1    3    3  501    0  0.58482954487E+02 -0.92336246211E+02 -0.12407179607E+03  0.16541505044E+03  0.47000000000E+01 0. -1.
        -13    1    4    4    0    0 -0.48329644297E+02  0.78997226056E+01 -0.95914600934E+02  0.10769294688E+03  0.00000000000E+00 0.  1.
         14    1    4    4    0    0  0.26544214316E+01 -0.71394496431E+02 -0.10135275287E+03  0.12400242170E+03  0.00000000000E+00 0. -1.
         -5    1    5    5    0  502 -0.20814257784E+02 -0.12264280167E+02 -0.97612650228E+02  0.10066759846E+03  0.47000000000E+01 0.  1.
         13    1    6    6    0    0  0.35642949314E+01  0.53010811005E+02 -0.47999206359E+01  0.53346879195E+02  0.00000000000E+00 0. -1.
        -14    1    6    6    0    0  0.44422312312E+01  0.11508448920E+03 -0.15492614234E+03  0.19304476852E+03  0.00000000000E+00 0.  1.
<mgrwt>
<rscale>  2 0.23320597E+03</rscale>
<asrwt>0</asrwt>
<pdfrwt beam="1">  1       21 0.12730138E-01 0.23331917E+03</pdfrwt>
<pdfrwt beam="2">  1       21 0.10175750E+00 0.23331917E+03</pdfrwt>
<totfact> 0.40721409E+04</totfact>
</mgrwt>
</event>
<event>
12    1  0.1013215E-001  0.2210690E+03  0.7546771E-02  0.1133212E+00
         21   -1    0    0  503  502  0.00000000000E+00  0.00000000000E+00  0.12540511752E+03  0.12540511752E+03  0.00000000000E+00 0. -1.
         21   -1    0    0  501  503 -0.00000000000E+00 -0.00000000000E+00 -0.38948874732E+03  0.38948874732E+03  0.00000000000E+00 0. -1.
          6    2    1    2  501    0 -0.91472548018E+01 -0.13651598243E+03 -0.11912991149E+03  0.25053973667E+03  0.17279449676E+03 0.  0.
         24    2    3    3    0    0  0.60036798195E+02 -0.60092733855E+02 -0.67583893680E+02  0.13518797872E+03  0.80577001090E+02 0.  0.
         -6    2    1    2    0  502  0.91472548018E+01  0.13651598243E+03 -0.14495371830E+03  0.26435412817E+03  0.17364112100E+03 0.  0.
        -24    2    5    5    0    0  0.17660234574E+01  0.10883846365E+03 -0.21407726092E+02  0.13744380623E+03  0.81139257624E+02 0.  0.
          5    1    3    3  501    0 -0.69184052997E+02 -0.76423248573E+02 -0.51546017814E+02  0.11535175796E+03  0.47000000000E+01 0. -1.
        -13    1    4    4    0    0  0.21154014730E+01  0.11084102113E+02  0.99561731927E+01  0.15048509151E+02  0.00000000000E+00 0.  1.
         14    1    4    4    0    0  0.57921396722E+02 -0.71176835968E+02 -0.77540066873E+02  0.12013946956E+03  0.00000000000E+00 0. -1.
         -5    1    5    5    0  502  0.73812313444E+01  0.27677518780E+02 -0.12354599221E+03  0.12691032193E+03  0.47000000000E+01 0.  1.
         11    1    6    6    0    0  0.36820175279E+02  0.85581407813E+02 -0.90817509110E+01  0.93607589812E+02  0.00000000000E+00 0. -1.
        -12    1    6    6    0    0 -0.35054151822E+02  0.23257055835E+02 -0.12325975181E+02  0.43836216423E+02  0.00000000000E+00 0.  1.
<mgrwt>
<rscale>  2 0.22090277E+03</rscale>
<asrwt>0</asrwt>
<pdfrwt beam="1">  1       21 0.19293095E-01 0.22106905E+03</pdfrwt>
<pdfrwt beam="2">  1       21 0.59921346E-01 0.22106905E+03</pdfrwt>
<totfact> 0.63331931E+04</totfact>
</mgrwt>
</event>
<event>
12    1  0.1013215E-001  0.1818393E+03  0.7546771E-02  0.1166464E+00
         21   -1    0    0  503  502  0.00000000000E+00  0.00000000000E+00  0.98642828418E+03  0.98642828418E+03  0.00000000000E+00 0. -1.
         21   -1    0    0  501  503 -0.00000000000E+00 -0.00000000000E+00 -0.40962203935E+02  0.40962203935E+02  0.00000000000E+00 0. -1.
          6    2    1    2  501    0  0.47557359473E+02  0.15028131727E+02  0.25088726602E+03  0.30985472208E+03  0.17486560943E+03 0.  0.
         24    2    3    3    0    0  0.17263964358E+02  0.75085496184E+02  0.12908185310E+03  0.17063106953E+03  0.80727695908E+02 0.  0.
         -6    2    1    2    0  502 -0.47557359473E+02 -0.15028131727E+02  0.69457881422E+03  0.71753576603E+03  0.17300375483E+03 0.  0.
        -24    2    5    5    0    0  0.41243828200E+02  0.12194246127E+02  0.35664242362E+03  0.36703640386E+03  0.75313680240E+02 0.  0.
          5    1    3    3  501    0  0.30293395115E+02 -0.60057364458E+02  0.12180541291E+03  0.13922365255E+03  0.47000000000E+01 0. -1.
        -11    1    4    4    0    0 -0.23567437982E+02  0.77389372156E+01  0.63397826251E+02  0.68077894030E+02  0.00000000000E+00 0.  1.
         12    1    4    4    0    0  0.40831402341E+02  0.67346558969E+02  0.65684026854E+02  0.10255317550E+03  0.00000000000E+00 0. -1.
         -5    1    5    5    0  502 -0.88801187673E+02 -0.27222377853E+02  0.33793639061E+03  0.35049936218E+03  0.47000000000E+01 0.  1.
         13    1    6    6    0    0 -0.14769612778E+02  0.25032871506E+02  0.13176308358E+03  0.13493070930E+03  0.00000000000E+00 0. -1.
        -14    1    6    6    0    0  0.56013440978E+02 -0.12838625379E+02  0.22487934003E+03  0.23210569456E+03  0.00000000000E+00 0.  1.
<mgrwt>
<rscale>  2 0.18139020E+03</rscale>
<asrwt>0</asrwt>
<pdfrwt beam="1">  1       21 0.15175818E+00 0.18183929E+03</pdfrwt>
<pdfrwt beam="2">  1       21 0.63018783E-02 0.18183929E+03</pdfrwt>
<totfact> 0.52858254E+04</totfact>
</mgrwt>
</event>
<event>
12    1  0.1013215E-001  0.1894897E+03  0.7546771E-02  0.1159279E+00
         21   -1    0    0  503  502  0.00000000000E+00  0.00000000000E+00  0.23120642405E+03  0.23120642405E+03  0.00000000000E+00 0. -1.
         21   -1    0    0  501  503 -0.00000000000E+00 -0.00000000000E+00 -0.19879475744E+03  0.19879475744E+03  0.00000000000E+00 0. -1.
          6    2    1    2  501    0  0.40419162497E+02 -0.62557645821E+02 -0.85886960682E+02  0.20661610041E+03  0.17252963567E+03 0.  0.
         24    2    3    3    0    0 -0.48792933156E+02 -0.49172595663E+02 -0.54353603906E+02  0.11093747078E+03  0.67484173513E+02 0.  0.
         -6    2    1    2    0  502 -0.40419162497E+02  0.62557645821E+02  0.11829862729E+03  0.22338508109E+03  0.17423880591E+03 0.  0.
        -24    2    5    5    0    0  0.29808839211E+02  0.48516271400E+02  0.11058082450E+03  0.15119930064E+03  0.85969263573E+02 0.  0.
          5    1    3    3  501    0  0.89212095653E+02 -0.13385050157E+02 -0.31533356775E+02  0.95678629631E+02  0.47000000000E+01 0. -1.
        -11    1    4    4    0    0 -0.16052906529E+02 -0.30026111319E+02  0.10652948702E+02  0.35675600696E+02  0.00000000000E+00 0.  1.
         12    1    4    4    0    0 -0.32740026627E+02 -0.19146484345E+02 -0.65006552608E+02  0.75261870082E+02  0.00000000000E+00 0. -1.
         -5    1    5    5    0  502 -0.70228001708E+02  0.14041374420E+02  0.77178027884E+01  0.72185780451E+02  0.47000000000E+01 0.  1.
         11    1    6    6    0    0 -0.15928870911E+02  0.16275064819E+02 -0.45192571760E+01  0.23217027130E+02  0.00000000000E+00 0. -1.
        -12    1    6    6    0    0  0.45737710122E+02  0.32241206581E+02  0.11510008168E+03  0.12798227351E+03  0.00000000000E+00 0.  1.
<mgrwt>
<rscale>  2 0.18909583E+03</rscale>
<asrwt>0</asrwt>
<pdfrwt beam="1">  1       21 0.35570219E-01 0.18948965E+03</pdfrwt>
<pdfrwt beam="2">  1       21 0.30583809E-01 0.18948965E+03</pdfrwt>
<totfact> 0.78313271E+04</totfact>
</mgrwt>
</event>
<event>
12    1  0.1013215E-001  0.2264994E+03  0.7546771E-02  0.1130059E+00
         21   -1    0    0  503  502  0.00000000000E+00  0.00000000000E+00  0.69821181460E+02  0.69821181460E+02  0.00000000000E+00 0. -1.
         21   -1    0    0  501  503 -0.00000000000E+00 -0.00000000000E+00 -0.73185860340E+03  0.73185860340E+03  0.00000000000E+00 0. -1.
          6    2    1    2  501    0 -0.69564604355E+02 -0.12813122689E+03 -0.28005656509E+03  0.36018558628E+03  0.17333531501E+03 0.  0.
         24    2    3    3    0    0  0.22151027263E+02 -0.26223616153E+02 -0.12768207963E+03  0.15515633951E+03  0.81193781659E+02 0.  0.
         -6    2    1    2    0  502  0.69564604355E+02  0.12813122689E+03 -0.38198085684E+03  0.44149419858E+03  0.16658603453E+03 0.  0.
        -24    2    5    5    0    0  0.87500663541E+02  0.79188967254E+02 -0.16568960379E+03  0.21896095804E+03  0.81016033513E+02 0.  0.
          5    1    3    3  501    0 -0.91715631618E+02 -0.10190761074E+03 -0.15237448547E+03  0.20502924677E+03  0.47000000000E+01 0. -1.
        -13    1    4    4    0    0  0.33639521201E+02  0.16289029396E+02 -0.29722099703E+02  0.47753042584E+02  0.00000000000E+00 0.  1.
         14    1    4    4    0    0 -0.11488493937E+02 -0.42512645549E+02 -0.97959979924E+02  0.10740329693E+03  0.00000000000E+00 0. -1.
         -5    1    5    5    0  502 -0.17936059186E+02  0.48942259635E+02 -0.21629125305E+03  0.22253324054E+03  0.47000000000E+01 0.  1.
         13    1    6    6    0    0  0.59801056823E+02  0.45734967325E+02 -0.38496630450E+02  0.84556751294E+02  0.00000000000E+00 0. -1.
        -14    1    6    6    0    0  0.27699606718E+02  0.33453999929E+02 -0.12719297334E+03  0.13440420675E+03  0.00000000000E+00 0.  1.
<mgrwt>
<rscale>  2 0.22520778E+03</rscale>
<asrwt>0</asrwt>
<pdfrwt beam="1">  1       21 0.10741721E-01 0.22649940E+03</pdfrwt>
<pdfrwt beam="2">  1       21 0.11259362E+00 0.22649940E+03</pdfrwt>
<totfact> 0.43356623E+04</totfact>
</mgrwt>
</event>
<event>
12    1  0.1013215E-001  0.2620846E+03  0.7546771E-02  0.1105919E+00
         21   -1    0    0  501  502  0.00000000000E+00  0.00000000000E+00  0.30523264120E+03  0.30523264120E+03  0.00000000000E+00 0.  1.
         21   -1    0    0  502  503 -0.00000000000E+00 -0.00000000000E+00 -0.32046014796E+03  0.32046014796E+03  0.00000000000E+00 0. -1.
         -6    2    1    2    0  503  0.11339487575E+03 -0.16034289759E+03 -0.17844063024E+03  0.31694229162E+03  0.17332949848E+03 0.  0.
        -24    2    3    3    0    0  0.14224212458E+03 -0.10944963907E+03 -0.16646558745E+03  0.25704421838E+03  0.78414876770E+02 0.  0.
          6    2    1    2  501    0 -0.11339487575E+03  0.16034289759E+03  0.16321312348E+03  0.30875049753E+03  0.17355144309E+03 0.  0.
         24    2    5    5    0    0 -0.68751452417E+02  0.16327837912E+03  0.72835450689E+02  0.20779572530E+03  0.80544827738E+02 0.  0.
          5    1    5    5  501    0 -0.44643423331E+02 -0.29354815322E+01  0.90377672788E+02  0.10095477224E+03  0.47000000000E+01 0. -1.
        -13    1    6    6    0    0 -0.40833760556E+02  0.31075692633E+02  0.48296330012E+02  0.70467227605E+02  0.00000000000E+00 0.  1.
         14    1    6    6    0    0 -0.27917691862E+02  0.13220268649E+03  0.24539120676E+02  0.13732849769E+03  0.00000000000E+00 0. -1.
         -5    1    3    3    0  503 -0.28847248835E+02 -0.50893258525E+02 -0.11975042790E+02  0.59898073245E+02  0.47000000000E+01 0.  1.
         11    1    4    4    0    0  0.18712399603E+02 -0.29984314216E+02 -0.77858857769E+02  0.85505641516E+02  0.00000000000E+00 0. -1.
        -12    1    4    4    0    0  0.12352972498E+03 -0.79465324851E+02 -0.88606729682E+02  0.17153857686E+03  0.00000000000E+00 0.  1.
<mgrwt>
<rscale>  2 0.26204788E+03</rscale>
<asrwt>0</asrwt>
<pdfrwt beam="1">  1       21 0.46958868E-01 0.26208462E+03</pdfrwt>
<pdfrwt beam="2">  1       21 0.49301561E-01 0.26208462E+03</pdfrwt>
<totfact> 0.16389820E+04</totfact>
</mgrwt>
</event>
<event>
12    1  0.1013215E-001  0.1838819E+03  0.7546771E-02  0.1164139E+00
         21   -1    0    0  501  502  0.00000000000E+00  0.00000000000E+00  0.64228368162E+02  0.64228368162E+02  0.00000000000E+00 0. -1.
         21   -1    0    0  502  503 -0.00000000000E+00 -0.00000000000E+00 -0.72198900000E+03  0.72198900000E+03  0.00000000000E+00 0. -1.
         -6    2    1    2    0  503 -0.11401489186E+02 -0.61785577892E+02 -0.53383814326E+03  0.56461998087E+03  0.17281524238E+03 0.  0.
        -24    2    3    3    0    0 -0.16841227228E+02  0.16300408442E+02 -0.41537069929E+03  0.42255085230E+03  0.73939669289E+02 0.  0.
          6    2    1    2  501    0  0.11401489186E+02  0.61785577892E+02 -0.12392248857E+03  0.22159738730E+03  0.17263014595E+03 0.  0.
         24    2    5    5    0    0 -0.14152095675E+02 -0.13916858133E+02 -0.11125455958E+02  0.83289379261E+02  0.80121059499E+02 0.  0.
          5    1    5    5  501    0  0.25553584861E+02  0.75702436026E+02 -0.11279703262E+03  0.13830800803E+03  0.47000000000E+01 0. -1.
        -13    1    6    6    0    0  0.93396908125E+01  0.54350618923E+01  0.30137187404E+02  0.32015930204E+02  0.00000000000E+00 0.  1.
         14    1    6    6    0    0 -0.23491786487E+02 -0.19351920026E+02 -0.41262643361E+02  0.51273449057E+02  0.00000000000E+00 0. -1.
         -5    1    3    3    0  503  0.54397380419E+01 -0.78085986334E+02 -0.11846744397E+03  0.14206912857E+03  0.47000000000E+01 0.  1.
         11    1    4    4    0    0 -0.31526938740E+02 -0.13776008351E+02 -0.31212334553E+03  0.31401386768E+03  0.00000000000E+00 0. -1.
        -12    1    4    4    0    0  0.14685711512E+02  0.30076416793E+02 -0.10324735377E+03  0.10853698461E+03  0.00000000000E+00 0.  1.
<mgrwt>
<rscale>  2 0.18383842E+03</rscale>
<asrwt>0</asrwt>
<pdfrwt beam="1">  1       21 0.98812874E-02 0.18388192E+03</pdfrwt>
<pdfrwt beam="2">  1       21 0.11107523E+00 0.18388192E+03</pdfrwt>
<totfact> 0.53097659E+04</totfact>
</mgrwt>
</event>
<event>
12    1  0.1013215E-001  0.2545864E+03  0.7546771E-02  0.1110964E+00
         21   -1    0    0  503  502  0.00000000000E+00  0.00000000000E+00  0.82292072138E+02  0.82292072138E+02  0.00000000000E+00 0. -1.
         21   -1    0    0  501  503 -0.00000000000E+00 -0.00000000000E+00 -0.20462771382E+04  0.20462771382E+04  0.00000000000E+00 0.  1.
          6    2    1    2  501    0 -0.12497263243E+02  0.18191458940E+03 -0.18176392047E+04  0.18349174707E+04  0.17280262271E+03 0.  0.
         24    2    3    3    0    0  0.39880480301E+02  0.15817066998E+03 -0.15777721321E+04  0.15882081190E+04  0.80197971946E+02 0.  0.
         -6    2    1    2    0  502  0.12497263243E+02 -0.18191458940E+03 -0.14634586135E+03  0.29365173962E+03  0.17766579193E+03 0.  0.
        -24    2    5    5    0    0  0.70319493596E+02 -0.15259120261E+03 -0.87054135916E+02  0.20566952528E+03  0.80576825165E+02 0.  0.
          5    1    3    3  501    0 -0.52377743544E+02  0.23743919423E+02 -0.23986707263E+03  0.24670935179E+03  0.47000000000E+01 0. -1.
        -13    1    4    4    0    0  0.55918701398E+02  0.12214995466E+03 -0.98398631091E+03  0.99311458183E+03  0.00000000000E+00 0.  1.
         14    1    4    4    0    0 -0.16038221096E+02  0.36020715313E+02 -0.59378582121E+03  0.59509353713E+03  0.00000000000E+00 0. -1.
         -5    1    5    5    0  502 -0.57822230354E+02 -0.29323386791E+02 -0.59291725434E+02  0.87982214344E+02  0.47000000000E+01 0.  1.
         11    1    6    6    0    0  0.67030477884E+02 -0.11134443294E+03 -0.26997406287E+02  0.13273856884E+03  0.00000000000E+00 0. -1.
        -12    1    6    6    0    0  0.32890157123E+01 -0.41246769667E+02 -0.60056729628E+02  0.72930956432E+02  0.00000000000E+00 0.  1.
<mgrwt>
<rscale>  2 0.25373977E+03</rscale>
<asrwt>0</asrwt>
<pdfrwt beam="1">  1       21 0.12660320E-01 0.25458640E+03</pdfrwt>
<pdfrwt beam="2">  1       21 0.31481183E+00 0.25458640E+03</pdfrwt>
<totfact> 0.13905656E+03</totfact>
</mgrwt>
</event>
<event>
12    1  0.1013215E-001  0.1922039E+03  0.7546771E-02  0.1156738E+00
         21   -1    0    0  501  502  0.00000000000E+00  0.00000000000E+00  0.96845198606E+02  0.96845198606E+02  0.00000000000E+00 0. -1.
         21   -1    0    0  502  503 -0.00000000000E+00 -0.00000000000E+00 -0.46892007847E+03  0.46892007847E+03  0.00000000000E+00 0. -1.
         -6    2    1    2    0  503  0.54324331310E+02 -0.60229759413E+02 -0.30930713074E+03  0.36357196513E+03  0.17301709687E+03 0.  0.
        -24    2    3    3    0    0  0.53857271585E+02 -0.79928833065E+02 -0.12359377383E+03  0.17675704982E+03  0.81721537384E+02 0.  0.
          6    2    1    2  501    0 -0.54324331310E+02  0.60229759413E+02 -0.62767749126E+02  0.20219331195E+03  0.17425150839E+03 0.  0.
         24    2    5    5    0    0 -0.31961376090E+01  0.48883875461E+02  0.23915084637E+02  0.10080877199E+03  0.84797574622E+02 0.  0.
          5    1    5    5  501    0 -0.51128193701E+02  0.11345883952E+02 -0.86682833762E+02  0.10138453996E+03  0.47000000000E+01 0. -1.
        -13    1    6    6    0    0 -0.35879798947E+02  0.17516664130E+02 -0.13402748575E+02  0.42116827564E+02  0.00000000000E+00 0.  1.
         14    1    6    6    0    0  0.32683661338E+02  0.31367211331E+02  0.37317833212E+02  0.58691944428E+02  0.00000000000E+00 0. -1.
         -5    1    3    3    0  503  0.46705972520E+00  0.19699073652E+02 -0.18571335691E+03  0.18681491531E+03  0.47000000000E+01 0.  1.
         13    1    4    4    0    0  0.17914331941E+02 -0.25513884301E+02  0.59376501029E+01  0.31735426100E+02  0.00000000000E+00 0. -1.
        -14    1    4    4    0    0  0.35942939644E+02 -0.54414948764E+02 -0.12953142393E+03  0.14502162372E+03  0.00000000000E+00 0.  1.
<mgrwt>
<rscale>  2 0.19192370E+03</rscale>
<asrwt>0</asrwt>
<pdfrwt beam="1">  1       21 0.14899261E-01 0.19220392E+03</pdfrwt>
<pdfrwt beam="2">  1       21 0.72141551E-01 0.19220392E+03</pdfrwt>
<totfact> 0.68858171E+04</totfact>
</mgrwt>
</event>
<event>
12    1  0.1013215E-001  0.1826319E+03  0.7546771E-02  0.1165463E+00
         21   -1    0    0  503  502  0.00000000000E+00  0.00000000000E+00  0.18107455725E+03  0.18107455725E+03  0.00000000000E+00 0.  1.
         21   -1    0    0  501  503 -0.00000000000E+00 -0.00000000000E+00 -0.21939651487E+03  0.21939651487E+03  0.00000000000E+00 0.  1.
          6    2    1    2  501    0  0.22199555003E+02  0.54574281088E+02 -0.10027042665E+03  0.20834727378E+03  0.17286774029E+03 0.  0.
         24    2    3    3    0    0 -0.41604637635E+02  0.57953516843E+02 -0.28690563820E+02  0.11228395615E+03  0.81822871917E+02 0.  0.
         -6    2    1    2    0  502 -0.22199555003E+02 -0.54574281088E+02  0.61948469025E+02  0.19212379833E+03  0.17205455145E+03 0.  0.
        -24    2    5    5    0    0  0.50919121537E+02 -0.12080323738E+02  0.56471624745E+02  0.10724645687E+03  0.74659674194E+02 0.  0.
          5    1    3    3  501    0  0.63804192638E+02 -0.33792357544E+01 -0.71579862831E+02  0.96063317636E+02  0.47000000000E+01 0. -1.
        -11    1    4    4    0    0 -0.24271321090E+02  0.48578802810E+02 -0.56392070031E+02  0.78288330370E+02  0.00000000000E+00 0.  1.
         12    1    4    4    0    0 -0.17333316545E+02  0.93747140330E+01  0.27701506211E+02  0.33995625777E+02  0.00000000000E+00 0. -1.
         -5    1    5    5    0  502 -0.73118676540E+02 -0.42493957350E+02  0.54768442795E+01  0.84877341461E+02  0.47000000000E+01 0.  1.
         13    1    6    6    0    0  0.47344484567E+02 -0.20564106766E+02  0.16361720577E+01  0.51643583967E+02  0.00000000000E+00 0. -1.
        -14    1    6    6    0    0  0.35746369704E+01  0.84837830284E+01  0.54835452688E+02  0.55602872906E+02  0.00000000000E+00 0.  1.
<mgrwt>
<rscale>  2 0.18243926E+03</rscale>
<asrwt>0</asrwt>
<pdfrwt beam="1">  1       21 0.27857624E-01 0.18263195E+03</pdfrwt>
<pdfrwt beam="2">  1       21 0.33753310E-01 0.18263195E+03</pdfrwt>
<totfact> 0.10442207E+05</totfact>
</mgrwt>
</event>
<event>
12    1  0.1013215E-001  0.1960950E+03  0.7546771E-02  0.1153727E+00
         21   -1    0    0  503  502  0.00000000000E+00  0.00000000000E+00  0.69568012191E+03  0.69568012191E+03  0.00000000000E+00 0.  1.
         21   -1    0    0  501  503 -0.00000000000E+00 -0.00000000000E+00 -0.56366098914E+02  0.56366098914E+02  0.00000000000E+00 0. -1.
          6    2    1    2  501    0 -0.27405987286E+02 -0.83757760280E+02  0.25244566030E+03  0.31965931185E+03  0.17517652156E+03 0.  0.
         24    2    3    3    0    0  0.87944517449E+01 -0.67823865673E+02  0.54061674226E+02  0.11731639324E+03  0.78505110449E+02 0.  0.
         -6    2    1    2    0  502  0.27405987286E+02  0.83757760280E+02  0.38686836269E+03  0.43238690897E+03  0.17182799086E+03 0.  0.
        -24    2    5    5    0    0  0.63990975757E+02  0.96594116596E+02  0.22024986699E+03  0.26125232294E+03  0.79482727626E+02 0.  0.
          5    1    3    3  501    0 -0.36200439031E+02 -0.15933894607E+02  0.19838398607E+03  0.20234291861E+03  0.47000000000E+01 0. -1.
        -11    1    4    4    0    0  0.25837127847E+02 -0.47585263865E+02  0.68387688291E+02  0.87228380830E+02  0.00000000000E+00 0.  1.
         12    1    4    4    0    0 -0.17042676103E+02 -0.20238601807E+02 -0.14326014064E+02  0.30088012411E+02  0.00000000000E+00 0. -1.
         -5    1    5    5    0  502 -0.36584988471E+02 -0.12836356317E+02  0.16661849570E+03  0.17113458603E+03  0.47000000000E+01 0.  1.
         11    1    6    6    0    0  0.34948031384E+02  0.10427842982E+03  0.18150174551E+03  0.21222214646E+03  0.00000000000E+00 0. -1.
        -12    1    6    6    0    0  0.29042944373E+02 -0.76843132207E+01  0.38748121482E+02  0.49030176482E+02  0.00000000000E+00 0.  1.
<mgrwt>
<rscale>  2 0.19534437E+03</rscale>
<asrwt>0</asrwt>
<pdfrwt beam="1">  1       21 0.10702771E+00 0.19609504E+03</pdfrwt>
<pdfrwt beam="2">  1       21 0.86717080E-02 0.19609504E+03</pdfrwt>
<totfact> 0.72626123E+04</totfact>
</mgrwt>
</event>
<event>
12    1  0.1013215E-001  0.2065967E+03  0.7546771E-02  0.1145023E+00
         21   -1    0    0  501  502  0.00000000000E+00  0.00000000000E+00  0.33334506012E+03  0.33334506012E+03  0.00000000000E+00 0. -1.
         21   -1    0    0  502  503 -0.00000000000E+00 -0.00000000000E+00 -0.17018368163E+03  0.17018368163E+03  0.00000000000E+00 0. -1.
         -6    2    1    2    0  503  0.10058748006E+03 -0.46380276899E+02  0.20958183796E+03  0.29178113571E+03  0.17012558046E+03 0.  0.
        -24    2    3    3    0    0  0.73658861515E+02 -0.96017213570E+02  0.13483767900E+03  0.19798478570E+03  0.79823821679E+02 0.  0.
          6    2    1    2  501    0 -0.10058748006E+03  0.46380276899E+02 -0.46420459470E+02  0.21174760604E+03  0.17439385991E+03 0.  0.
         24    2    5    5    0    0 -0.12712152457E+03  0.46018227701E+02  0.16253856999E+01  0.15665967782E+03  0.79133137730E+02 0.  0.
          5    1    5    5  501    0  0.26534044505E+02  0.36204919782E+00 -0.48045845170E+02  0.55087928220E+02  0.47000000000E+01 0. -1.
        -11    1    6    6    0    0 -0.86537240019E+01  0.36744253470E+02  0.24165789455E+01  0.37826802085E+02  0.00000000000E+00 0.  1.
         12    1    6    6    0    0 -0.11846780056E+03  0.92739742312E+01 -0.79119324557E+00  0.11883287573E+03  0.00000000000E+00 0. -1.
         -5    1    3    3    0  503  0.26928618547E+02  0.49636936671E+02  0.74744158952E+02  0.93796350016E+02  0.47000000000E+01 0.  1.
         13    1    4    4    0    0  0.88920343197E+02 -0.67678071784E+02  0.11403975503E+03  0.15966281521E+03  0.00000000000E+00 0. -1.
        -14    1    4    4    0    0 -0.15261481681E+02 -0.28339141786E+02  0.20797923977E+02  0.38321970487E+02  0.00000000000E+00 0.  1.
<mgrwt>
<rscale>  2 0.20569326E+03</rscale>
<asrwt>0</asrwt>
<pdfrwt beam="1">  1       21 0.51283855E-01 0.20659668E+03</pdfrwt>
<pdfrwt beam="2">  1       21 0.26182105E-01 0.20659668E+03</pdfrwt>
<totfact> 0.49766868E+04</totfact>
</mgrwt>
</event>
<event>
12    1  0.1013215E-001  0.1784091E+03  0.7546771E-02  0.1169438E+00
         21   -1    0    0  503  502  0.00000000000E+00  0.00000000000E+00  0.14933528551E+03  0.14933528551E+03  0.00000000000E+00 0. -1.
         21   -1    0    0  501  503 -0.00000000000E+00 -0.00000000000E+00 -0.23255308448E+03  0.23255308448E+03  0.00000000000E+00 0. -1.
          6    2    1    2  501    0 -0.26373063583E+02 -0.39013139937E+02 -0.97402591167E+02  0.20326602221E+03  0.17208209508E+03 0.  0.
         24    2    3    3    0    0 -0.19016876567E+01 -0.85998803898E+02 -0.91640231603E+02  0.14977026868E+03  0.81448085580E+02 0.  0.
         -6    2    1    2    0  502  0.26373063583E+02  0.39013139937E+02  0.14184792198E+02  0.17862234778E+03  0.17171829031E+03 0.  0.
        -24    2    5    5    0    0 -0.42098942113E+02  0.11921046601E+02  0.41172804670E+02  0.10005492513E+03  0.80008474042E+02 0.  0.
          5    1    3    3  501    0 -0.24471375926E+02  0.46985663961E+02 -0.57623595637E+01  0.53495753526E+02  0.47000000000E+01 0. -1.
        -11    1    4    4    0    0  0.21886960123E+02  0.52662443571E+01 -0.85669228699E+01  0.24086604587E+02  0.00000000000E+00 0.  1.
         12    1    4    4    0    0 -0.23788647780E+02 -0.91265048255E+02 -0.83073308733E+02  0.12568366409E+03  0.00000000000E+00 0. -1.
         -5    1    5    5    0  502  0.68472005696E+02  0.27092093337E+02 -0.26988012472E+02  0.78567422655E+02  0.47000000000E+01 0.  1.
         13    1    6    6    0    0 -0.17210866103E+02 -0.34404987840E+02  0.20072791990E+02  0.43391636044E+02  0.00000000000E+00 0. -1.
        -14    1    6    6    0    0 -0.24888076010E+02  0.46326034441E+02  0.21100012680E+02  0.56663289082E+02  0.00000000000E+00 0.  1.
<mgrwt>
<rscale>  2 0.17832133E+03</rscale>
<asrwt>0</asrwt>
<pdfrwt beam="1">  1       21 0.22974659E-01 0.17840911E+03</pdfrwt>
<pdfrwt beam="2">  1       21 0.35777397E-01 0.17840911E+03</pdfrwt>
<totfact> 0.13462555E+05</totfact>
</mgrwt>
</event>
<event>
12    1  0.1013215E-001  0.2112215E+03  0.7546771E-02  0.1140781E+00
         21   -1    0    0  501  502  0.00000000000E+00  0.00000000000E+00  0.38814702792E+03  0.38814702792E+03  0.00000000000E+00 0.  1.
         21   -1    0    0  502  503 -0.00000000000E+00 -0.00000000000E+00 -0.13589137931E+03  0.13589137931E+03  0.00000000000E+00 0. -1.
         -6    2    1    2    0  503  0.11998325057E+03 -0.17698595491E+02  0.22277870919E+02  0.21239311068E+03  0.17293151602E+03 0.  0.
        -24    2    3    3    0    0  0.88722123966E+02 -0.77288007112E+02  0.25314415718E+02  0.14486928808E+03  0.80630265172E+02 0.  0.
          6    2    1    2  501    0 -0.11998325057E+03  0.17698595491E+02  0.22997777769E+03  0.31164529655E+03  0.17182488741E+03 0.  0.
         24    2    5    5    0    0 -0.21539025855E+02  0.40145998155E+02  0.17127615009E+03  0.19475593712E+03  0.80738619329E+02 0.  0.
          5    1    5    5  501    0 -0.98444224713E+02 -0.22447402664E+02  0.58701627605E+02  0.11688935944E+03  0.47000000000E+01 0. -1.
        -11    1    6    6    0    0 -0.53222400674E+00 -0.49581663820E+01  0.13003356267E+03  0.13012914392E+03  0.00000000000E+00 0.  1.
         12    1    6    6    0    0 -0.21006801849E+02  0.45104164537E+02  0.41242587420E+02  0.64626793202E+02  0.00000000000E+00 0. -1.
         -5    1    3    3    0  503  0.31261126602E+02  0.59589411621E+02 -0.30365447990E+01  0.67523822597E+02  0.47000000000E+01 0.  1.
         13    1    4    4    0    0  0.62751979803E+02 -0.28033464130E+02 -0.21615957869E+02  0.72048148588E+02  0.00000000000E+00 0. -1.
        -14    1    4    4    0    0  0.25970144163E+02 -0.49254542982E+02  0.46930373587E+02  0.72821139494E+02  0.00000000000E+00 0.  1.
<mgrwt>
<rscale>  2 0.21099489E+03</rscale>
<asrwt>0</asrwt>
<pdfrwt beam="1">  1       21 0.59714927E-01 0.21122152E+03</pdfrwt>
<pdfrwt beam="2">  1       21 0.20906366E-01 0.21122152E+03</pdfrwt>
<totfact> 0.55129542E+04</totfact>
</mgrwt>
</event>
<event>
12    1  0.1013215E-001  0.2275562E+03  0.7546771E-02  0.1128854E+00
         21   -1    0    0  503  502  0.00000000000E+00  0.00000000000E+00  0.14446005678E+03  0.14446005678E+03  0.00000000000E+00 0.  1.
         21   -1    0    0  501  503 -0.00000000000E+00 -0.00000000000E+00 -0.46694751647E+03  0.46694751647E+03  0.00000000000E+00 0. -1.
          6    2    1    2  501    0  0.65127536817E+01 -0.14504652031E+03 -0.31071144150E+03  0.38354685856E+03  0.17171395930E+03 0.  0.
         24    2    3    3    0    0  0.27157547031E+00 -0.17671162095E+03 -0.26370397669E+03  0.32633302586E+03  0.75672886242E+02 0.  0.
         -6    2    1    2    0  502 -0.65127536817E+01  0.14504652031E+03 -0.11776018190E+02  0.22786071469E+03  0.17521678482E+03 0.  0.
        -24    2    5    5    0    0 -0.18459968284E+02  0.68863356738E+01  0.23828465897E+02  0.84610088717E+02  0.78758360049E+02 0.  0.
          5    1    3    3  501    0  0.62411782114E+01  0.31665100646E+02 -0.47007464809E+02  0.57213832700E+02  0.47000000000E+01 0. -1.
        -13    1    4    4    0    0 -0.21784728480E+02 -0.11666118997E+03 -0.11873444193E+03  0.16787577353E+03  0.00000000000E+00 0.  1.
         14    1    4    4    0    0  0.22056303950E+02 -0.60050430983E+02 -0.14496953477E+03  0.15845725233E+03  0.00000000000E+00 0. -1.
         -5    1    5    5    0  502  0.11947214602E+02  0.13816018463E+03 -0.35604484087E+02  0.14325062597E+03  0.47000000000E+01 0.  1.
         13    1    6    6    0    0 -0.19477163323E+02 -0.16666645008E+02 -0.21539412878E+02  0.33482581353E+02  0.00000000000E+00 0. -1.
        -14    1    6    6    0    0  0.10171950384E+01  0.23552980682E+02  0.45367878775E+02  0.51127507364E+02  0.00000000000E+00 0.  1.
<mgrwt>
<rscale>  2 0.22688171E+03</rscale>
<asrwt>0</asrwt>
<pdfrwt beam="1">  1       21 0.22224624E-01 0.22755621E+03</pdfrwt>
<pdfrwt beam="2">  1       21 0.71838080E-01 0.22755621E+03</pdfrwt>
<totfact> 0.32536089E+04</totfact>
</mgrwt>
</event>
<event>
12    1  0.1013215E-001  0.2002915E+03  0.7546771E-02  0.1150000E+00
         21   -1    0    0  503  502  0.00000000000E+00  0.00000000000E+00  0.30305583201E+03  0.30305583201E+03  0.00000000000E+00 0. -1.
         21   -1    0    0  501  503 -0.00000000000E+00 -0.00000000000E+00 -0.26958240261E+03  0.26958240261E+03  0.00000000000E+00 0.  1.
          6    2    1    2  501    0 -0.74266614509E+02 -0.63256215486E+02 -0.18864708347E+03  0.27514433489E+03  0.17492799688E+03 0.  0.
         24    2    3    3    0    0 -0.14681553266E+02  0.32491900319E+02 -0.76364208936E+02  0.11593499120E+03  0.79612550433E+02 0.  0.
         -6    2    1    2    0  502  0.74266614509E+02  0.63256215486E+02  0.22212051287E+03  0.29749389973E+03  0.17218658284E+03 0.  0.
        -24    2    5    5    0    0  0.12926235352E+02  0.18712074223E+02  0.27662394642E+02  0.88728786791E+02  0.81181033783E+02 0.  0.
          5    1    3    3  501    0 -0.59585061244E+02 -0.95748115805E+02 -0.11228287453E+03  0.15920934369E+03  0.47000000000E+01 0. -1.
        -13    1    4    4    0    0 -0.40899593464E+02 -0.22649011234E+01 -0.22699658483E+02  0.46831410590E+02  0.00000000000E+00 0.  1.
         14    1    4    4    0    0  0.26218040198E+02  0.34756801443E+02 -0.53664550453E+02  0.69103580614E+02  0.00000000000E+00 0. -1.
         -5    1    5    5    0  502  0.61340379157E+02  0.44544141263E+02  0.19445811822E+03  0.20876511294E+03  0.47000000000E+01 0.  1.
         11    1    6    6    0    0  0.12915984075E+02  0.30822358908E+02  0.51845406394E+02  0.61682952405E+02  0.00000000000E+00 0. -1.
        -12    1    6    6    0    0  0.10251277220E-01 -0.12110284685E+02 -0.24183011752E+02  0.27045834386E+02  0.00000000000E+00 0.  1.
<mgrwt>
<rscale>  2 0.19969136E+03</rscale>
<asrwt>0</asrwt>
<pdfrwt beam="1">  1       21 0.46623974E-01 0.20029149E+03</pdfrwt>
<pdfrwt beam="2">  1       21 0.41474216E-01 0.20029149E+03</pdfrwt>
<totfact> 0.24550242E+04</totfact>
</mgrwt>
</event>
<event>
12    1  0.1013215E-001  0.2112193E+03  0.7546771E-02  0.1140660E+00
         21   -1    0    0  503  502  0.00000000000E+00  0.00000000000E+00  0.23940946458E+03  0.23940946458E+03  0.00000000000E+00 0. -1.
         21   -1    0    0  501  503 -0.00000000000E+00 -0.00000000000E+00 -0.41360527755E+03  0.41360527755E+03  0.00000000000E+00 0. -1.
          6    2    1    2  501    0 -0.11025253150E+03  0.50576483472E+02 -0.32928199522E+03  0.39120353938E+03  0.17291609373E+03 0.  0.
         24    2    3    3    0    0 -0.97709515877E+02  0.29038289307E+02 -0.33970654099E+03  0.36378124547E+03  0.80906667371E+02 0.  0.
         -6    2    1    2    0  502  0.11025253150E+03 -0.50576483472E+02  0.15508618224E+03  0.26181120274E+03  0.17256819109E+03 0.  0.
        -24    2    5    5    0    0  0.64280448139E+02 -0.10006603416E+03  0.85858601049E+02  0.16497527927E+03  0.75498054224E+02 0.  0.
          5    1    3    3  501    0 -0.12543015623E+02  0.21538194166E+02  0.10424545775E+02  0.27422293913E+02  0.47000000000E+01 0. -1.
        -11    1    4    4    0    0 -0.13727563131E+01  0.28647218134E+02 -0.41863360307E+02  0.50745329863E+02  0.00000000000E+00 0.  1.
         12    1    4    4    0    0 -0.96336759564E+02  0.39107117207E+00 -0.29784318068E+03  0.31303591561E+03  0.00000000000E+00 0. -1.
         -5    1    5    5    0  502  0.45972083361E+02  0.49489550690E+02  0.69227581193E+02  0.96835923468E+02  0.47000000000E+01 0.  1.
         13    1    6    6    0    0 -0.54031745858E+01 -0.49890169909E+02  0.11726783097E+02  0.51533880031E+02  0.00000000000E+00 0. -1.
        -14    1    6    6    0    0  0.69683622725E+02 -0.50175864253E+02  0.74131817951E+02  0.11344139924E+03  0.00000000000E+00 0.  1.
<mgrwt>
<rscale>  2 0.21114805E+03</rscale>
<asrwt>0</asrwt>
<pdfrwt beam="1">  1       21 0.36832225E-01 0.21121926E+03</pdfrwt>
<pdfrwt beam="2">  1       21 0.63631581E-01 0.21121926E+03</pdfrwt>
<totfact> 0.16041095E+04</totfact>
</mgrwt>
</event>
<event>
12    1  0.1013215E-001  0.2471708E+03  0.7546771E-02  0.1115161E+00
         21   -1    0    0  503  502  0.00000000000E+00  0.00000000000E+00  0.53733953331E+03  0.53733953331E+03  0.00000000000E+00 0. -1.
         21   -1    0    0  501  503 -0.00000000000E+00 -0.00000000000E+00 -0.14818142054E+03  0.14818142054E+03  0.00000000000E+00 0. -1.
          6    2    1    2  501    0  0.13334700552E+03  0.11518915422E+03  0.28950944429E+02  0.24886054691E+03  0.17333046326E+03 0.  0.
         24    2    3    3    0    0  0.10871334224E+03  0.93948018626E+01  0.36182762330E+02  0.13989426062E+03  0.79714231981E+02 0.  0.
         -6    2    1    2    0  502 -0.13334700552E+03 -0.11518915422E+03  0.36020716834E+03  0.43666040694E+03  0.17283848453E+03 0.  0.
        -24    2    5    5    0    0 -0.94115606956E+02 -0.93637514090E+02  0.35944301758E+03  0.39164652295E+03  0.81006077135E+02 0.  0.
          5    1    3    3  501    0  0.24633663275E+02  0.10579435236E+03 -0.72318179013E+01  0.10896628629E+03  0.47000000000E+01 0. -1.
        -11    1    4    4    0    0  0.11693764687E+03  0.12513474057E+02  0.17047697223E+02  0.11883444059E+03  0.00000000000E+00 0.  1.
         12    1    4    4    0    0 -0.82243046326E+01 -0.31186721948E+01  0.19135065107E+02  0.21059820028E+02  0.00000000000E+00 0. -1.
         -5    1    5    5    0  502 -0.39231398561E+02 -0.21551640132E+02  0.76415075654E+00  0.45013883989E+02  0.47000000000E+01 0.  1.
         13    1    6    6    0    0  0.11779238352E+02 -0.26592825551E+02  0.87588269489E+02  0.92291027619E+02  0.00000000000E+00 0. -1.
        -14    1    6    6    0    0 -0.10589484531E+03 -0.67044688539E+02  0.27185474810E+03  0.29935549533E+03  0.00000000000E+00 0.  1.
<mgrwt>
<rscale>  2 0.24708459E+03</rscale>
<asrwt>0</asrwt>
<pdfrwt beam="1">  1       21 0.82667619E-01 0.24717082E+03</pdfrwt>
<pdfrwt beam="2">  1       21 0.22797142E-01 0.24717082E+03</pdfrwt>
<totfact> 0.22369109E+04</totfact>
</mgrwt>
</event>
<event>
12    1  0.1013215E-001  0.1992468E+03  0.7546771E-02  0.1150615E+00
         21   -1    0    0  501  502  0.00000000000E+00  0.00000000000E+00  0.79351387212E+03  0.79351387212E+03  0.00000000000E+00 0.  1.
         21   -1    0    0  502  503 -0.00000000000E+00 -0.00000000000E+00 -0.49789988229E+02  0.49789988229E+02  0.00000000000E+00 0.  1.
         -6    2    1    2    0  503 -0.91672324875E+02  0.24117571541E+02  0.35849855049E+03  0.40960137325E+03  0.17397299174E+03 0.  0.
        -24    2    3    3    0    0 -0.12387913444E+03 -0.99030330719E+01  0.29872421325E+03  0.33351102226E+03  0.80927970295E+02 0.  0.
          6    2    1    2  501    0  0.91672324875E+02 -0.24117571541E+02  0.38522533340E+03  0.43370248710E+03  0.17525358034E+03 0.  0.
         24    2    5    5    0    0  0.13054733137E+03 -0.32937351518E+01  0.27152869194E+03  0.31166186038E+03  0.79698370438E+02 0.  0.
          5    1    5    5  501    0 -0.38875006491E+02 -0.20823836390E+02  0.11369664146E+03  0.12204062672E+03  0.47000000000E+01 0. -1.
        -11    1    6    6    0    0  0.33975728809E+02  0.23689299837E+02  0.33144864308E+02  0.53048233758E+02  0.00000000000E+00 0.  1.
         12    1    6    6    0    0  0.96571602557E+02 -0.26983034989E+02  0.23838382763E+03  0.25861362662E+03  0.00000000000E+00 0. -1.
         -5    1    3    3    0  503  0.32206809561E+02  0.34020604613E+02  0.59774337246E+02  0.76090350988E+02  0.47000000000E+01 0.  1.
         11    1    4    4    0    0 -0.78367769177E+02  0.13983890612E+02  0.25118602927E+03  0.26349853461E+03  0.00000000000E+00 0. -1.
        -12    1    4    4    0    0 -0.45511365258E+02 -0.23886923684E+02  0.47538183978E+02  0.70012487648E+02  0.00000000000E+00 0.  1.
<mgrwt>
<rscale>  2 0.19896485E+03</rscale>
<asrwt>0</asrwt>
<pdfrwt beam="1">  1       21 0.12207905E+00 0.19924681E+03</pdfrwt>
<pdfrwt beam="2">  1       21 0.76599988E-02 0.19924681E+03</pdfrwt>
<totfact> 0.65270000E+04</totfact>
</mgrwt>
</event>
<event>
12    1  0.1013215E-001  0.2915955E+03  0.7546771E-02  0.1089889E+00
         21   -1    0    0  503  502  0.00000000000E+00  0.00000000000E+00  0.29153057282E+03  0.29153057282E+03  0.00000000000E+00 0.  1.
         21   -1    0    0  501  503 -0.00000000000E+00 -0.00000000000E+00 -0.40730523325E+03  0.40730523325E+03  0.00000000000E+00 0. -1.
          6    2    1    2  501    0  0.23426352348E+03 -0.15361366425E+02  0.13076373378E+03  0.31698619155E+03  0.16812412543E+03 0.  0.
         24    2    3    3    0    0  0.12669103026E+03 -0.71093892609E+02  0.99994704562E+02  0.19189910617E+03  0.75639720329E+02 0.  0.
         -6    2    1    2    0  502 -0.23426352348E+03  0.15361366425E+02 -0.24653839421E+03  0.38184961451E+03  0.17295253184E+03 0.  0.
        -24    2    5    5    0    0 -0.89068082821E+02 -0.52636920618E+02 -0.85378195805E+02  0.15447287300E+03  0.76607201913E+02 0.  0.
          5    1    3    3  501    0  0.10757249321E+03  0.55732526184E+02  0.30769029218E+02  0.12508708539E+03  0.47000000000E+01 0. -1.
        -11    1    4    4    0    0  0.84335057306E+02 -0.66005459584E+01  0.67305089741E+02  0.10810154579E+03  0.00000000000E+00 0.  1.
         12    1    4    4    0    0  0.42355972957E+02 -0.64493346651E+02  0.32689614821E+02  0.83797560373E+02  0.00000000000E+00 0. -1.
         -5    1    5    5    0  502 -0.14519544066E+03  0.67998287043E+02 -0.16116019841E+03  0.22737674151E+03  0.47000000000E+01 0.  1.
         11    1    6    6    0    0 -0.54948439178E+02  0.11374615126E+02 -0.40005000419E+02  0.68913807730E+02  0.00000000000E+00 0. -1.
        -12    1    6    6    0    0 -0.34119643643E+02 -0.64011535744E+02 -0.45373195385E+02  0.85559065272E+02  0.00000000000E+00 0.  1.
<mgrwt>
<rscale>  2 0.29088350E+03</rscale>
<asrwt>0</asrwt>
<pdfrwt beam="1">  1       21 0.44850858E-01 0.29159552E+03</pdfrwt>
<pdfrwt beam="2">  1       21 0.62662343E-01 0.29159552E+03</pdfrwt>
<totfact> 0.10645855E+04</totfact>
</mgrwt>
</event>
<event>
12    1  0.1013215E-001  0.2075825E+03  0.7546771E-02  0.1144680E+00
         21   -1    0    0  503  502  0.00000000000E+00  0.00000000000E+00  0.13435464083E+04  0.13435464083E+04  0.00000000000E+00 0. -1.
         21   -1    0    0  501  503 -0.00000000000E+00 -0.00000000000E+00 -0.16036647007E+03  0.16036647007E+03  0.00000000000E+00 0. -1.
          6    2    1    2  501    0 -0.67599219361E+02 -0.80371025524E+02 -0.81669592624E+02  0.22307041029E+03  0.17905677699E+03 0.  0.
         24    2    3    3    0    0 -0.31588108288E+02 -0.97198101176E+02 -0.11267553041E+03  0.17244029303E+03  0.81207142843E+02 0.  0.
         -6    2    1    2    0  502  0.67599219361E+02  0.80371025524E+02  0.12648495308E+04  0.12808424680E+04  0.17229026713E+03 0.  0.
        -24    2    5    5    0    0 -0.17175121353E+02  0.63837401739E+02  0.88500167842E+03  0.89127022760E+03  0.82246271293E+02 0.  0.
          5    1    3    3  501    0 -0.36011111073E+02  0.16827075652E+02  0.31005937790E+02  0.50630117262E+02  0.47000000000E+01 0. -1.
        -11    1    4    4    0    0  0.13512508337E+02  0.57296650334E+01 -0.28422259252E+02  0.31988150368E+02  0.00000000000E+00 0.  1.
         12    1    4    4    0    0 -0.45100616626E+02 -0.10292776621E+03 -0.84253271162E+02  0.14045214266E+03  0.00000000000E+00 0. -1.
         -5    1    5    5    0  502  0.84774340714E+02  0.16533623785E+02  0.37984785238E+03  0.38957224044E+03  0.47000000000E+01 0.  1.
         11    1    6    6    0    0 -0.24337316301E+02 -0.11318420701E+02  0.34102625543E+03  0.34208086545E+03  0.00000000000E+00 0. -1.
        -12    1    6    6    0    0  0.71621949477E+01  0.75155822440E+02  0.54397542299E+03  0.54918936215E+03  0.00000000000E+00 0.  1.
<mgrwt>
<rscale>  2 0.20611509E+03</rscale>
<asrwt>0</asrwt>
<pdfrwt beam="1">  1       21 0.20669944E+00 0.20758248E+03</pdfrwt>
<pdfrwt beam="2">  1       21 0.24671766E-01 0.20758248E+03</pdfrwt>
<totfact> 0.18615981E+03</totfact>
</mgrwt>
</event>
<event>
12    1  0.1013215E-001  0.1758698E+03  0.7546771E-02  0.1171904E+00
         21   -1    0    0  503  502  0.00000000000E+00  0.00000000000E+00  0.10246046942E+03  0.10246046942E+03  0.00000000000E+00 0. -1.
         21   -1    0    0  501  503 -0.00000000000E+00 -0.00000000000E+00 -0.43059363098E+03  0.43059363098E+03  0.00000000000E+00 0. -1.
          6    2    1    2  501    0  0.34596202245E+02 -0.22276978261E+01 -0.31001309909E+03  0.35642435883E+03  0.17241908860E+03 0.  0.
         24    2    3    3    0    0 -0.22703480615E+01  0.53908234811E+02 -0.23971734197E+03  0.25909004353E+03  0.82170520005E+02 0.  0.
         -6    2    1    2    0  502 -0.34596202245E+02  0.22276978261E+01 -0.18120062469E+02  0.17662974158E+03  0.17224363297E+03 0.  0.
        -24    2    5    5    0    0 -0.50841480288E+02 -0.26814031180E+02 -0.66431839398E+02  0.11777866790E+03  0.78452386461E+02 0.  0.
          5    1    3    3  501    0  0.36866550306E+02 -0.56135932637E+02 -0.70295757123E+02  0.97334315295E+02  0.47000000000E+01 0. -1.
        -13    1    4    4    0    0 -0.36187254094E+02  0.36418520496E+02 -0.81397466374E+02  0.96236030290E+02  0.00000000000E+00 0.  1.
         14    1    4    4    0    0  0.33916906033E+02  0.17489714315E+02 -0.15831987559E+03  0.16285401324E+03  0.00000000000E+00 0. -1.
         -5    1    5    5    0  502  0.16245278044E+02  0.29041729006E+02  0.48311776929E+02  0.58851073672E+02  0.47000000000E+01 0.  1.
         11    1    6    6    0    0 -0.28726392728E+02  0.26128600249E+02 -0.35413246653E+02  0.52554804049E+02  0.00000000000E+00 0. -1.
        -12    1    6    6    0    0 -0.22115087560E+02 -0.52942631428E+02 -0.31018592745E+02  0.65223863855E+02  0.00000000000E+00 0.  1.
<mgrwt>
<rscale>  2 0.17582683E+03</rscale>
<asrwt>0</asrwt>
<pdfrwt beam="1">  1       21 0.15763150E-01 0.17586984E+03</pdfrwt>
<pdfrwt beam="2">  1       21 0.66245172E-01 0.17586984E+03</pdfrwt>
<totfact> 0.75469930E+04</totfact>
</mgrwt>
</event>
<event>
12    1  0.1013215E-001  0.1882648E+03  0.7546771E-02  0.1160654E+00
         21   -1    0    0  501  502  0.00000000000E+00  0.00000000000E+00  0.35933697039E+02  0.35933697039E+02  0.00000000000E+00 0.  1.
         21   -1    0    0  502  503 -0.00000000000E+00 -0.00000000000E+00 -0.10348457880E+04  0.10348457880E+04  0.00000000000E+00 0.  1.
         -6    2    1    2    0  503  0.57812295140E+02  0.39637047169E+02 -0.63441307833E+03  0.66175795448E+03  0.17472916009E+03 0.  0.
        -24    2    3    3    0    0  0.96429688712E+02  0.33199078977E+02 -0.58054333999E+03  0.59499876613E+03  0.81191738353E+02 0.  0.
          6    2    1    2  501    0 -0.57812295140E+02 -0.39637047169E+02 -0.36449901268E+03  0.40902153060E+03  0.17183051323E+03 0.  0.
         24    2    5    5    0    0  0.16531906308E+02 -0.66843798684E+02 -0.22776341242E+03  0.25095198263E+03  0.79745396123E+02 0.  0.
          5    1    5    5  501    0 -0.74344201448E+02  0.27206751516E+02 -0.13673560026E+03  0.15806954797E+03  0.47000000000E+01 0. -1.
        -13    1    6    6    0    0  0.84093902893E+01  0.83784401338E+01 -0.11218768804E+03  0.11281397720E+03  0.00000000000E+00 0.  1.
         14    1    6    6    0    0  0.81225160191E+01 -0.75222238818E+02 -0.11557572437E+03  0.13813800543E+03  0.00000000000E+00 0. -1.
         -5    1    3    3    0  503 -0.38617393572E+02  0.64379681924E+01 -0.53869738332E+02  0.66759188347E+02  0.47000000000E+01 0.  1.
         11    1    4    4    0    0  0.27298864406E+02  0.35169579445E+02 -0.99459799802E+02  0.10896962463E+03  0.00000000000E+00 0. -1.
        -12    1    4    4    0    0  0.69130824306E+02 -0.19705004685E+01 -0.48108354019E+03  0.48602914150E+03  0.00000000000E+00 0.  1.
<mgrwt>
<rscale>  2 0.18758940E+03</rscale>
<asrwt>0</asrwt>
<pdfrwt beam="1">  1       21 0.55282608E-02 0.18826480E+03</pdfrwt>
<pdfrwt beam="2">  1       21 0.15920705E+00 0.18826480E+03</pdfrwt>
<totfact> 0.57988674E+04</totfact>
</mgrwt>
</event>
<event>
12    1  0.1013215E-001  0.2156009E+03  0.7546771E-02  0.1138313E+00
         21   -1    0    0  503  502  0.00000000000E+00  0.00000000000E+00  0.29605403083E+02  0.29605403083E+02  0.00000000000E+00 0.  1.
         21   -1    0    0  501  503 -0.00000000000E+00 -0.00000000000E+00 -0.15308127366E+04  0.15308127366E+04  0.00000000000E+00 0.  1.
          6    2    1    2  501    0 -0.91848505487E+02 -0.76192465662E+02 -0.78865890744E+03  0.81759809141E+03  0.17956148533E+03 0.  0.
         24    2    3    3    0    0 -0.13190565992E+03 -0.51703169374E+02 -0.56738995191E+03  0.59135410379E+03  0.87726835672E+02 0.  0.
         -6    2    1    2    0  502  0.91848505487E+02  0.76192465662E+02 -0.71254842608E+03  0.74282004827E+03  0.17266998819E+03 0.  0.
        -24    2    5    5    0    0 -0.12350057310E+02  0.14794249425E+02 -0.24778706467E+03  0.26255731340E+03  0.84655299134E+02 0.  0.
          5    1    3    3  501    0  0.40057154437E+02 -0.24489296288E+02 -0.22126895553E+03  0.22624398763E+03  0.47000000000E+01 0. -1.
        -13    1    4    4    0    0  0.54846118323E+01  0.50459009559E+01 -0.11346435114E+03  0.11370884338E+03  0.00000000000E+00 0.  1.
         14    1    4    4    0    0 -0.13739027176E+03 -0.56749070330E+02 -0.45392560077E+03  0.47764526041E+03  0.00000000000E+00 0. -1.
         -5    1    5    5    0  502  0.10419856280E+03  0.61398216237E+02 -0.46476136141E+03  0.48026273487E+03  0.47000000000E+01 0.  1.
         11    1    6    6    0    0  0.13159408392E+02 -0.30549570785E+02 -0.12155496144E+03  0.12602402531E+03  0.00000000000E+00 0. -1.
        -12    1    6    6    0    0 -0.25509465702E+02  0.45343820210E+02 -0.12623210323E+03  0.13653328810E+03  0.00000000000E+00 0.  1.
<mgrwt>
<rscale>  2 0.21416035E+03</rscale>
<asrwt>0</asrwt>
<pdfrwt beam="1">  1       21 0.45546775E-02 0.21560094E+03</pdfrwt>
<pdfrwt beam="2">  1       21 0.23550964E+00 0.21560094E+03</pdfrwt>
<totfact> 0.25066019E+04</totfact>
</mgrwt>
</event>
