<event>
 4    1  0.4043737E+006  0.8256667E+01  0.7546771E-02  0.2190310E+00
         21   -1    0    0  503  502  0.00000000000E+00  0.00000000000E+00  0.10288609981E+02  0.10288609981E+02  0.00000000000E+00 0. -1.
         21   -1    0    0  501  503 -0.00000000000E+00 -0.00000000000E+00 -0.16509010166E+02  0.16509010166E+02  0.00000000000E+00 0.  1.
          5    1    1    2  501    0  0.26880637131E+01 -0.62335268939E+01 -0.13477123190E+02  0.15805233106E+02  0.47000000000E+01 0.  1.
         -5    1    1    2    0  502 -0.26880637131E+01  0.62335268939E+01  0.72567230053E+01  0.10992387040E+02  0.47000000000E+01 0. -1.
<mgrwt>
<rscale>  2 0.82566666E+01</rscale>
<asrwt>0</asrwt>
<pdfrwt beam="1">  1       21 0.15828631E-02 0.82566666E+01</pdfrwt>
<pdfrwt beam="2">  1       21 0.25398477E-02 0.82566666E+01</pdfrwt>
<totfact> 0.54227818E+08</totfact>
</mgrwt>
</event>
<event>
 4    1  0.4043737E+006  0.6249503E+01  0.7546771E-02  0.2384039E+00
         21   -1    0    0  501  502  0.00000000000E+00  0.00000000000E+00  0.13222359537E+02  0.13222359537E+02  0.00000000000E+00 0. -1.
         21   -1    0    0  502  503 -0.00000000000E+00 -0.00000000000E+00 -0.34910276655E+01  0.34910276655E+01  0.00000000000E+00 0. -1.
          5    1    1    2  501    0  0.41014264298E+01 -0.38025451530E+00  0.81438578094E+01  0.10265413400E+02  0.47000000000E+01 0. -1.
         -5    1    1    2    0  503 -0.41014264298E+01  0.38025451530E+00  0.15874740617E+01  0.64479738021E+01  0.47000000000E+01 0. -1.
<mgrwt>
<rscale>  2 0.62495034E+01</rscale>
<asrwt>0</asrwt>
<pdfrwt beam="1">  1       21 0.20342091E-02 0.62495034E+01</pdfrwt>
<pdfrwt beam="2">  1       21 0.53708119E-03 0.62495034E+01</pdfrwt>
<totfact> 0.28434726E+09</totfact>
</mgrwt>
</event>
<event>
 4    1  0.4043737E+006  0.5105548E+01  0.7546771E-02  0.2548764E+00
         21   -1    0    0  501  502  0.00000000000E+00  0.00000000000E+00  0.84969484739E+00  0.84969484739E+00  0.00000000000E+00 0.  1.
         21   -1    0    0  502  503 -0.00000000000E+00 -0.00000000000E+00 -0.31089066783E+02  0.31089066783E+02  0.00000000000E+00 0.  1.
          5    1    1    2  501    0 -0.19577552552E+01  0.37922932393E+00 -0.13282563782E+02  0.14230007770E+02  0.47000000000E+01 0.  1.
         -5    1    1    2    0  503  0.19577552552E+01 -0.37922932393E+00 -0.16956808153E+02  0.17708753860E+02  0.47000000000E+01 0.  1.
<mgrwt>
<rscale>  2 0.51055480E+01</rscale>
<asrwt>0</asrwt>
<pdfrwt beam="1">  1       21 0.13072227E-03 0.51055480E+01</pdfrwt>
<pdfrwt beam="2">  1       21 0.47829339E-02 0.51055480E+01</pdfrwt>
<totfact> 0.46835037E+09</totfact>
</mgrwt>
</event>
<event>
 4    1  0.4043737E+006  0.4878704E+01  0.7546771E-02  0.2589132E+00
         21   -1    0    0  503  502  0.00000000000E+00  0.00000000000E+00  0.35238995984E-01  0.35238995984E-01  0.00000000000E+00 0. -1.
         21   -1    0    0  501  503 -0.00000000000E+00 -0.00000000000E+00 -0.10588400040E+04  0.10588400040E+04  0.00000000000E+00 0. -1.
          5    1    1    2  501    0  0.39428626721E+00  0.12475147696E+01 -0.84798850414E+03  0.84800253827E+03  0.47000000000E+01 0. -1.
         -5    1    1    2    0  502 -0.39428626721E+00 -0.12475147696E+01 -0.21081626084E+03  0.21087270471E+03  0.47000000000E+01 0. -1.
<mgrwt>
<rscale>  2 0.48787042E+01</rscale>
<asrwt>0</asrwt>
<pdfrwt beam="1">  1       21 0.54217250E-05 0.48787042E+01</pdfrwt>
<pdfrwt beam="2">  1       21 0.16288822E+00 0.48787042E+01</pdfrwt>
<totfact> 0.75063685E+08</totfact>
</mgrwt>
</event>
<event>
 4    1  0.4043737E+006  0.4870858E+01  0.7546771E-02  0.2590586E+00
         21   -1    0    0  501  502  0.00000000000E+00  0.00000000000E+00  0.87759467203E+01  0.87759467203E+01  0.00000000000E+00 0. -1.
         21   -1    0    0  502  503 -0.00000000000E+00 -0.00000000000E+00 -0.13379832667E+02  0.13379832667E+02  0.00000000000E+00 0.  1.
          5    1    1    2  501    0  0.10866488023E-01  0.12787261975E+01  0.75936980784E+01  0.90216134519E+01  0.47000000000E+01 0. -1.
         -5    1    1    2    0  503 -0.10866488023E-01 -0.12787261975E+01 -0.12197584025E+02  0.13134165936E+02  0.47000000000E+01 0.  1.
<mgrwt>
<rscale>  2 0.48708581E+01</rscale>
<asrwt>0</asrwt>
<pdfrwt beam="1">  1       21 0.13501457E-02 0.48708581E+01</pdfrwt>
<pdfrwt beam="2">  1       21 0.20584358E-02 0.48708581E+01</pdfrwt>
<totfact> 0.61613035E+08</totfact>
</mgrwt>
</event>
<event>
 4    1  0.4043737E+006  0.2219828E+02  0.7546771E-02  0.1704845E+00
         21   -1    0    0  503  502  0.00000000000E+00  0.00000000000E+00  0.87930036579E+01  0.87930036579E+01  0.00000000000E+00 0.  1.
         21   -1    0    0  501  503 -0.00000000000E+00 -0.00000000000E+00 -0.12507945441E+03  0.12507945441E+03  0.00000000000E+00 0. -1.
          5    1    1    2  501    0  0.52972682469E+01 -0.21038361763E+02 -0.10787289477E+03  0.11013321544E+03  0.47000000000E+01 0. -1.
         -5    1    1    2    0  502 -0.52972682469E+01  0.21038361763E+02 -0.84135559867E+01  0.23739242635E+02  0.47000000000E+01 0.  1.
<mgrwt>
<rscale>  2 0.22198282E+02</rscale>
<asrwt>0</asrwt>
<pdfrwt beam="1">  1       21 0.13527699E-02 0.22198282E+02</pdfrwt>
<pdfrwt beam="2">  1       21 0.19242991E-01 0.22198282E+02</pdfrwt>
<totfact> 0.41398649E+07</totfact>
</mgrwt>
</event>
<event>
 4    1  0.4043737E+006  0.6558781E+01  0.7546771E-02  0.2347916E+00
         21   -1    0    0  501  502  0.00000000000E+00  0.00000000000E+00  0.53472154209E+00  0.53472154209E+00  0.00000000000E+00 0. -1.
         21   -1    0    0  502  503 -0.00000000000E+00 -0.00000000000E+00 -0.23835705353E+03  0.23835705353E+03  0.00000000000E+00 0.  1.
          5    1    1    2  501    0 -0.22949291233E+01  0.39573871997E+01 -0.21690217747E+02  0.22660166792E+02  0.47000000000E+01 0. -1.
         -5    1    1    2    0  503  0.22949291233E+01 -0.39573871997E+01 -0.21613211424E+03  0.21623160828E+03  0.47000000000E+01 0.  1.
<mgrwt>
<rscale>  2 0.65587814E+01</rscale>
<asrwt>0</asrwt>
<pdfrwt beam="1">  1       21 0.82265104E-04 0.65587814E+01</pdfrwt>
<pdfrwt beam="2">  1       21 0.36670204E-01 0.65587814E+01</pdfrwt>
<totfact> 0.43746029E+08</totfact>
</mgrwt>
</event>
<event>
 4    1  0.4043737E+006  0.5279290E+01  0.7546771E-02  0.2519871E+00
         21   -1    0    0  503  502  0.00000000000E+00  0.00000000000E+00  0.19018775940E+02  0.19018775940E+02  0.00000000000E+00 0.  1.
         21   -1    0    0  501  503 -0.00000000000E+00 -0.00000000000E+00 -0.15371623673E+02  0.15371623673E+02  0.00000000000E+00 0.  1.
          5    1    1    2  501    0 -0.24020704785E+01  0.10470704247E+00 -0.14531452543E+02  0.15460725052E+02  0.47000000000E+01 0.  1.
         -5    1    1    2    0  502  0.24020704785E+01 -0.10470704247E+00  0.18178604809E+02  0.18929674560E+02  0.47000000000E+01 0.  1.
<mgrwt>
<rscale>  2 0.52792903E+01</rscale>
<asrwt>0</asrwt>
<pdfrwt beam="1">  1       21 0.29259655E-02 0.52792903E+01</pdfrwt>
<pdfrwt beam="2">  1       21 0.23648652E-02 0.52792903E+01</pdfrwt>
<totfact> 0.18090983E+08</totfact>
</mgrwt>
</event>
<event>
 4    1  0.4043737E+006  0.5819120E+01  0.7546771E-02  0.2439577E+00
         21   -1    0    0  501  502  0.00000000000E+00  0.00000000000E+00  0.54268818462E-01  0.54268818462E-01  0.00000000000E+00 0. -1.
         21   -1    0    0  502  503 -0.00000000000E+00 -0.00000000000E+00 -0.62430009680E+03  0.62430009680E+03  0.00000000000E+00 0. -1.
          5    1    1    2  501    0  0.28228010245E+01  0.19503730139E+01 -0.31929207754E+03  0.31934510007E+03  0.47000000000E+01 0. -1.
         -5    1    1    2    0  503 -0.28228010245E+01 -0.19503730139E+01 -0.30495375045E+03  0.30500926555E+03  0.47000000000E+01 0. -1.
<mgrwt>
<rscale>  2 0.58191203E+01</rscale>
<asrwt>0</asrwt>
<pdfrwt beam="1">  1       21 0.83487537E-05 0.58191203E+01</pdfrwt>
<pdfrwt beam="2">  1       21 0.96049566E-01 0.58191203E+01</pdfrwt>
<totfact> 0.14311525E+09</totfact>
</mgrwt>
</event>
<event>
 4    1  0.4043737E+006  0.5786653E+01  0.7546771E-02  0.2444046E+00
         21   -1    0    0  503  502  0.00000000000E+00  0.00000000000E+00  0.56127973066E+01  0.56127973066E+01  0.00000000000E+00 0. -1.
         21   -1    0    0  501  503 -0.00000000000E+00 -0.00000000000E+00 -0.85307814029E+01  0.85307814029E+01  0.00000000000E+00 0.  1.
          5    1    1    2  501    0 -0.26841215890E+01 -0.20471555301E+01 -0.53366460155E+01  0.78717942785E+01  0.47000000000E+01 0.  1.
         -5    1    1    2    0  502  0.26841215890E+01  0.20471555301E+01  0.24186619192E+01  0.62717844309E+01  0.47000000000E+01 0. -1.
<mgrwt>
<rscale>  2 0.57866531E+01</rscale>
<asrwt>0</asrwt>
<pdfrwt beam="1">  1       21 0.86350728E-03 0.57866531E+01</pdfrwt>
<pdfrwt beam="2">  1       21 0.13124279E-02 0.57866531E+01</pdfrwt>
<totfact> 0.25574554E+09</totfact>
</mgrwt>
</event>
<event>
 4    1  0.4043737E+006  0.7064857E+01  0.7546771E-02  0.2294504E+00
         21   -1    0    0  501  502  0.00000000000E+00  0.00000000000E+00  0.77774954937E+00  0.77774954937E+00  0.00000000000E+00 0.  1.
         21   -1    0    0  502  503 -0.00000000000E+00 -0.00000000000E+00 -0.83968607119E+02  0.83968607119E+02  0.00000000000E+00 0.  1.
          5    1    1    2  501    0  0.26452577538E+01 -0.45634218117E+01 -0.21022638117E+02  0.22177996317E+02  0.47000000000E+01 0.  1.
         -5    1    1    2    0  503 -0.26452577538E+01  0.45634218117E+01 -0.62168219452E+02  0.62568360352E+02  0.47000000000E+01 0.  1.
<mgrwt>
<rscale>  2 0.70648572E+01</rscale>
<asrwt>0</asrwt>
<pdfrwt beam="1">  1       21 0.11965375E-03 0.70648572E+01</pdfrwt>
<pdfrwt beam="2">  1       21 0.12918251E-01 0.70648572E+01</pdfrwt>
<totfact> 0.15484420E+09</totfact>
</mgrwt>
</event>
<event>
 4    1  0.4043737E+006  0.9752293E+01  0.7546771E-02  0.2089365E+00
         21   -1    0    0  501  502  0.00000000000E+00  0.00000000000E+00  0.16684064359E+02  0.16684064359E+02  0.00000000000E+00 0.  1.
         21   -1    0    0  502  503 -0.00000000000E+00 -0.00000000000E+00 -0.10791907028E+02  0.10791907028E+02  0.00000000000E+00 0. -1.
          5    1    1    2  501    0  0.52468585857E+01 -0.67444566299E+01  0.12382202003E+02  0.15761540112E+02  0.47000000000E+01 0.  1.
         -5    1    1    2    0  503 -0.52468585857E+01  0.67444566299E+01 -0.64900446722E+01  0.11714431275E+02  0.47000000000E+01 0. -1.
<mgrwt>
<rscale>  2 0.97522931E+01</rscale>
<asrwt>0</asrwt>
<pdfrwt beam="1">  1       21 0.25667791E-02 0.97522931E+01</pdfrwt>
<pdfrwt beam="2">  1       21 0.16602934E-02 0.97522931E+01</pdfrwt>
<totfact> 0.54979821E+08</totfact>
</mgrwt>
</event>
<event>
 4    1  0.4043737E+006  0.9589997E+01  0.7546771E-02  0.2099101E+00
         21   -1    0    0  501  502  0.00000000000E+00  0.00000000000E+00  0.28480222324E+02  0.28480222324E+02  0.00000000000E+00 0.  1.
         21   -1    0    0  502  503 -0.00000000000E+00 -0.00000000000E+00 -0.32984256899E+01  0.32984256899E+01  0.00000000000E+00 0.  1.
          5    1    1    2  501    0  0.72118931369E+01 -0.42268945265E+01  0.14892966012E+02  0.17713511131E+02  0.47000000000E+01 0.  1.
         -5    1    1    2    0  503 -0.72118931369E+01  0.42268945265E+01  0.10288830622E+02  0.14065136882E+02  0.47000000000E+01 0.  1.
<mgrwt>
<rscale>  2 0.95899969E+01</rscale>
<asrwt>0</asrwt>
<pdfrwt beam="1">  1       21 0.43815725E-02 0.95899969E+01</pdfrwt>
<pdfrwt beam="2">  1       21 0.50745012E-03 0.95899969E+01</pdfrwt>
<totfact> 0.13527620E+09</totfact>
</mgrwt>
</event>
<event>
 4    1  0.4043737E+006  0.6833506E+01  0.7546771E-02  0.2318113E+00
         21   -1    0    0  503  502  0.00000000000E+00  0.00000000000E+00  0.49488436680E+02  0.49488436680E+02  0.00000000000E+00 0. -1.
         21   -1    0    0  501  503 -0.00000000000E+00 -0.00000000000E+00 -0.94718746380E+00  0.94718746380E+00  0.00000000000E+00 0. -1.
          5    1    1    2  501    0  0.47787205161E+01 -0.13306505489E+01  0.25824726516E+02  0.26713541515E+02  0.47000000000E+01 0. -1.
         -5    1    1    2    0  502 -0.47787205161E+01  0.13306505489E+01  0.22716522701E+02  0.23722082629E+02  0.47000000000E+01 0. -1.
<mgrwt>
<rscale>  2 0.68335057E+01</rscale>
<asrwt>0</asrwt>
<pdfrwt beam="1">  1       21 0.76136036E-02 0.68335057E+01</pdfrwt>
<pdfrwt beam="2">  1       21 0.14572119E-03 0.68335057E+01</pdfrwt>
<totfact> 0.26226076E+09</totfact>
</mgrwt>
</event>
<event>
 4    1  0.4043737E+006  0.7244633E+01  0.7546771E-02  0.2277016E+00
         21   -1    0    0  501  502  0.00000000000E+00  0.00000000000E+00  0.21055681837E+00  0.21055681837E+00  0.00000000000E+00 0.  1.
         21   -1    0    0  502  503 -0.00000000000E+00 -0.00000000000E+00 -0.25016732274E+03  0.25016732274E+03  0.00000000000E+00 0.  1.
          5    1    1    2  501    0 -0.88908404508E+00 -0.54409770371E+01 -0.11746494728E+03  0.11768814104E+03  0.47000000000E+01 0.  1.
         -5    1    1    2    0  503  0.88908404508E+00  0.54409770371E+01 -0.13249181865E+03  0.13268973853E+03  0.47000000000E+01 0.  1.
<mgrwt>
<rscale>  2 0.72446326E+01</rscale>
<asrwt>0</asrwt>
<pdfrwt beam="1">  1       21 0.32393327E-04 0.72446326E+01</pdfrwt>
<pdfrwt beam="2">  1       21 0.38487316E-01 0.72446326E+01</pdfrwt>
<totfact> 0.15064118E+09</totfact>
</mgrwt>
</event>
<event>
 4    1  0.4043737E+006  0.4756519E+01  0.7546771E-02  0.2612248E+00
         21   -1    0    0  503  502  0.00000000000E+00  0.00000000000E+00  0.73126032549E+00  0.73126032549E+00  0.00000000000E+00 0.  1.
         21   -1    0    0  501  503 -0.00000000000E+00 -0.00000000000E+00 -0.30943764768E+02  0.30943764768E+02  0.00000000000E+00 0.  1.
          5    1    1    2  501    0  0.24550947879E+00  0.68862327039E+00 -0.15302391975E+02  0.16024596004E+02  0.47000000000E+01 0.  1.
         -5    1    1    2    0  502 -0.24550947879E+00 -0.68862327039E+00 -0.14910112467E+02  0.15650429090E+02  0.47000000000E+01 0.  1.
<mgrwt>
<rscale>  2 0.47565194E+01</rscale>
<asrwt>0</asrwt>
<pdfrwt beam="1">  1       21 0.11250157E-03 0.47565194E+01</pdfrwt>
<pdfrwt beam="2">  1       21 0.47605799E-02 0.47565194E+01</pdfrwt>
<totfact> 0.53432144E+09</totfact>
</mgrwt>
</event>
<event>
 4    1  0.4043737E+006  0.5939421E+01  0.7546771E-02  0.2423375E+00
         21   -1    0    0  501  502  0.00000000000E+00  0.00000000000E+00  0.11173231240E+03  0.11173231240E+03  0.00000000000E+00 0. -1.
         21   -1    0    0  502  503 -0.00000000000E+00 -0.00000000000E+00 -0.71893081669E+00  0.71893081669E+00  0.00000000000E+00 0. -1.
          5    1    1    2  501    0  0.15339579744E+01 -0.32914573953E+01  0.97613656201E+02  0.97794184877E+02  0.47000000000E+01 0. -1.
         -5    1    1    2    0  503 -0.15339579744E+01  0.32914573953E+01  0.13399725384E+02  0.14657058341E+02  0.47000000000E+01 0. -1.
<mgrwt>
<rscale>  2 0.59394208E+01</rscale>
<asrwt>0</asrwt>
<pdfrwt beam="1">  1       21 0.17189573E-01 0.59394208E+01</pdfrwt>
<pdfrwt beam="2">  1       21 0.11060483E-03 0.59394208E+01</pdfrwt>
<totfact> 0.96078789E+08</totfact>
</mgrwt>
</event>
<event>
 4    1  0.4043737E+006  0.7018178E+01  0.7546771E-02  0.2299165E+00
         21   -1    0    0  501  502  0.00000000000E+00  0.00000000000E+00  0.19250707028E+02  0.19250707028E+02  0.00000000000E+00 0. -1.
         21   -1    0    0  502  503 -0.00000000000E+00 -0.00000000000E+00 -0.36221093943E+01  0.36221093943E+01  0.00000000000E+00 0.  1.
          5    1    1    2  501    0  0.51499339018E+01 -0.80187525776E+00  0.14011276228E+02  0.15670695092E+02  0.47000000000E+01 0. -1.
         -5    1    1    2    0  503 -0.51499339018E+01  0.80187525776E+00  0.16173214049E+01  0.72021213298E+01  0.47000000000E+01 0.  1.
<mgrwt>
<rscale>  2 0.70181780E+01</rscale>
<asrwt>0</asrwt>
<pdfrwt beam="1">  1       21 0.29616472E-02 0.70181780E+01</pdfrwt>
<pdfrwt beam="2">  1       21 0.55724761E-03 0.70181780E+01</pdfrwt>
<totfact> 0.17174748E+09</totfact>
</mgrwt>
</event>
<event>
 4    1  0.4043737E+006  0.7417177E+01  0.7546771E-02  0.2260884E+00
         21   -1    0    0  501  502  0.00000000000E+00  0.00000000000E+00  0.11278206416E+03  0.11278206416E+03  0.00000000000E+00 0. -1.
         21   -1    0    0  502  503 -0.00000000000E+00 -0.00000000000E+00 -0.67648624424E+00  0.67648624424E+00  0.00000000000E+00 0.  1.
          5    1    1    2  501    0  0.52029782800E+01  0.24194061005E+01  0.86013616786E+02  0.86332825632E+02  0.47000000000E+01 0.  1.
         -5    1    1    2    0  503 -0.52029782800E+01 -0.24194061005E+01  0.26091961128E+02  0.27125724771E+02  0.47000000000E+01 0.  1.
<mgrwt>
<rscale>  2 0.74171766E+01</rscale>
<asrwt>0</asrwt>
<pdfrwt beam="1">  1       21 0.17351072E-01 0.74171766E+01</pdfrwt>
<pdfrwt beam="2">  1       21 0.10407490E-03 0.74171766E+01</pdfrwt>
<totfact> 0.12085631E+09</totfact>
</mgrwt>
</event>
<event>
 4    1  0.4043737E+006  0.5537266E+01  0.7546771E-02  0.2479844E+00
         21   -1    0    0  503  502  0.00000000000E+00  0.00000000000E+00  0.31173694784E+02  0.31173694784E+02  0.00000000000E+00 0.  1.
         21   -1    0    0  501  503 -0.00000000000E+00 -0.00000000000E+00 -0.25296276378E+01  0.25296276378E+01  0.00000000000E+00 0.  1.
          5    1    1    2  501    0 -0.19856257657E+01 -0.21514194662E+01  0.11477155759E+01  0.56549594556E+01  0.47000000000E+01 0.  1.
         -5    1    1    2    0  502  0.19856257657E+01  0.21514194662E+01  0.27496351571E+02  0.28048362967E+02  0.47000000000E+01 0.  1.
<mgrwt>
<rscale>  2 0.55372661E+01</rscale>
<asrwt>0</asrwt>
<pdfrwt beam="1">  1       21 0.47959528E-02 0.55372661E+01</pdfrwt>
<pdfrwt beam="2">  1       21 0.38917351E-03 0.55372661E+01</pdfrwt>
<totfact> 0.11495979E+09</totfact>
</mgrwt>
</event>
<event>
 4    1  0.4043737E+006  0.6718843E+01  0.7546771E-02  0.2330308E+00
         21   -1    0    0  503  502  0.00000000000E+00  0.00000000000E+00  0.46463643909E+02  0.46463643909E+02  0.00000000000E+00 0.  1.
         21   -1    0    0  501  503 -0.00000000000E+00 -0.00000000000E+00 -0.97219172265E+00  0.97219172265E+00  0.00000000000E+00 0. -1.
          5    1    1    2  501    0  0.28206107655E+01  0.38854868984E+01  0.22147714506E+02  0.23144418579E+02  0.47000000000E+01 0. -1.
         -5    1    1    2    0  502 -0.28206107655E+01 -0.38854868984E+01  0.23343737680E+02  0.24291417052E+02  0.47000000000E+01 0. -1.
<mgrwt>
<rscale>  2 0.67188432E+01</rscale>
<asrwt>0</asrwt>
<pdfrwt beam="1">  1       21 0.71482512E-02 0.67188432E+01</pdfrwt>
<pdfrwt beam="2">  1       21 0.14956799E-03 0.67188432E+01</pdfrwt>
<totfact> 0.27496312E+09</totfact>
</mgrwt>
</event>
<event>
 4    1  0.4043737E+006  0.6526986E+01  0.7546771E-02  0.2351498E+00
         21   -1    0    0  501  502  0.00000000000E+00  0.00000000000E+00  0.23206737444E+02  0.23206737444E+02  0.00000000000E+00 0.  1.
         21   -1    0    0  502  503 -0.00000000000E+00 -0.00000000000E+00 -0.20986435126E+01  0.20986435126E+01  0.00000000000E+00 0. -1.
          5    1    1    2  501    0 -0.44094724080E+01  0.10334880727E+01  0.15032329047E+02  0.16388180531E+02  0.47000000000E+01 0.  1.
         -5    1    1    2    0  503  0.44094724080E+01 -0.10334880727E+01  0.60757648841E+01  0.89172004261E+01  0.47000000000E+01 0. -1.
<mgrwt>
<rscale>  2 0.65269859E+01</rscale>
<asrwt>0</asrwt>
<pdfrwt beam="1">  1       21 0.35702671E-02 0.65269859E+01</pdfrwt>
<pdfrwt beam="2">  1       21 0.32286825E-03 0.65269859E+01</pdfrwt>
<totfact> 0.26375686E+09</totfact>
</mgrwt>
</event>
<event>
 4    1  0.4043737E+006  0.7087681E+01  0.7546771E-02  0.2292244E+00
         21   -1    0    0  503  502  0.00000000000E+00  0.00000000000E+00  0.11613779246E+01  0.11613779246E+01  0.00000000000E+00 0. -1.
         21   -1    0    0  501  503 -0.00000000000E+00 -0.00000000000E+00 -0.54730532791E+02  0.54730532791E+02  0.00000000000E+00 0.  1.
          5    1    1    2  501    0 -0.46193931037E+01 -0.26089140017E+01 -0.39581143390E+02  0.40210721667E+02  0.47000000000E+01 0.  1.
         -5    1    1    2    0  502  0.46193931037E+01  0.26089140017E+01 -0.13988011476E+02  0.15681189049E+02  0.47000000000E+01 0. -1.
<mgrwt>
<rscale>  2 0.70876812E+01</rscale>
<asrwt>0</asrwt>
<pdfrwt beam="1">  1       21 0.17867348E-03 0.70876812E+01</pdfrwt>
<pdfrwt beam="2">  1       21 0.84200843E-02 0.70876812E+01</pdfrwt>
<totfact> 0.17489537E+09</totfact>
</mgrwt>
</event>
<event>
 4    1  0.4043737E+006  0.5216210E+01  0.7546771E-02  0.2530171E+00
         21   -1    0    0  501  502  0.00000000000E+00  0.00000000000E+00  0.11488526316E+03  0.11488526316E+03  0.00000000000E+00 0.  1.
         21   -1    0    0  502  503 -0.00000000000E+00 -0.00000000000E+00 -0.23889095875E+00  0.23889095875E+00  0.00000000000E+00 0. -1.
          5    1    1    2  501    0  0.67701236716E+00  0.21588191210E+01  0.51983092025E+02  0.52244145148E+02  0.47000000000E+01 0.  1.
         -5    1    1    2    0  503 -0.67701236716E+00 -0.21588191210E+01  0.62663280178E+02  0.62880008973E+02  0.47000000000E+01 0.  1.
<mgrwt>
<rscale>  2 0.52162099E+01</rscale>
<asrwt>0</asrwt>
<pdfrwt beam="1">  1       21 0.17674612E-01 0.52162099E+01</pdfrwt>
<pdfrwt beam="2">  1       21 0.36752547E-04 0.52162099E+01</pdfrwt>
<totfact> 0.35751657E+09</totfact>
</mgrwt>
</event>
<event>
 4    1  0.4043737E+006  0.6660076E+01  0.7546771E-02  0.2336691E+00
         21   -1    0    0  501  502  0.00000000000E+00  0.00000000000E+00  0.12701817215E+04  0.12701817215E+04  0.00000000000E+00 0. -1.
         21   -1    0    0  502  503 -0.00000000000E+00 -0.00000000000E+00 -0.63104758636E+00  0.63104758636E+00  0.00000000000E+00 0.  1.
          5    1    1    2  501    0  0.41261331526E+01 -0.22894635776E+01  0.12523501735E+04  0.12523678828E+04  0.47000000000E+01 0. -1.
         -5    1    1    2    0  503 -0.41261331526E+01  0.22894635776E+01  0.17200500374E+02  0.18444886321E+02  0.47000000000E+01 0.  1.
<mgrwt>
<rscale>  2 0.66600764E+01</rscale>
<asrwt>0</asrwt>
<pdfrwt beam="1">  1       21 0.19541053E+00 0.66600764E+01</pdfrwt>
<pdfrwt beam="2">  1       21 0.97085260E-04 0.66600764E+01</pdfrwt>
<totfact> 0.12767605E+07</totfact>
</mgrwt>
</event>
<event>
 4    1  0.4043737E+006  0.8859449E+01  0.7546771E-02  0.2146372E+00
         21   -1    0    0  501  502  0.00000000000E+00  0.00000000000E+00  0.54656510896E+01  0.54656510896E+01  0.00000000000E+00 0. -1.
         21   -1    0    0  502  503 -0.00000000000E+00 -0.00000000000E+00 -0.17991427877E+02  0.17991427877E+02  0.00000000000E+00 0.  1.
          5    1    1    2  501    0  0.55394418003E+01  0.50709381890E+01 -0.99403479569E+00  0.89150398065E+01  0.47000000000E+01 0. -1.
         -5    1    1    2    0  503 -0.55394418003E+01 -0.50709381890E+01 -0.11531741992E+02  0.14542039161E+02  0.47000000000E+01 0.  1.
<mgrwt>
<rscale>  2 0.88594486E+01</rscale>
<asrwt>0</asrwt>
<pdfrwt beam="1">  1       21 0.84086939E-03 0.88594486E+01</pdfrwt>
<pdfrwt beam="2">  1       21 0.27679120E-02 0.88594486E+01</pdfrwt>
<totfact> 0.12452684E+09</totfact>
</mgrwt>
</event>
<event>
 4    1  0.4043737E+006  0.1703273E+02  0.7546771E-02  0.1811712E+00
         21   -1    0    0  503  502  0.00000000000E+00  0.00000000000E+00  0.12851059765E+01  0.12851059765E+01  0.00000000000E+00 0. -1.
         21   -1    0    0  501  503 -0.00000000000E+00 -0.00000000000E+00 -0.23135464233E+03  0.23135464233E+03  0.00000000000E+00 0.  1.
          5    1    1    2  501    0 -0.86686795488E+01 -0.13888050807E+02 -0.13313774465E+03  0.13422284831E+03  0.47000000000E+01 0.  1.
         -5    1    1    2    0  502  0.86686795488E+01  0.13888050807E+02 -0.96931791710E+02  0.98416899994E+02  0.47000000000E+01 0. -1.
<mgrwt>
<rscale>  2 0.17032732E+02</rscale>
<asrwt>0</asrwt>
<pdfrwt beam="1">  1       21 0.19770865E-03 0.17032732E+02</pdfrwt>
<pdfrwt beam="2">  1       21 0.35593014E-01 0.17032732E+02</pdfrwt>
<totfact> 0.21591897E+08</totfact>
</mgrwt>
</event>
<event>
 4    1  0.4043737E+006  0.8435520E+01  0.7546771E-02  0.2176750E+00
         21   -1    0    0  501  502  0.00000000000E+00  0.00000000000E+00  0.18005405788E+03  0.18005405788E+03  0.00000000000E+00 0.  1.
         21   -1    0    0  502  503 -0.00000000000E+00 -0.00000000000E+00 -0.40186142194E+00  0.40186142194E+00  0.00000000000E+00 0. -1.
          5    1    1    2  501    0  0.69190409865E+01 -0.10931007709E+01  0.78212369567E+02  0.78665956746E+02  0.47000000000E+01 0. -1.
         -5    1    1    2    0  503 -0.69190409865E+01  0.10931007709E+01  0.10143982689E+03  0.10178996256E+03  0.47000000000E+01 0.  1.
<mgrwt>
<rscale>  2 0.84355200E+01</rscale>
<asrwt>0</asrwt>
<pdfrwt beam="1">  1       21 0.27700560E-01 0.84355200E+01</pdfrwt>
<pdfrwt beam="2">  1       21 0.61824978E-04 0.84355200E+01</pdfrwt>
<totfact> 0.12253950E+09</totfact>
</mgrwt>
</event>
<event>
 4    1  0.4043737E+006  0.7784464E+01  0.7546771E-02  0.2228494E+00
         21   -1    0    0  501  502  0.00000000000E+00  0.00000000000E+00  0.17207281923E+01  0.17207281923E+01  0.00000000000E+00 0. -1.
         21   -1    0    0  502  503 -0.00000000000E+00 -0.00000000000E+00 -0.51517982889E+02  0.51517982889E+02  0.00000000000E+00 0.  1.
          5    1    1    2  501    0  0.40955138186E+01  0.46620425369E+01 -0.99247996443E+01  0.12613465901E+02  0.47000000000E+01 0. -1.
         -5    1    1    2    0  503 -0.40955138186E+01 -0.46620425369E+01 -0.39872455052E+02  0.40625245180E+02  0.47000000000E+01 0.  1.
<mgrwt>
<rscale>  2 0.77844636E+01</rscale>
<asrwt>0</asrwt>
<pdfrwt beam="1">  1       21 0.26472738E-03 0.77844636E+01</pdfrwt>
<pdfrwt beam="2">  1       21 0.79258445E-02 0.77844636E+01</pdfrwt>
<totfact> 0.11930322E+09</totfact>
</mgrwt>
</event>
<event>
 4    1  0.4043737E+006  0.1458777E+02  0.7546771E-02  0.1880915E+00
         21   -1    0    0  503  502  0.00000000000E+00  0.00000000000E+00  0.52875278388E+02  0.52875278388E+02  0.00000000000E+00 0.  1.
         21   -1    0    0  501  503 -0.00000000000E+00 -0.00000000000E+00 -0.61918782453E+01  0.61918782453E+01  0.00000000000E+00 0. -1.
          5    1    1    2  501    0 -0.13208556520E+02 -0.40307478868E+01  0.58689922460E+01  0.15724120447E+02  0.47000000000E+01 0. -1.
         -5    1    1    2    0  502  0.13208556520E+02  0.40307478868E+01  0.40814407896E+02  0.43343036186E+02  0.47000000000E+01 0.  1.
<mgrwt>
<rscale>  2 0.14587765E+02</rscale>
<asrwt>0</asrwt>
<pdfrwt beam="1">  1       21 0.81346579E-02 0.14587765E+02</pdfrwt>
<pdfrwt beam="2">  1       21 0.95259669E-03 0.14587765E+02</pdfrwt>
<totfact> 0.25561065E+08</totfact>
</mgrwt>
</event>
<event>
 4    1  0.4043737E+006  0.5598959E+01  0.7546771E-02  0.2470738E+00
         21   -1    0    0  501  502  0.00000000000E+00  0.00000000000E+00  0.62663864954E+01  0.62663864954E+01  0.00000000000E+00 0. -1.
         21   -1    0    0  502  503 -0.00000000000E+00 -0.00000000000E+00 -0.55490722510E+01  0.55490722510E+01  0.00000000000E+00 0.  1.
          5    1    1    2  501    0  0.11835064984E+01  0.28031497792E+01  0.22125618250E+01  0.60202795737E+01  0.47000000000E+01 0. -1.
         -5    1    1    2    0  503 -0.11835064984E+01 -0.28031497792E+01 -0.14952475806E+01  0.57951791727E+01  0.47000000000E+01 0.  1.
<mgrwt>
<rscale>  2 0.55989585E+01</rscale>
<asrwt>0</asrwt>
<pdfrwt beam="1">  1       21 0.96405947E-03 0.55989585E+01</pdfrwt>
<pdfrwt beam="2">  1       21 0.85370342E-03 0.55989585E+01</pdfrwt>
<totfact> 0.38955102E+09</totfact>
</mgrwt>
</event>
<event>
 4    1  0.4043737E+006  0.5122636E+01  0.7546771E-02  0.2545848E+00
         21   -1    0    0  503  502  0.00000000000E+00  0.00000000000E+00  0.13685129371E+03  0.13685129371E+03  0.00000000000E+00 0. -1.
         21   -1    0    0  501  503 -0.00000000000E+00 -0.00000000000E+00 -0.36928782813E+00  0.36928782813E+00  0.00000000000E+00 0. -1.
          5    1    1    2  501    0  0.78441560182E+00  0.18804487347E+01  0.20669071194E+02  0.21294410048E+02  0.47000000000E+01 0. -1.
         -5    1    1    2    0  502 -0.78441560182E+00 -0.18804487347E+01  0.11581293469E+03  0.11592617149E+03  0.47000000000E+01 0. -1.
<mgrwt>
<rscale>  2 0.51226356E+01</rscale>
<asrwt>0</asrwt>
<pdfrwt beam="1">  1       21 0.21054005E-01 0.51226356E+01</pdfrwt>
<pdfrwt beam="2">  1       21 0.56813621E-04 0.51226356E+01</pdfrwt>
<totfact> 0.14932425E+09</totfact>
</mgrwt>
</event>
<event>
 4    1  0.4043737E+006  0.8156743E+01  0.7546771E-02  0.2198092E+00
         21   -1    0    0  501  502  0.00000000000E+00  0.00000000000E+00  0.22185664178E+02  0.22185664178E+02  0.00000000000E+00 0. -1.
         21   -1    0    0  502  503 -0.00000000000E+00 -0.00000000000E+00 -0.32001130942E+01  0.32001130942E+01  0.00000000000E+00 0. -1.
          5    1    1    2  501    0  0.64559793139E+01 -0.16621622740E+01  0.12675598927E+02  0.15073263100E+02  0.47000000000E+01 0. -1.
         -5    1    1    2    0  503 -0.64559793139E+01  0.16621622740E+01  0.63099521565E+01  0.10312514172E+02  0.47000000000E+01 0. -1.
<mgrwt>
<rscale>  2 0.81567428E+01</rscale>
<asrwt>0</asrwt>
<pdfrwt beam="1">  1       21 0.34131790E-02 0.81567428E+01</pdfrwt>
<pdfrwt beam="2">  1       21 0.49232510E-03 0.81567428E+01</pdfrwt>
<totfact> 0.18497456E+09</totfact>
</mgrwt>
</event>
<event>
 4    1  0.4043737E+006  0.6160751E+01  0.7546771E-02  0.2394960E+00
         21   -1    0    0  501  502  0.00000000000E+00  0.00000000000E+00  0.37102204324E+01  0.37102204324E+01  0.00000000000E+00 0.  1.
         21   -1    0    0  502  503 -0.00000000000E+00 -0.00000000000E+00 -0.94264845913E+02  0.94264845913E+02  0.00000000000E+00 0. -1.
          5    1    1    2  501    0 -0.35472780898E+01 -0.18115388801E+01  0.97579105486E+00  0.62375494501E+01  0.47000000000E+01 0.  1.
         -5    1    1    2    0  503  0.35472780898E+01  0.18115388801E+01 -0.91530416536E+02  0.91737516896E+02  0.47000000000E+01 0. -1.
<mgrwt>
<rscale>  2 0.61607512E+01</rscale>
<asrwt>0</asrwt>
<pdfrwt beam="1">  1       21 0.57080322E-03 0.61607512E+01</pdfrwt>
<pdfrwt beam="2">  1       21 0.14502282E-01 0.61607512E+01</pdfrwt>
<totfact> 0.13654721E+08</totfact>
</mgrwt>
</event>
<event>
 4    1  0.4043737E+006  0.8420731E+01  0.7546771E-02  0.2177853E+00
         21   -1    0    0  503  502  0.00000000000E+00  0.00000000000E+00  0.13109930207E+02  0.13109930207E+02  0.00000000000E+00 0.  1.
         21   -1    0    0  501  503 -0.00000000000E+00 -0.00000000000E+00 -0.11214916801E+02  0.11214916801E+02  0.00000000000E+00 0.  1.
          5    1    1    2  501    0  0.58201263317E+01 -0.38658551763E+01 -0.78036565832E+01  0.11480669093E+02  0.47000000000E+01 0.  1.
         -5    1    1    2    0  502 -0.58201263317E+01  0.38658551763E+01  0.96986699893E+01  0.12844177915E+02  0.47000000000E+01 0.  1.
<mgrwt>
<rscale>  2 0.84207308E+01</rscale>
<asrwt>0</asrwt>
<pdfrwt beam="1">  1       21 0.20169123E-02 0.84207308E+01</pdfrwt>
<pdfrwt beam="2">  1       21 0.17253718E-02 0.84207308E+01</pdfrwt>
<totfact> 0.67959366E+08</totfact>
</mgrwt>
</event>
<event>
 4    1  0.4043737E+006  0.5683760E+01  0.7546771E-02  0.2458494E+00
         21   -1    0    0  503  502  0.00000000000E+00  0.00000000000E+00  0.12113459698E+03  0.12113459698E+03  0.00000000000E+00 0. -1.
         21   -1    0    0  501  503 -0.00000000000E+00 -0.00000000000E+00 -0.41532817404E+00  0.41532817404E+00  0.00000000000E+00 0. -1.
          5    1    1    2  501    0 -0.86787355930E+00  0.30760244535E+01  0.24001862859E+02  0.24665655306E+02  0.47000000000E+01 0. -1.
         -5    1    1    2    0  502  0.86787355930E+00 -0.30760244535E+01  0.96717405951E+02  0.96884269852E+02  0.47000000000E+01 0. -1.
<mgrwt>
<rscale>  2 0.56837603E+01</rscale>
<asrwt>0</asrwt>
<pdfrwt beam="1">  1       21 0.18636064E-01 0.56837603E+01</pdfrwt>
<pdfrwt beam="2">  1       21 0.63896739E-04 0.56837603E+01</pdfrwt>
<totfact> 0.16995519E+09</totfact>
</mgrwt>
</event>
<event>
 4    1  0.4043737E+006  0.1043626E+02  0.7546771E-02  0.2050978E+00
         21   -1    0    0  503  502  0.00000000000E+00  0.00000000000E+00  0.29614857721E+01  0.29614857721E+01  0.00000000000E+00 0.  1.
         21   -1    0    0  501  503 -0.00000000000E+00 -0.00000000000E+00 -0.63398827148E+02  0.63398827148E+02  0.00000000000E+00 0. -1.
          5    1    1    2  501    0  0.85181780980E+01  0.37770476347E+01 -0.51719455403E+02  0.52761894528E+02  0.47000000000E+01 0. -1.
         -5    1    1    2    0  502 -0.85181780980E+01 -0.37770476347E+01 -0.87178859729E+01  0.13598418393E+02  0.47000000000E+01 0.  1.
<mgrwt>
<rscale>  2 0.10436256E+02</rscale>
<asrwt>0</asrwt>
<pdfrwt beam="1">  1       21 0.45561316E-03 0.10436256E+02</pdfrwt>
<pdfrwt beam="2">  1       21 0.97536666E-02 0.10436256E+02</pdfrwt>
<totfact> 0.47774634E+08</totfact>
</mgrwt>
</event>
<event>
 4    1  0.4043737E+006  0.5356378E+01  0.7546771E-02  0.2507567E+00
         21   -1    0    0  501  502  0.00000000000E+00  0.00000000000E+00  0.69550230938E+02  0.69550230938E+02  0.00000000000E+00 0.  1.
         21   -1    0    0  502  503 -0.00000000000E+00 -0.00000000000E+00 -0.49353526729E+01  0.49353526729E+01  0.00000000000E+00 0.  1.
          5    1    1    2  501    0  0.16759660042E-01 -0.25691436440E+01  0.67959812806E+02  0.68170572365E+02  0.47000000000E+01 0.  1.
         -5    1    1    2    0  503 -0.16759660042E-01  0.25691436440E+01 -0.33449345410E+01  0.63150112457E+01  0.47000000000E+01 0.  1.
<mgrwt>
<rscale>  2 0.53563775E+01</rscale>
<asrwt>0</asrwt>
<pdfrwt beam="1">  1       21 0.10700035E-01 0.53563775E+01</pdfrwt>
<pdfrwt beam="2">  1       21 0.75928508E-03 0.53563775E+01</pdfrwt>
<totfact> 0.13356045E+08</totfact>
</mgrwt>
</event>
<event>
 4    1  0.4043737E+006  0.6262883E+01  0.7546771E-02  0.2382415E+00
         21   -1    0    0  501  502  0.00000000000E+00  0.00000000000E+00  0.18425962832E+02  0.18425962832E+02  0.00000000000E+00 0. -1.
         21   -1    0    0  502  503 -0.00000000000E+00 -0.00000000000E+00 -0.51654181734E+01  0.51654181734E+01  0.00000000000E+00 0.  1.
          5    1    1    2  501    0  0.19931727551E+01  0.36278038582E+01  0.15674500419E+02  0.16879385707E+02  0.47000000000E+01 0. -1.
         -5    1    1    2    0  503 -0.19931727551E+01 -0.36278038582E+01 -0.24139557607E+01  0.67119952980E+01  0.47000000000E+01 0.  1.
<mgrwt>
<rscale>  2 0.62628826E+01</rscale>
<asrwt>0</asrwt>
<pdfrwt beam="1">  1       21 0.28347635E-02 0.62628826E+01</pdfrwt>
<pdfrwt beam="2">  1       21 0.79467973E-03 0.62628826E+01</pdfrwt>
<totfact> 0.10175622E+09</totfact>
</mgrwt>
</event>
<event>
 4    1  0.4043737E+006  0.5075333E+01  0.7546771E-02  0.2553961E+00
         21   -1    0    0  503  502  0.00000000000E+00  0.00000000000E+00  0.51680147831E+02  0.51680147831E+02  0.00000000000E+00 0.  1.
         21   -1    0    0  501  503 -0.00000000000E+00 -0.00000000000E+00 -0.73505957746E+00  0.73505957746E+00  0.00000000000E+00 0. -1.
          5    1    1    2  501    0 -0.14563300991E+01 -0.12442302255E+01  0.10602943249E+02  0.11755058986E+02  0.47000000000E+01 0. -1.
         -5    1    1    2    0  502  0.14563300991E+01  0.12442302255E+01  0.40342145005E+02  0.40660148423E+02  0.47000000000E+01 0.  1.
<mgrwt>
<rscale>  2 0.50753331E+01</rscale>
<asrwt>0</asrwt>
<pdfrwt beam="1">  1       21 0.79507891E-02 0.50753331E+01</pdfrwt>
<pdfrwt beam="2">  1       21 0.11308613E-03 0.50753331E+01</pdfrwt>
<totfact> 0.26655599E+09</totfact>
</mgrwt>
</event>
<event>
 4    1  0.4043737E+006  0.7822921E+01  0.7546771E-02  0.2225246E+00
         21   -1    0    0  501  502  0.00000000000E+00  0.00000000000E+00  0.55038971399E+03  0.55038971399E+03  0.00000000000E+00 0.  1.
         21   -1    0    0  502  503 -0.00000000000E+00 -0.00000000000E+00 -0.11432208463E+00  0.11432208463E+00  0.00000000000E+00 0. -1.
          5    1    1    2  501    0  0.52536977599E+01 -0.33921598491E+01  0.22958124308E+03  0.22971448640E+03  0.47000000000E+01 0.  1.
         -5    1    1    2    0  503 -0.52536977599E+01  0.33921598491E+01  0.32069414883E+03  0.32078954968E+03  0.47000000000E+01 0. -1.
<mgrwt>
<rscale>  2 0.78229207E+01</rscale>
<asrwt>0</asrwt>
<pdfrwt beam="1">  1       21 0.84673219E-01 0.78229207E+01</pdfrwt>
<pdfrwt beam="2">  1       21 0.17588454E-04 0.78229207E+01</pdfrwt>
<totfact> 0.82160765E+08</totfact>
</mgrwt>
</event>
<event>
 4    1  0.4043737E+006  0.9097639E+01  0.7546771E-02  0.2130299E+00
         21   -1    0    0  503  502  0.00000000000E+00  0.00000000000E+00  0.12161534821E+03  0.12161534821E+03  0.00000000000E+00 0. -1.
         21   -1    0    0  501  503 -0.00000000000E+00 -0.00000000000E+00 -0.71482090046E+00  0.71482090046E+00  0.00000000000E+00 0.  1.
          5    1    1    2  501    0 -0.47874944911E+01 -0.61446674822E+01  0.47060335225E+02  0.47931640838E+02  0.47000000000E+01 0. -1.
         -5    1    1    2    0  502  0.47874944911E+01  0.61446674822E+01  0.73840192084E+02  0.74398528272E+02  0.47000000000E+01 0.  1.
<mgrwt>
<rscale>  2 0.90976394E+01</rscale>
<asrwt>0</asrwt>
<pdfrwt beam="1">  1       21 0.18710037E-01 0.90976394E+01</pdfrwt>
<pdfrwt beam="2">  1       21 0.10997254E-03 0.90976394E+01</pdfrwt>
<totfact> 0.11281058E+09</totfact>
</mgrwt>
</event>
<event>
 4    1  0.4043737E+006  0.8510623E+01  0.7546771E-02  0.2171192E+00
         21   -1    0    0  501  502  0.00000000000E+00  0.00000000000E+00  0.73760645716E+00  0.73760645716E+00  0.00000000000E+00 0. -1.
         21   -1    0    0  502  503 -0.00000000000E+00 -0.00000000000E+00 -0.12018351245E+03  0.12018351245E+03  0.00000000000E+00 0.  1.
          5    1    1    2  501    0  0.40382284006E+01 -0.58338166351E+01 -0.33862961842E+02  0.34916054901E+02  0.47000000000E+01 0. -1.
         -5    1    1    2    0  503 -0.40382284006E+01  0.58338166351E+01 -0.85582944148E+02  0.86005064003E+02  0.47000000000E+01 0.  1.
<mgrwt>
<rscale>  2 0.85106231E+01</rscale>
<asrwt>0</asrwt>
<pdfrwt beam="1">  1       21 0.11347789E-03 0.85106231E+01</pdfrwt>
<pdfrwt beam="2">  1       21 0.18489776E-01 0.85106231E+01</pdfrwt>
<totfact> 0.10582115E+09</totfact>
</mgrwt>
</event>
<event>
 4    1  0.4043737E+006  0.6375240E+01  0.7546771E-02  0.2369002E+00
         21   -1    0    0  501  502  0.00000000000E+00  0.00000000000E+00  0.24275731641E+04  0.24275731641E+04  0.00000000000E+00 0.  1.
         21   -1    0    0  502  503 -0.00000000000E+00 -0.00000000000E+00 -0.40025116267E-01  0.40025116267E-01  0.00000000000E+00 0.  1.
          5    1    1    2  501    0  0.58893829673E+00  0.42669473700E+01  0.21395276331E+04  0.21395371314E+04  0.47000000000E+01 0.  1.
         -5    1    1    2    0  503 -0.58893829673E+00 -0.42669473700E+01  0.28800550590E+03  0.28807605787E+03  0.47000000000E+01 0.  1.
<mgrwt>
<rscale>  2 0.63752402E+01</rscale>
<asrwt>0</asrwt>
<pdfrwt beam="1">  1       21 0.37335491E+00 0.63752402E+01</pdfrwt>
<pdfrwt beam="2">  1       21 0.61596545E-05 0.63752402E+01</pdfrwt>
<totfact> 0.91485521E+07</totfact>
</mgrwt>
</event>
<event>
 4    1  0.4043737E+006  0.6368513E+01  0.7546771E-02  0.2369794E+00
         21   -1    0    0  501  502  0.00000000000E+00  0.00000000000E+00  0.27227716829E+01  0.27227716829E+01  0.00000000000E+00 0.  1.
         21   -1    0    0  502  503 -0.00000000000E+00 -0.00000000000E+00 -0.24778065256E+02  0.24778065256E+02  0.00000000000E+00 0.  1.
          5    1    1    2  501    0 -0.29448074355E+01  0.31298659896E+01 -0.23438480316E+01  0.67861311172E+01  0.47000000000E+01 0.  1.
         -5    1    1    2    0  503  0.29448074355E+01 -0.31298659896E+01 -0.19711445542E+02  0.20714705822E+02  0.47000000000E+01 0.  1.
<mgrwt>
<rscale>  2 0.63685125E+01</rscale>
<asrwt>0</asrwt>
<pdfrwt beam="1">  1       21 0.41888795E-03 0.63685125E+01</pdfrwt>
<pdfrwt beam="2">  1       21 0.38120100E-02 0.63685125E+01</pdfrwt>
<totfact> 0.16362662E+09</totfact>
</mgrwt>
</event>
<event>
 4    1  0.4043737E+006  0.8693254E+01  0.7546771E-02  0.2157999E+00
         21   -1    0    0  501  502  0.00000000000E+00  0.00000000000E+00  0.37733348101E+02  0.37733348101E+02  0.00000000000E+00 0.  1.
         21   -1    0    0  502  503 -0.00000000000E+00 -0.00000000000E+00 -0.92684911798E+01  0.92684911798E+01  0.00000000000E+00 0.  1.
          5    1    1    2  501    0  0.73510277505E+00  0.72761456646E+01  0.35039863579E+02  0.36102142755E+02  0.47000000000E+01 0.  1.
         -5    1    1    2    0  503 -0.73510277505E+00 -0.72761456646E+01 -0.65750066576E+01  0.10899696527E+02  0.47000000000E+01 0.  1.
<mgrwt>
<rscale>  2 0.86932544E+01</rscale>
<asrwt>0</asrwt>
<pdfrwt beam="1">  1       21 0.58051304E-02 0.86932544E+01</pdfrwt>
<pdfrwt beam="2">  1       21 0.14259217E-02 0.86932544E+01</pdfrwt>
<totfact> 0.18813319E+08</totfact>
</mgrwt>
</event>
<event>
 4    1  0.4043737E+006  0.7179063E+01  0.7546771E-02  0.2283311E+00
         21   -1    0    0  501  502  0.00000000000E+00  0.00000000000E+00  0.36079547619E+02  0.36079547619E+02  0.00000000000E+00 0. -1.
         21   -1    0    0  502  503 -0.00000000000E+00 -0.00000000000E+00 -0.31787745927E+01  0.31787745927E+01  0.00000000000E+00 0.  1.
          5    1    1    2  501    0  0.38933688924E+01  0.37802950132E+01  0.31015950738E+02  0.31835956903E+02  0.47000000000E+01 0. -1.
         -5    1    1    2    0  503 -0.38933688924E+01 -0.37802950132E+01  0.18848222880E+01  0.74223653087E+01  0.47000000000E+01 0.  1.
<mgrwt>
<rscale>  2 0.71790634E+01</rscale>
<asrwt>0</asrwt>
<pdfrwt beam="1">  1       21 0.55506993E-02 0.71790634E+01</pdfrwt>
<pdfrwt beam="2">  1       21 0.48904227E-03 0.71790634E+01</pdfrwt>
<totfact> 0.82406068E+08</totfact>
</mgrwt>
</event>
<event>
 4    1  0.4043737E+006  0.1316019E+02  0.7546771E-02  0.1930021E+00
         21   -1    0    0  501  502  0.00000000000E+00  0.00000000000E+00  0.29780826602E+01  0.29780826602E+01  0.00000000000E+00 0. -1.
         21   -1    0    0  502  503 -0.00000000000E+00 -0.00000000000E+00 -0.76141600356E+02  0.76141600356E+02  0.00000000000E+00 0.  1.
          5    1    1    2  501    0  0.96927704559E+01 -0.75598160515E+01 -0.17354508087E+02  0.21780026831E+02  0.47000000000E+01 0. -1.
         -5    1    1    2    0  503 -0.96927704559E+01  0.75598160515E+01 -0.55809009609E+02  0.57339656185E+02  0.47000000000E+01 0.  1.
<mgrwt>
<rscale>  2 0.13160191E+02</rscale>
<asrwt>0</asrwt>
<pdfrwt beam="1">  1       21 0.45816662E-03 0.13160191E+02</pdfrwt>
<pdfrwt beam="2">  1       21 0.11714091E-01 0.13160191E+02</pdfrwt>
<totfact> 0.39465639E+08</totfact>
</mgrwt>
</event>
<event>
 4    1  0.4043737E+006  0.6526779E+01  0.7546771E-02  0.2351521E+00
         21   -1    0    0  501  502  0.00000000000E+00  0.00000000000E+00  0.40001641933E+03  0.40001641933E+03  0.00000000000E+00 0. -1.
         21   -1    0    0  502  503 -0.00000000000E+00 -0.00000000000E+00 -0.10993622643E+00  0.10993622643E+00  0.00000000000E+00 0. -1.
          5    1    1    2  501    0  0.29971307372E+01  0.33950040419E+01  0.23536078932E+03  0.23545126883E+03  0.47000000000E+01 0. -1.
         -5    1    1    2    0  503 -0.29971307372E+01 -0.33950040419E+01  0.16454569378E+03  0.16467508673E+03  0.47000000000E+01 0. -1.
<mgrwt>
<rscale>  2 0.65267791E+01</rscale>
<asrwt>0</asrwt>
<pdfrwt beam="1">  1       21 0.61539822E-01 0.65267791E+01</pdfrwt>
<pdfrwt beam="2">  1       21 0.16913586E-04 0.65267791E+01</pdfrwt>
<totfact> 0.14316228E+09</totfact>
</mgrwt>
</event>
<event>
 4    1  0.4043737E+006  0.9724254E+01  0.7546771E-02  0.2091029E+00
         21   -1    0    0  503  502  0.00000000000E+00  0.00000000000E+00  0.35828442746E-01  0.35828442746E-01  0.00000000000E+00 0.  1.
         21   -1    0    0  501  503 -0.00000000000E+00 -0.00000000000E+00 -0.29518584218E+04  0.29518584218E+04  0.00000000000E+00 0. -1.
          5    1    1    2  501    0  0.81924375272E+01  0.23141039468E+01 -0.19562040966E+04  0.19562282660E+04  0.47000000000E+01 0. -1.
         -5    1    1    2    0  502 -0.81924375272E+01 -0.23141039468E+01 -0.99561849674E+03  0.99566598423E+03  0.47000000000E+01 0.  1.
<mgrwt>
<rscale>  2 0.97242537E+01</rscale>
<asrwt>0</asrwt>
<pdfrwt beam="1">  1       21 0.55123971E-05 0.97242537E+01</pdfrwt>
<pdfrwt beam="2">  1       21 0.45410496E+00 0.97242537E+01</pdfrwt>
<totfact> 0.44445124E+07</totfact>
</mgrwt>
</event>
<event>
 4    1  0.4043737E+006  0.9591646E+01  0.7546771E-02  0.2099001E+00
         21   -1    0    0  503  502  0.00000000000E+00  0.00000000000E+00  0.57471015550E+01  0.57471015550E+01  0.00000000000E+00 0. -1.
         21   -1    0    0  501  503 -0.00000000000E+00 -0.00000000000E+00 -0.17634508294E+02  0.17634508294E+02  0.00000000000E+00 0.  1.
          5    1    1    2  501    0 -0.77968152523E+00 -0.83247685503E+01 -0.94942006292E+01  0.13495907538E+02  0.47000000000E+01 0.  1.
         -5    1    1    2    0  502  0.77968152523E+00  0.83247685503E+01 -0.23932061103E+01  0.98857023111E+01  0.47000000000E+01 0. -1.
<mgrwt>
<rscale>  2 0.95916461E+01</rscale>
<asrwt>0</asrwt>
<pdfrwt beam="1">  1       21 0.88416949E-03 0.95916461E+01</pdfrwt>
<pdfrwt beam="2">  1       21 0.27130012E-02 0.95916461E+01</pdfrwt>
<totfact> 0.12550495E+09</totfact>
</mgrwt>
</event>
<event>
 4    1  0.4043737E+006  0.5273332E+01  0.7546771E-02  0.2520835E+00
         21   -1    0    0  501  502  0.00000000000E+00  0.00000000000E+00  0.19377246815E+00  0.19377246815E+00  0.00000000000E+00 0.  1.
         21   -1    0    0  502  503 -0.00000000000E+00 -0.00000000000E+00 -0.20493560484E+03  0.20493560484E+03  0.00000000000E+00 0. -1.
          5    1    1    2  501    0 -0.21394336256E+01  0.10681096752E+01 -0.46218495601E+02  0.46518355196E+02  0.47000000000E+01 0.  1.
         -5    1    1    2    0  503  0.21394336256E+01 -0.10681096752E+01 -0.15852333677E+03  0.15861102211E+03  0.47000000000E+01 0. -1.
<mgrwt>
<rscale>  2 0.52733324E+01</rscale>
<asrwt>0</asrwt>
<pdfrwt beam="1">  1       21 0.29811336E-04 0.52733324E+01</pdfrwt>
<pdfrwt beam="2">  1       21 0.31528357E-01 0.52733324E+01</pdfrwt>
<totfact> 0.18615866E+09</totfact>
</mgrwt>
</event>
<event>
 4    1  0.4043737E+006  0.7741329E+01  0.7546771E-02  0.2232169E+00
         21   -1    0    0  503  502  0.00000000000E+00  0.00000000000E+00  0.13706439987E+02  0.13706439987E+02  0.00000000000E+00 0. -1.
         21   -1    0    0  501  503 -0.00000000000E+00 -0.00000000000E+00 -0.14340836526E+02  0.14340836526E+02  0.00000000000E+00 0.  1.
          5    1    1    2  501    0 -0.81896313078E-01 -0.61507293703E+01 -0.12009228697E+02  0.14288098288E+02  0.47000000000E+01 0.  1.
         -5    1    1    2    0  502  0.81896313078E-01  0.61507293703E+01  0.11374832159E+02  0.13759178225E+02  0.47000000000E+01 0. -1.
<mgrwt>
<rscale>  2 0.77413293E+01</rscale>
<asrwt>0</asrwt>
<pdfrwt beam="1">  1       21 0.21086831E-02 0.77413293E+01</pdfrwt>
<pdfrwt beam="2">  1       21 0.22062825E-02 0.77413293E+01</pdfrwt>
<totfact> 0.42155729E+08</totfact>
</mgrwt>
</event>
<event>
 4    1  0.4043737E+006  0.9021009E+01  0.7546771E-02  0.2135397E+00
         21   -1    0    0  503  502  0.00000000000E+00  0.00000000000E+00  0.24298811722E+01  0.24298811722E+01  0.00000000000E+00 0.  1.
         21   -1    0    0  501  503 -0.00000000000E+00 -0.00000000000E+00 -0.53923369449E+02  0.53923369449E+02  0.00000000000E+00 0. -1.
          5    1    1    2  501    0 -0.29255745767E+01 -0.71224726371E+01 -0.43091261761E+02  0.44025395435E+02  0.47000000000E+01 0. -1.
         -5    1    1    2    0  502  0.29255745767E+01  0.71224726371E+01 -0.84022265164E+01  0.12327855187E+02  0.47000000000E+01 0.  1.
<mgrwt>
<rscale>  2 0.90210090E+01</rscale>
<asrwt>0</asrwt>
<pdfrwt beam="1">  1       21 0.37382789E-03 0.90210090E+01</pdfrwt>
<pdfrwt beam="2">  1       21 0.82959026E-02 0.90210090E+01</pdfrwt>
<totfact> 0.75268334E+08</totfact>
</mgrwt>
</event>
<event>
 4    1  0.4043737E+006  0.6799206E+01  0.7546771E-02  0.2321726E+00
         21   -1    0    0  501  502  0.00000000000E+00  0.00000000000E+00  0.15498323544E+03  0.15498323544E+03  0.00000000000E+00 0. -1.
         21   -1    0    0  502  503 -0.00000000000E+00 -0.00000000000E+00 -0.14597412323E+01  0.14597412323E+01  0.00000000000E+00 0.  1.
          5    1    1    2  501    0  0.23259790350E+01 -0.43277035590E+01  0.14653509066E+03  0.14669274689E+03  0.47000000000E+01 0. -1.
         -5    1    1    2    0  503 -0.23259790350E+01  0.43277035590E+01  0.69884035444E+01  0.97502297751E+01  0.47000000000E+01 0.  1.
<mgrwt>
<rscale>  2 0.67992056E+01</rscale>
<asrwt>0</asrwt>
<pdfrwt beam="1">  1       21 0.23843562E-01 0.67992056E+01</pdfrwt>
<pdfrwt beam="2">  1       21 0.22457570E-03 0.67992056E+01</pdfrwt>
<totfact> 0.23709342E+08</totfact>
</mgrwt>
</event>
<event>
 4    1  0.4043737E+006  0.6325903E+01  0.7546771E-02  0.2374843E+00
         21   -1    0    0  503  502  0.00000000000E+00  0.00000000000E+00  0.33486307774E+02  0.33486307774E+02  0.00000000000E+00 0. -1.
         21   -1    0    0  501  503 -0.00000000000E+00 -0.00000000000E+00 -0.16985608257E+01  0.16985608257E+01  0.00000000000E+00 0.  1.
          5    1    1    2  501    0  0.16450763877E+01  0.39013810819E+01  0.63153272701E+01  0.89387028811E+01  0.47000000000E+01 0.  1.
         -5    1    1    2    0  502 -0.16450763877E+01 -0.39013810819E+01  0.25472419679E+02  0.26246165719E+02  0.47000000000E+01 0. -1.
<mgrwt>
<rscale>  2 0.63259032E+01</rscale>
<asrwt>0</asrwt>
<pdfrwt beam="1">  1       21 0.51517392E-02 0.63259032E+01</pdfrwt>
<pdfrwt beam="2">  1       21 0.26131707E-03 0.63259032E+01</pdfrwt>
<totfact> 0.19986938E+09</totfact>
</mgrwt>
</event>
<event>
 4    1  0.4043737E+006  0.7252711E+01  0.7546771E-02  0.2276246E+00
         21   -1    0    0  503  502  0.00000000000E+00  0.00000000000E+00  0.73495007300E+00  0.73495007300E+00  0.00000000000E+00 0.  1.
         21   -1    0    0  501  503 -0.00000000000E+00 -0.00000000000E+00 -0.12562208803E+04  0.12562208803E+04  0.00000000000E+00 0.  1.
          5    1    1    2  501    0 -0.34370998984E+01  0.43241377765E+01 -0.12380548781E+04  0.12380761216E+04  0.47000000000E+01 0.  1.
         -5    1    1    2    0  502  0.34370998984E+01 -0.43241377765E+01 -0.17431052186E+02  0.18879708778E+02  0.47000000000E+01 0.  1.
<mgrwt>
<rscale>  2 0.72527114E+01</rscale>
<asrwt>0</asrwt>
<pdfrwt beam="1">  1       21 0.11307044E-03 0.72527114E+01</pdfrwt>
<pdfrwt beam="2">  1       21 0.19326269E+00 0.72527114E+01</pdfrwt>
<totfact> 0.10991111E+07</totfact>
</mgrwt>
</event>
<event>
 4    1  0.4043737E+006  0.8427027E+01  0.7546771E-02  0.2177383E+00
         21   -1    0    0  501  502  0.00000000000E+00  0.00000000000E+00  0.47992516097E+00  0.47992516097E+00  0.00000000000E+00 0. -1.
         21   -1    0    0  502  503 -0.00000000000E+00 -0.00000000000E+00 -0.19603161456E+03  0.19603161456E+03  0.00000000000E+00 0. -1.
          5    1    1    2  501    0  0.19912654131E+01  0.67051956649E+01 -0.49124849629E+02  0.49842408027E+02  0.47000000000E+01 0. -1.
         -5    1    1    2    0  503 -0.19912654131E+01 -0.67051956649E+01 -0.14642683977E+03  0.14666913169E+03  0.47000000000E+01 0. -1.
<mgrwt>
<rscale>  2 0.84270272E+01</rscale>
<asrwt>0</asrwt>
<pdfrwt beam="1">  1       21 0.73834709E-04 0.84270272E+01</pdfrwt>
<pdfrwt beam="2">  1       21 0.30158682E-01 0.84270272E+01</pdfrwt>
<totfact> 0.83101897E+08</totfact>
</mgrwt>
</event>
<event>
 4    1  0.4043737E+006  0.7733127E+01  0.7546771E-02  0.2232871E+00
         21   -1    0    0  501  502  0.00000000000E+00  0.00000000000E+00  0.26706694354E-01  0.26706694354E-01  0.00000000000E+00 0. -1.
         21   -1    0    0  502  503 -0.00000000000E+00 -0.00000000000E+00 -0.24033980996E+04  0.24033980996E+04  0.00000000000E+00 0.  1.
          5    1    1    2  501    0 -0.17322515228E+00  0.61385057727E+01 -0.88756969005E+03  0.88760337761E+03  0.47000000000E+01 0.  1.
         -5    1    1    2    0  503  0.17322515228E+00 -0.61385057727E+01 -0.15158017029E+04  0.15158214287E+04  0.47000000000E+01 0. -1.
<mgrwt>
<rscale>  2 0.77331274E+01</rscale>
<asrwt>0</asrwt>
<pdfrwt beam="1">  1       21 0.41106048E-05 0.77331274E+01</pdfrwt>
<pdfrwt beam="2">  1       21 0.36958421E+00 0.77331274E+01</pdfrwt>
<totfact> 0.17051760E+08</totfact>
</mgrwt>
</event>
<event>
 4    1  0.4043737E+006  0.4880744E+01  0.7546771E-02  0.2588755E+00
         21   -1    0    0  501  502  0.00000000000E+00  0.00000000000E+00  0.72207245684E+02  0.72207245684E+02  0.00000000000E+00 0.  1.
         21   -1    0    0  502  503 -0.00000000000E+00 -0.00000000000E+00 -0.37769932571E+00  0.37769932571E+00  0.00000000000E+00 0.  1.
          5    1    1    2  501    0  0.13013782138E+01  0.19513219195E+00  0.48824689093E+02  0.49068033655E+02  0.47000000000E+01 0.  1.
         -5    1    1    2    0  503 -0.13013782138E+01 -0.19513219195E+00  0.23004857266E+02  0.23516911354E+02  0.47000000000E+01 0.  1.
<mgrwt>
<rscale>  2 0.48807440E+01</rscale>
<asrwt>0</asrwt>
<pdfrwt beam="1">  1       21 0.11108796E-01 0.48807440E+01</pdfrwt>
<pdfrwt beam="2">  1       21 0.58107646E-04 0.48807440E+01</pdfrwt>
<totfact> 0.37455191E+09</totfact>
</mgrwt>
</event>
<event>
 4    1  0.4043737E+006  0.5584498E+01  0.7546771E-02  0.2472857E+00
         21   -1    0    0  503  502  0.00000000000E+00  0.00000000000E+00  0.13937993974E+00  0.13937993974E+00  0.00000000000E+00 0. -1.
         21   -1    0    0  501  503 -0.00000000000E+00 -0.00000000000E+00 -0.26756703338E+03  0.26756703338E+03  0.00000000000E+00 0. -1.
          5    1    1    2  501    0  0.23300882681E+01  0.19150214528E+01 -0.18787914134E+03  0.18796211950E+03  0.47000000000E+01 0. -1.
         -5    1    1    2    0  502 -0.23300882681E+01 -0.19150214528E+01 -0.79548512106E+02  0.79744293819E+02  0.47000000000E+01 0. -1.
<mgrwt>
<rscale>  2 0.55844981E+01</rscale>
<asrwt>0</asrwt>
<pdfrwt beam="1">  1       21 0.21442973E-04 0.55844981E+01</pdfrwt>
<pdfrwt beam="2">  1       21 0.41164340E-01 0.55844981E+01</pdfrwt>
<totfact> 0.19190976E+09</totfact>
</mgrwt>
</event>
<event>
 4    1  0.4043737E+006  0.4836702E+01  0.7546771E-02  0.2596964E+00
         21   -1    0    0  501  502  0.00000000000E+00  0.00000000000E+00  0.18442129669E+01  0.18442129669E+01  0.00000000000E+00 0.  1.
         21   -1    0    0  502  503 -0.00000000000E+00 -0.00000000000E+00 -0.13109919165E+02  0.13109919165E+02  0.00000000000E+00 0.  1.
          5    1    1    2  501    0 -0.87126854125E+00  0.73795737517E+00 -0.42866011196E+01  0.64628661689E+01  0.47000000000E+01 0.  1.
         -5    1    1    2    0  503  0.87126854125E+00 -0.73795737517E+00 -0.69791050789E+01  0.84912659633E+01  0.47000000000E+01 0.  1.
<mgrwt>
<rscale>  2 0.48367024E+01</rscale>
<asrwt>0</asrwt>
<pdfrwt beam="1">  1       21 0.28372507E-03 0.48367024E+01</pdfrwt>
<pdfrwt beam="2">  1       21 0.20169106E-02 0.48367024E+01</pdfrwt>
<totfact> 0.53967752E+09</totfact>
</mgrwt>
</event>
<event>
 4    1  0.4043737E+006  0.4953249E+01  0.7546771E-02  0.2575515E+00
         21   -1    0    0  503  502  0.00000000000E+00  0.00000000000E+00  0.19616109951E-01  0.19616109951E-01  0.00000000000E+00 0. -1.
         21   -1    0    0  501  503 -0.00000000000E+00 -0.00000000000E+00 -0.13029263074E+04  0.13029263074E+04  0.00000000000E+00 0. -1.
          5    1    1    2  501    0 -0.11075313657E+01  0.11036517244E+01 -0.78183323803E+03  0.78184892835E+03  0.47000000000E+01 0. -1.
         -5    1    1    2    0  502  0.11075313657E+01 -0.11036517244E+01 -0.52107345330E+03  0.52109699520E+03  0.47000000000E+01 0. -1.
<mgrwt>
<rscale>  2 0.49532487E+01</rscale>
<asrwt>0</asrwt>
<pdfrwt beam="1">  1       21 0.30176482E-05 0.49532487E+01</pdfrwt>
<pdfrwt beam="2">  1       21 0.20046447E+00 0.49532487E+01</pdfrwt>
<totfact> 0.10788065E+09</totfact>
</mgrwt>
</event>
<event>
 4    1  0.4043737E+006  0.6443041E+01  0.7546771E-02  0.2361097E+00
         21   -1    0    0  503  502  0.00000000000E+00  0.00000000000E+00  0.11159872051E+02  0.11159872051E+02  0.00000000000E+00 0. -1.
         21   -1    0    0  501  503 -0.00000000000E+00 -0.00000000000E+00 -0.10420879369E+02  0.10420879369E+02  0.00000000000E+00 0. -1.
          5    1    1    2  501    0  0.14367002224E+00  0.44047850148E+01 -0.82832894034E+01  0.10494077160E+02  0.47000000000E+01 0. -1.
         -5    1    1    2    0  502 -0.14367002224E+00 -0.44047850148E+01  0.90222820860E+01  0.11086674260E+02  0.47000000000E+01 0. -1.
<mgrwt>
<rscale>  2 0.64430406E+01</rscale>
<asrwt>0</asrwt>
<pdfrwt beam="1">  1       21 0.17169034E-02 0.64430406E+01</pdfrwt>
<pdfrwt beam="2">  1       21 0.16032122E-02 0.64430406E+01</pdfrwt>
<totfact> 0.79297264E+08</totfact>
</mgrwt>
</event>
<event>
 4    1  0.4043737E+006  0.5305880E+01  0.7546771E-02  0.2515593E+00
         21   -1    0    0  501  502  0.00000000000E+00  0.00000000000E+00  0.50284355965E+02  0.50284355965E+02  0.00000000000E+00 0.  1.
         21   -1    0    0  502  503 -0.00000000000E+00 -0.00000000000E+00 -0.74042104449E+01  0.74042104449E+01  0.00000000000E+00 0.  1.
          5    1    1    2  501    0  0.24538242514E+01  0.20274938007E+00  0.49172404802E+02  0.49457838153E+02  0.47000000000E+01 0.  1.
         -5    1    1    2    0  503 -0.24538242514E+01 -0.20274938007E+00 -0.62922592818E+01  0.82307282568E+01  0.47000000000E+01 0.  1.
<mgrwt>
<rscale>  2 0.53058798E+01</rscale>
<asrwt>0</asrwt>
<pdfrwt beam="1">  1       21 0.77360545E-02 0.53058798E+01</pdfrwt>
<pdfrwt beam="2">  1       21 0.11391093E-02 0.53058798E+01</pdfrwt>
<totfact> 0.12283603E+08</totfact>
</mgrwt>
</event>
<event>
 4    1  0.4043737E+006  0.7530686E+01  0.7546771E-02  0.2250601E+00
         21   -1    0    0  503  502  0.00000000000E+00  0.00000000000E+00  0.12547250256E+01  0.12547250256E+01  0.00000000000E+00 0. -1.
         21   -1    0    0  501  503 -0.00000000000E+00 -0.00000000000E+00 -0.47135674422E+02  0.47135674422E+02  0.00000000000E+00 0.  1.
          5    1    1    2  501    0  0.54745842011E+01  0.21564241441E+01 -0.27845927161E+02  0.28846263132E+02  0.47000000000E+01 0.  1.
         -5    1    1    2    0  502 -0.54745842011E+01 -0.21564241441E+01 -0.18035022236E+02  0.19544136315E+02  0.47000000000E+01 0. -1.
<mgrwt>
<rscale>  2 0.75306864E+01</rscale>
<asrwt>0</asrwt>
<pdfrwt beam="1">  1       21 0.19303461E-03 0.75306864E+01</pdfrwt>
<pdfrwt beam="2">  1       21 0.72516425E-02 0.75306864E+01</pdfrwt>
<totfact> 0.20680330E+09</totfact>
</mgrwt>
</event>
<event>
 4    1  0.4043737E+006  0.5561495E+01  0.7546771E-02  0.2476248E+00
         21   -1    0    0  503  502  0.00000000000E+00  0.00000000000E+00  0.98302379594E+00  0.98302379594E+00  0.00000000000E+00 0.  1.
         21   -1    0    0  501  503 -0.00000000000E+00 -0.00000000000E+00 -0.54542084600E+02  0.54542084600E+02  0.00000000000E+00 0.  1.
          5    1    1    2  501    0 -0.29219586120E+01  0.54989694050E+00 -0.44838372913E+02  0.45181964479E+02  0.47000000000E+01 0.  1.
         -5    1    1    2    0  502  0.29219586120E+01 -0.54989694050E+00 -0.87206878910E+01  0.10343143916E+02  0.47000000000E+01 0.  1.
<mgrwt>
<rscale>  2 0.55614952E+01</rscale>
<asrwt>0</asrwt>
<pdfrwt beam="1">  1       21 0.15123438E-03 0.55614952E+01</pdfrwt>
<pdfrwt beam="2">  1       21 0.83910925E-02 0.55614952E+01</pdfrwt>
<totfact> 0.18140454E+09</totfact>
</mgrwt>
</event>
<event>
 4    1  0.4043737E+006  0.5144041E+01  0.7546771E-02  0.2542218E+00
         21   -1    0    0  503  502  0.00000000000E+00  0.00000000000E+00  0.14100897377E+02  0.14100897377E+02  0.00000000000E+00 0.  1.
         21   -1    0    0  501  503 -0.00000000000E+00 -0.00000000000E+00 -0.28956698314E+01  0.28956698314E+01  0.00000000000E+00 0.  1.
          5    1    1    2  501    0 -0.19776277322E+01 -0.67834202618E+00  0.56102397624E+00  0.51745441590E+01  0.47000000000E+01 0.  1.
         -5    1    1    2    0  502  0.19776277322E+01  0.67834202618E+00  0.10644203569E+02  0.11822023049E+02  0.47000000000E+01 0.  1.
<mgrwt>
<rscale>  2 0.51440411E+01</rscale>
<asrwt>0</asrwt>
<pdfrwt beam="1">  1       21 0.21693688E-02 0.51440411E+01</pdfrwt>
<pdfrwt beam="2">  1       21 0.44548768E-03 0.51440411E+01</pdfrwt>
<totfact> 0.28064069E+09</totfact>
</mgrwt>
</event>
<event>
 4    1  0.4043737E+006  0.6508669E+01  0.7546771E-02  0.2353575E+00
         21   -1    0    0  503  502  0.00000000000E+00  0.00000000000E+00  0.30773307264E+03  0.30773307264E+03  0.00000000000E+00 0.  1.
         21   -1    0    0  501  503 -0.00000000000E+00 -0.00000000000E+00 -0.19411778916E+00  0.19411778916E+00  0.00000000000E+00 0. -1.
          5    1    1    2  501    0  0.42135644241E+01  0.15870256941E+01  0.70737707020E+02  0.71036511529E+02  0.47000000000E+01 0. -1.
         -5    1    1    2    0  502 -0.42135644241E+01 -0.15870256941E+01  0.23680124783E+03  0.23689067890E+03  0.47000000000E+01 0.  1.
<mgrwt>
<rscale>  2 0.65086693E+01</rscale>
<asrwt>0</asrwt>
<pdfrwt beam="1">  1       21 0.47343159E-01 0.65086693E+01</pdfrwt>
<pdfrwt beam="2">  1       21 0.29864521E-04 0.65086693E+01</pdfrwt>
<totfact> 0.10802767E+09</totfact>
</mgrwt>
</event>
<event>
 4    1  0.4043737E+006  0.4973547E+01  0.7546771E-02  0.2571868E+00
         21   -1    0    0  501  502  0.00000000000E+00  0.00000000000E+00  0.36758879276E+02  0.36758879276E+02  0.00000000000E+00 0.  1.
         21   -1    0    0  502  503 -0.00000000000E+00 -0.00000000000E+00 -0.14676881956E+01  0.14676881956E+01  0.00000000000E+00 0.  1.
          5    1    1    2  501    0  0.14242494513E+01  0.78592960794E+00  0.31710467114E+02  0.32098129174E+02  0.47000000000E+01 0.  1.
         -5    1    1    2    0  503 -0.14242494513E+01 -0.78592960794E+00  0.35807239659E+01  0.61284382976E+01  0.47000000000E+01 0.  1.
<mgrwt>
<rscale>  2 0.49735472E+01</rscale>
<asrwt>0</asrwt>
<pdfrwt beam="1">  1       21 0.56552115E-02 0.49735472E+01</pdfrwt>
<pdfrwt beam="2">  1       21 0.22579821E-03 0.49735472E+01</pdfrwt>
<totfact> 0.17141243E+09</totfact>
</mgrwt>
</event>
<event>
 4    1  0.4043737E+006  0.4812204E+01  0.7546771E-02  0.2601587E+00
         21   -1    0    0  501  502  0.00000000000E+00  0.00000000000E+00  0.11726351490E+02  0.11726351490E+02  0.00000000000E+00 0.  1.
         21   -1    0    0  502  503 -0.00000000000E+00 -0.00000000000E+00 -0.22514561647E+01  0.22514561647E+01  0.00000000000E+00 0.  1.
          5    1    1    2  501    0 -0.93762034821E+00 -0.43379670434E+00  0.71873002743E+01  0.86495431515E+01  0.47000000000E+01 0.  1.
         -5    1    1    2    0  503  0.93762034821E+00  0.43379670434E+00  0.22875950512E+01  0.53282645032E+01  0.47000000000E+01 0.  1.
<mgrwt>
<rscale>  2 0.48122044E+01</rscale>
<asrwt>0</asrwt>
<pdfrwt beam="1">  1       21 0.18040540E-02 0.48122044E+01</pdfrwt>
<pdfrwt beam="2">  1       21 0.34637788E-03 0.48122044E+01</pdfrwt>
<totfact> 0.47935450E+09</totfact>
</mgrwt>
</event>
<event>
 4    1  0.4043737E+006  0.6957596E+01  0.7546771E-02  0.2305290E+00
         21   -1    0    0  501  502  0.00000000000E+00  0.00000000000E+00  0.12024864149E+02  0.12024864149E+02  0.00000000000E+00 0.  1.
         21   -1    0    0  502  503 -0.00000000000E+00 -0.00000000000E+00 -0.69222020695E+01  0.69222020695E+01  0.00000000000E+00 0.  1.
          5    1    1    2  501    0  0.23791808542E+01  0.45450684711E+01  0.86794745008E+01  0.11123912376E+02  0.47000000000E+01 0.  1.
         -5    1    1    2    0  503 -0.23791808542E+01 -0.45450684711E+01 -0.35768124212E+01  0.78231538423E+01  0.47000000000E+01 0.  1.
<mgrwt>
<rscale>  2 0.69575965E+01</rscale>
<asrwt>0</asrwt>
<pdfrwt beam="1">  1       21 0.18499791E-02 0.69575965E+01</pdfrwt>
<pdfrwt beam="2">  1       21 0.10649542E-02 0.69575965E+01</pdfrwt>
<totfact> 0.13544315E+09</totfact>
</mgrwt>
</event>
<event>
 4    1  0.4043737E+006  0.5133341E+01  0.7546771E-02  0.2544029E+00
         21   -1    0    0  503  502  0.00000000000E+00  0.00000000000E+00  0.19124015963E+02  0.19124015963E+02  0.00000000000E+00 0. -1.
         21   -1    0    0  501  503 -0.00000000000E+00 -0.00000000000E+00 -0.45337035848E+01  0.45337035848E+01  0.00000000000E+00 0. -1.
          5    1    1    2  501    0 -0.18329959000E+01 -0.94937398689E+00 -0.25737852789E+01  0.57424346403E+01  0.47000000000E+01 0. -1.
         -5    1    1    2    0  502  0.18329959000E+01  0.94937398689E+00  0.17164097657E+02  0.17915284908E+02  0.47000000000E+01 0. -1.
<mgrwt>
<rscale>  2 0.51333405E+01</rscale>
<asrwt>0</asrwt>
<pdfrwt beam="1">  1       21 0.29421563E-02 0.51333405E+01</pdfrwt>
<pdfrwt beam="2">  1       21 0.69749287E-03 0.51333405E+01</pdfrwt>
<totfact> 0.97601963E+08</totfact>
</mgrwt>
</event>
<event>
 4    1  0.4043737E+006  0.5584803E+01  0.7546771E-02  0.2472813E+00
         21   -1    0    0  501  502  0.00000000000E+00  0.00000000000E+00  0.58107162874E+03  0.58107162874E+03  0.00000000000E+00 0.  1.
         21   -1    0    0  502  503 -0.00000000000E+00 -0.00000000000E+00 -0.15565987055E+01  0.15565987055E+01  0.00000000000E+00 0.  1.
          5    1    1    2  501    0 -0.24709196121E+01  0.17304850529E+01  0.57600482335E+03  0.57603189716E+03  0.47000000000E+01 0.  1.
         -5    1    1    2    0  503  0.24709196121E+01 -0.17304850529E+01  0.35102066792E+01  0.65963302812E+01  0.47000000000E+01 0.  1.
<mgrwt>
<rscale>  2 0.55848028E+01</rscale>
<asrwt>0</asrwt>
<pdfrwt beam="1">  1       21 0.89395462E-01 0.55848028E+01</pdfrwt>
<pdfrwt beam="2">  1       21 0.23947719E-03 0.55848028E+01</pdfrwt>
<totfact> 0.18100227E+07</totfact>
</mgrwt>
</event>
<event>
 4    1  0.4043737E+006  0.2220755E+02  0.7546771E-02  0.1704687E+00
         21   -1    0    0  503  502  0.00000000000E+00  0.00000000000E+00  0.99770820936E+01  0.99770820936E+01  0.00000000000E+00 0. -1.
         21   -1    0    0  501  503 -0.00000000000E+00 -0.00000000000E+00 -0.85273566989E+02  0.85273566989E+02  0.00000000000E+00 0.  1.
          5    1    1    2  501    0 -0.44497218458E+01 -0.21243476986E+02 -0.68524978316E+02  0.72033658745E+02  0.47000000000E+01 0.  1.
         -5    1    1    2    0  502  0.44497218458E+01  0.21243476986E+02 -0.67715065789E+01  0.23216990337E+02  0.47000000000E+01 0. -1.
<mgrwt>
<rscale>  2 0.22207551E+02</rscale>
<asrwt>0</asrwt>
<pdfrwt beam="1">  1       21 0.15349357E-02 0.22207551E+02</pdfrwt>
<pdfrwt beam="2">  1       21 0.13119011E-01 0.22207551E+02</pdfrwt>
<totfact> 0.65774437E+07</totfact>
</mgrwt>
</event>
<event>
 4    1  0.4043737E+006  0.6735456E+01  0.7546771E-02  0.2328520E+00
         21   -1    0    0  503  502  0.00000000000E+00  0.00000000000E+00  0.42862373589E+01  0.42862373589E+01  0.00000000000E+00 0.  1.
         21   -1    0    0  501  503 -0.00000000000E+00 -0.00000000000E+00 -0.40983105466E+02  0.40983105466E+02  0.00000000000E+00 0.  1.
          5    1    1    2  501    0  0.19020019682E+01 -0.44338198766E+01 -0.37842425653E+02  0.38437163650E+02  0.47000000000E+01 0.  1.
         -5    1    1    2    0  502 -0.19020019682E+01  0.44338198766E+01  0.11455575457E+01  0.68321791747E+01  0.47000000000E+01 0.  1.
<mgrwt>
<rscale>  2 0.67354562E+01</rscale>
<asrwt>0</asrwt>
<pdfrwt beam="1">  1       21 0.65942112E-03 0.67354562E+01</pdfrwt>
<pdfrwt beam="2">  1       21 0.63050933E-02 0.67354562E+01</pdfrwt>
<totfact> 0.42747852E+08</totfact>
</mgrwt>
</event>
<event>
 4    1  0.4043737E+006  0.5286347E+01  0.7546771E-02  0.2518732E+00
         21   -1    0    0  503  502  0.00000000000E+00  0.00000000000E+00  0.43249888127E+00  0.43249888127E+00  0.00000000000E+00 0. -1.
         21   -1    0    0  501  503 -0.00000000000E+00 -0.00000000000E+00 -0.11261838943E+03  0.11261838943E+03  0.00000000000E+00 0.  1.
          5    1    1    2  501    0  0.10139120093E+01 -0.21971451508E+01 -0.92997502105E+02  0.93147629396E+02  0.47000000000E+01 0.  1.
         -5    1    1    2    0  502 -0.10139120093E+01  0.21971451508E+01 -0.19188388448E+02  0.19903258919E+02  0.47000000000E+01 0. -1.
<mgrwt>
<rscale>  2 0.52863470E+01</rscale>
<asrwt>0</asrwt>
<pdfrwt beam="1">  1       21 0.66538229E-04 0.52863470E+01</pdfrwt>
<pdfrwt beam="2">  1       21 0.17325922E-01 0.52863470E+01</pdfrwt>
<totfact> 0.16981873E+09</totfact>
</mgrwt>
</event>
<event>
 4    1  0.4043737E+006  0.5660188E+01  0.7546771E-02  0.2461867E+00
         21   -1    0    0  503  502  0.00000000000E+00  0.00000000000E+00  0.15553949089E+03  0.15553949089E+03  0.00000000000E+00 0. -1.
         21   -1    0    0  501  503 -0.00000000000E+00 -0.00000000000E+00 -0.48331681859E+00  0.48331681859E+00  0.00000000000E+00 0. -1.
          5    1    1    2  501    0 -0.18855579393E+01 -0.25283187948E+01  0.18433539413E+02  0.19282974355E+02  0.47000000000E+01 0. -1.
         -5    1    1    2    0  502  0.18855579393E+01  0.25283187948E+01  0.13662263465E+03  0.13673983335E+03  0.47000000000E+01 0. -1.
<mgrwt>
<rscale>  2 0.56601877E+01</rscale>
<asrwt>0</asrwt>
<pdfrwt beam="1">  1       21 0.23929112E-01 0.56601877E+01</pdfrwt>
<pdfrwt beam="2">  1       21 0.74356558E-04 0.56601877E+01</pdfrwt>
<totfact> 0.92357573E+08</totfact>
</mgrwt>
</event>
<event>
 4    1  0.4043737E+006  0.5346684E+01  0.7546771E-02  0.2509098E+00
         21   -1    0    0  503  502  0.00000000000E+00  0.00000000000E+00  0.61354907824E-01  0.61354907824E-01  0.00000000000E+00 0. -1.
         21   -1    0    0  501  503 -0.00000000000E+00 -0.00000000000E+00 -0.52312750773E+03  0.52312750773E+03  0.00000000000E+00 0. -1.
          5    1    1    2  501    0 -0.16944512922E+01 -0.19041715232E+01 -0.34803322377E+03  0.34807429076E+03  0.47000000000E+01 0. -1.
         -5    1    1    2    0  502  0.16944512922E+01  0.19041715232E+01 -0.17503292905E+03  0.17511457189E+03  0.47000000000E+01 0. -1.
<mgrwt>
<rscale>  2 0.53466844E+01</rscale>
<asrwt>0</asrwt>
<pdfrwt beam="1">  1       21 0.94391248E-05 0.53466844E+01</pdfrwt>
<pdfrwt beam="2">  1       21 0.80481938E-01 0.53466844E+01</pdfrwt>
<totfact> 0.16146940E+09</totfact>
</mgrwt>
</event>
<event>
 4    1  0.4043737E+006  0.5393745E+01  0.7546771E-02  0.2501711E+00
         21   -1    0    0  501  502  0.00000000000E+00  0.00000000000E+00  0.10010587178E+01  0.10010587178E+01  0.00000000000E+00 0.  1.
         21   -1    0    0  502  503 -0.00000000000E+00 -0.00000000000E+00 -0.19929599575E+03  0.19929599575E+03  0.00000000000E+00 0.  1.
          5    1    1    2  501    0 -0.22909183693E+01 -0.13244523457E+01 -0.65884387870E+01  0.85146935729E+01  0.47000000000E+01 0.  1.
         -5    1    1    2    0  503  0.22909183693E+01  0.13244523457E+01 -0.19170649825E+03  0.19178236090E+03  0.47000000000E+01 0.  1.
<mgrwt>
<rscale>  2 0.53937446E+01</rscale>
<asrwt>0</asrwt>
<pdfrwt beam="1">  1       21 0.15400920E-03 0.53937446E+01</pdfrwt>
<pdfrwt beam="2">  1       21 0.30660888E-01 0.53937446E+01</pdfrwt>
<totfact> 0.22288579E+08</totfact>
</mgrwt>
</event>
<event>
 4    1  0.4043737E+006  0.5346745E+01  0.7546771E-02  0.2509088E+00
         21   -1    0    0  503  502  0.00000000000E+00  0.00000000000E+00  0.10169226447E+03  0.10169226447E+03  0.00000000000E+00 0. -1.
         21   -1    0    0  501  503 -0.00000000000E+00 -0.00000000000E+00 -0.31614698736E+00  0.31614698736E+00  0.00000000000E+00 0. -1.
          5    1    1    2  501    0 -0.20614785202E+00 -0.25407064184E+01  0.67665236665E+02  0.67876151475E+02  0.47000000000E+01 0. -1.
         -5    1    1    2    0  502  0.20614785202E+00  0.25407064184E+01  0.33710880813E+02  0.34132259978E+02  0.47000000000E+01 0. -1.
<mgrwt>
<rscale>  2 0.53467454E+01</rscale>
<asrwt>0</asrwt>
<pdfrwt beam="1">  1       21 0.15644938E-01 0.53467454E+01</pdfrwt>
<pdfrwt beam="2">  1       21 0.48638079E-04 0.53467454E+01</pdfrwt>
<totfact> 0.30557998E+09</totfact>
</mgrwt>
</event>
<event>
 4    1  0.4043737E+006  0.7343721E+01  0.7546771E-02  0.2267676E+00
         21   -1    0    0  503  502  0.00000000000E+00  0.00000000000E+00  0.15276003519E+02  0.15276003519E+02  0.00000000000E+00 0. -1.
         21   -1    0    0  501  503 -0.00000000000E+00 -0.00000000000E+00 -0.36146919322E+01  0.36146919322E+01  0.00000000000E+00 0.  1.
          5    1    1    2  501    0 -0.39604042229E+01 -0.40193832642E+01  0.43882010762E+01  0.85549139165E+01  0.47000000000E+01 0.  1.
         -5    1    1    2    0  502  0.39604042229E+01  0.40193832642E+01  0.72731105103E+01  0.10335781534E+02  0.47000000000E+01 0. -1.
<mgrwt>
<rscale>  2 0.73437214E+01</rscale>
<asrwt>0</asrwt>
<pdfrwt beam="1">  1       21 0.23501543E-02 0.73437214E+01</pdfrwt>
<pdfrwt beam="2">  1       21 0.55610646E-03 0.73437214E+01</pdfrwt>
<totfact> 0.25020380E+09</totfact>
</mgrwt>
</event>
<event>
 4    1  0.4043737E+006  0.5118934E+01  0.7546771E-02  0.2546478E+00
         21   -1    0    0  503  502  0.00000000000E+00  0.00000000000E+00  0.11261948911E+01  0.11261948911E+01  0.00000000000E+00 0. -1.
         21   -1    0    0  501  503 -0.00000000000E+00 -0.00000000000E+00 -0.31336592876E+02  0.31336592876E+02  0.00000000000E+00 0. -1.
          5    1    1    2  501    0  0.83578758625E+00  0.18479565099E+01 -0.23341806871E+02  0.23896515063E+02  0.47000000000E+01 0. -1.
         -5    1    1    2    0  502 -0.83578758625E+00 -0.18479565099E+01 -0.68685911141E+01  0.85662727043E+01  0.47000000000E+01 0. -1.
<mgrwt>
<rscale>  2 0.51189339E+01</rscale>
<asrwt>0</asrwt>
<pdfrwt beam="1">  1       21 0.17326076E-03 0.51189339E+01</pdfrwt>
<pdfrwt beam="2">  1       21 0.48210142E-02 0.51189339E+01</pdfrwt>
<totfact> 0.31827169E+09</totfact>
</mgrwt>
</event>
<event>
 4    1  0.4043737E+006  0.6618521E+01  0.7546771E-02  0.2341262E+00
         21   -1    0    0  501  502  0.00000000000E+00  0.00000000000E+00  0.57666754001E+00  0.57666754001E+00  0.00000000000E+00 0. -1.
         21   -1    0    0  502  503 -0.00000000000E+00 -0.00000000000E+00 -0.17965030080E+03  0.17965030080E+03  0.00000000000E+00 0. -1.
          5    1    1    2  501    0  0.41897353185E+01 -0.20398376614E+01 -0.21076219018E+02  0.22090989743E+02  0.47000000000E+01 0. -1.
         -5    1    1    2    0  503 -0.41897353185E+01  0.20398376614E+01 -0.15799741424E+03  0.15813597860E+03  0.47000000000E+01 0. -1.
<mgrwt>
<rscale>  2 0.66185210E+01</rscale>
<asrwt>0</asrwt>
<pdfrwt beam="1">  1       21 0.88718041E-04 0.66185210E+01</pdfrwt>
<pdfrwt beam="2">  1       21 0.27638521E-01 0.66185210E+01</pdfrwt>
<totfact> 0.64427684E+08</totfact>
</mgrwt>
</event>
<event>
 4    1  0.4043737E+006  0.6735531E+01  0.7546771E-02  0.2328512E+00
         21   -1    0    0  503  502  0.00000000000E+00  0.00000000000E+00  0.32846219305E+03  0.32846219305E+03  0.00000000000E+00 0. -1.
         21   -1    0    0  501  503 -0.00000000000E+00 -0.00000000000E+00 -0.14311980697E+00  0.14311980697E+00  0.00000000000E+00 0.  1.
          5    1    1    2  501    0  0.48800856320E+00 -0.47999193504E+01  0.13345181975E+03  0.13362168826E+03  0.47000000000E+01 0.  1.
         -5    1    1    2    0  502 -0.48800856320E+00  0.47999193504E+01  0.19486725350E+03  0.19498362460E+03  0.47000000000E+01 0. -1.
<mgrwt>
<rscale>  2 0.67355310E+01</rscale>
<asrwt>0</asrwt>
<pdfrwt beam="1">  1       21 0.50532042E-01 0.67355310E+01</pdfrwt>
<pdfrwt beam="2">  1       21 0.22018695E-04 0.67355310E+01</pdfrwt>
<totfact> 0.14790189E+09</totfact>
</mgrwt>
</event>
<event>
 4    1  0.4043737E+006  0.5071747E+01  0.7546771E-02  0.2554581E+00
         21   -1    0    0  501  502  0.00000000000E+00  0.00000000000E+00  0.34703259901E+02  0.34703259901E+02  0.00000000000E+00 0.  1.
         21   -1    0    0  502  503 -0.00000000000E+00 -0.00000000000E+00 -0.11654224849E+01  0.11654224849E+01  0.00000000000E+00 0.  1.
          5    1    1    2  501    0 -0.18776311758E+01 -0.32729381770E+00  0.27589043169E+02  0.28051344407E+02  0.47000000000E+01 0.  1.
         -5    1    1    2    0  503  0.18776311758E+01  0.32729381770E+00  0.59487942470E+01  0.78173379784E+01  0.47000000000E+01 0.  1.
<mgrwt>
<rscale>  2 0.50717472E+01</rscale>
<asrwt>0</asrwt>
<pdfrwt beam="1">  1       21 0.53389623E-02 0.50717472E+01</pdfrwt>
<pdfrwt beam="2">  1       21 0.17929579E-03 0.50717472E+01</pdfrwt>
<totfact> 0.25934886E+09</totfact>
</mgrwt>
</event>
<event>
 4    1  0.4043737E+006  0.5280992E+01  0.7546771E-02  0.2519597E+00
         21   -1    0    0  503  502  0.00000000000E+00  0.00000000000E+00  0.12719219637E+02  0.12719219637E+02  0.00000000000E+00 0.  1.
         21   -1    0    0  501  503 -0.00000000000E+00 -0.00000000000E+00 -0.42681508440E+02  0.42681508440E+02  0.00000000000E+00 0. -1.
          5    1    1    2  501    0 -0.23172617566E+01 -0.65511412776E+00 -0.41960609145E+02  0.42291625606E+02  0.47000000000E+01 0. -1.
         -5    1    1    2    0  502  0.23172617566E+01  0.65511412776E+00  0.11998320342E+02  0.13109102471E+02  0.47000000000E+01 0.  1.
<mgrwt>
<rscale>  2 0.52809920E+01</rscale>
<asrwt>0</asrwt>
<pdfrwt beam="1">  1       21 0.19568030E-02 0.52809920E+01</pdfrwt>
<pdfrwt beam="2">  1       21 0.65663859E-02 0.52809920E+01</pdfrwt>
<totfact> 0.72767728E+07</totfact>
</mgrwt>
</event>
<event>
 4    1  0.4043737E+006  0.5636128E+01  0.7546771E-02  0.2465333E+00
         21   -1    0    0  503  502  0.00000000000E+00  0.00000000000E+00  0.18996716085E+02  0.18996716085E+02  0.00000000000E+00 0.  1.
         21   -1    0    0  501  503 -0.00000000000E+00 -0.00000000000E+00 -0.20870688548E+01  0.20870688548E+01  0.00000000000E+00 0.  1.
          5    1    1    2  501    0 -0.20007918964E+01 -0.23817584921E+01  0.37546303179E+01  0.67722367466E+01  0.47000000000E+01 0.  1.
         -5    1    1    2    0  502  0.20007918964E+01  0.23817584921E+01  0.13155016912E+02  0.14311548193E+02  0.47000000000E+01 0.  1.
<mgrwt>
<rscale>  2 0.56361283E+01</rscale>
<asrwt>0</asrwt>
<pdfrwt beam="1">  1       21 0.29225716E-02 0.56361283E+01</pdfrwt>
<pdfrwt beam="2">  1       21 0.32108753E-03 0.56361283E+01</pdfrwt>
<totfact> 0.31306987E+09</totfact>
</mgrwt>
</event>
<event>
 4    1  0.4043737E+006  0.4879941E+01  0.7546771E-02  0.2588903E+00
         21   -1    0    0  501  502  0.00000000000E+00  0.00000000000E+00  0.93030644948E+02  0.93030644948E+02  0.00000000000E+00 0.  1.
         21   -1    0    0  502  503 -0.00000000000E+00 -0.00000000000E+00 -0.59161502366E+01  0.59161502366E+01  0.00000000000E+00 0.  1.
          5    1    1    2  501    0  0.13006980783E+01  0.17890602108E+00  0.91948509873E+02  0.92077914239E+02  0.47000000000E+01 0.  1.
         -5    1    1    2    0  503 -0.13006980783E+01 -0.17890602108E+00 -0.48340151616E+01  0.68688809451E+01  0.47000000000E+01 0.  1.
<mgrwt>
<rscale>  2 0.48799409E+01</rscale>
<asrwt>0</asrwt>
<pdfrwt beam="1">  1       21 0.14312406E-01 0.48799409E+01</pdfrwt>
<pdfrwt beam="2">  1       21 0.91017703E-03 0.48799409E+01</pdfrwt>
<totfact> 0.61911398E+07</totfact>
</mgrwt>
</event>
<event>
 4    1  0.4043737E+006  0.6087337E+01  0.7546771E-02  0.2404193E+00
         21   -1    0    0  501  502  0.00000000000E+00  0.00000000000E+00  0.20750539480E+01  0.20750539480E+01  0.00000000000E+00 0.  1.
         21   -1    0    0  502  503 -0.00000000000E+00 -0.00000000000E+00 -0.32137272456E+02  0.32137272456E+02  0.00000000000E+00 0.  1.
          5    1    1    2  501    0 -0.38623784930E+01 -0.21842114902E+00 -0.36284585897E+01  0.70867049578E+01  0.47000000000E+01 0.  1.
         -5    1    1    2    0  503  0.38623784930E+01  0.21842114902E+00 -0.26433759919E+02  0.27125621447E+02  0.47000000000E+01 0.  1.
<mgrwt>
<rscale>  2 0.60873373E+01</rscale>
<asrwt>0</asrwt>
<pdfrwt beam="1">  1       21 0.31923906E-03 0.60873373E+01</pdfrwt>
<pdfrwt beam="2">  1       21 0.49441959E-02 0.60873373E+01</pdfrwt>
<totfact> 0.15628743E+09</totfact>
</mgrwt>
</event>
<event>
 4    1  0.4043737E+006  0.5630311E+01  0.7546771E-02  0.2466175E+00
         21   -1    0    0  501  502  0.00000000000E+00  0.00000000000E+00  0.28224268725E+01  0.28224268725E+01  0.00000000000E+00 0. -1.
         21   -1    0    0  502  503 -0.00000000000E+00 -0.00000000000E+00 -0.14903638714E+02  0.14903638714E+02  0.00000000000E+00 0. -1.
          5    1    1    2  501    0 -0.14503670044E+01  0.27398613758E+01 -0.16412501080E+01  0.58646489002E+01  0.47000000000E+01 0. -1.
         -5    1    1    2    0  503  0.14503670044E+01 -0.27398613758E+01 -0.10439961733E+02  0.11861416686E+02  0.47000000000E+01 0. -1.
<mgrwt>
<rscale>  2 0.56303113E+01</rscale>
<asrwt>0</asrwt>
<pdfrwt beam="1">  1       21 0.43421953E-03 0.56303113E+01</pdfrwt>
<pdfrwt beam="2">  1       21 0.22928675E-02 0.56303113E+01</pdfrwt>
<totfact> 0.29299518E+09</totfact>
</mgrwt>
</event>
<event>
 4    1  0.4043737E+006  0.5387284E+01  0.7546771E-02  0.2502718E+00
         21   -1    0    0  503  502  0.00000000000E+00  0.00000000000E+00  0.25652462884E+02  0.25652462884E+02  0.00000000000E+00 0.  1.
         21   -1    0    0  501  503 -0.00000000000E+00 -0.00000000000E+00 -0.21476002621E+01  0.21476002621E+01  0.00000000000E+00 0. -1.
          5    1    1    2  501    0 -0.21657898049E+01  0.14973934075E+01  0.21908054501E+01  0.58157081268E+01  0.47000000000E+01 0. -1.
         -5    1    1    2    0  502  0.21657898049E+01 -0.14973934075E+01  0.21314057172E+02  0.21984355019E+02  0.47000000000E+01 0.  1.
<mgrwt>
<rscale>  2 0.53872843E+01</rscale>
<asrwt>0</asrwt>
<pdfrwt beam="1">  1       21 0.39465325E-02 0.53872843E+01</pdfrwt>
<pdfrwt beam="2">  1       21 0.33040006E-03 0.53872843E+01</pdfrwt>
<totfact> 0.18678966E+09</totfact>
</mgrwt>
</event>
<event>
 4    1  0.4043737E+006  0.9343703E+01  0.7546771E-02  0.2114382E+00
         21   -1    0    0  501  502  0.00000000000E+00  0.00000000000E+00  0.41037282516E+01  0.41037282516E+01  0.00000000000E+00 0.  1.
         21   -1    0    0  502  503 -0.00000000000E+00 -0.00000000000E+00 -0.31168867522E+02  0.31168867522E+02  0.00000000000E+00 0.  1.
          5    1    1    2  501    0  0.80295995658E+01 -0.86041593401E+00 -0.35959003333E+01  0.10011757287E+02  0.47000000000E+01 0.  1.
         -5    1    1    2    0  503 -0.80295995658E+01  0.86041593401E+00 -0.23469238937E+02  0.25260838487E+02  0.47000000000E+01 0.  1.
<mgrwt>
<rscale>  2 0.93437029E+01</rscale>
<asrwt>0</asrwt>
<pdfrwt beam="1">  1       21 0.63134282E-03 0.93437029E+01</pdfrwt>
<pdfrwt beam="2">  1       21 0.47952103E-02 0.93437029E+01</pdfrwt>
<totfact> 0.84986057E+08</totfact>
</mgrwt>
</event>
<event>
 4    1  0.4043737E+006  0.5021927E+01  0.7546771E-02  0.2563279E+00
         21   -1    0    0  501  502  0.00000000000E+00  0.00000000000E+00  0.27207269472E+02  0.27207269472E+02  0.00000000000E+00 0.  1.
         21   -1    0    0  502  503 -0.00000000000E+00 -0.00000000000E+00 -0.18953472144E+01  0.18953472144E+01  0.00000000000E+00 0. -1.
          5    1    1    2  501    0  0.10889852687E+01  0.13942231651E+01  0.23057190568E+02  0.23597749554E+02  0.47000000000E+01 0.  1.
         -5    1    1    2    0  503 -0.10889852687E+01 -0.13942231651E+01  0.22547316899E+01  0.55048671322E+01  0.47000000000E+01 0. -1.
<mgrwt>
<rscale>  2 0.50219266E+01</rscale>
<asrwt>0</asrwt>
<pdfrwt beam="1">  1       21 0.41857335E-02 0.50219266E+01</pdfrwt>
<pdfrwt beam="2">  1       21 0.29159190E-03 0.50219266E+01</pdfrwt>
<totfact> 0.18998462E+09</totfact>
</mgrwt>
</event>
<event>
 4    1  0.4043737E+006  0.5740108E+01  0.7546771E-02  0.2450528E+00
         21   -1    0    0  503  502  0.00000000000E+00  0.00000000000E+00  0.16031548363E+04  0.16031548363E+04  0.00000000000E+00 0.  1.
         21   -1    0    0  501  503 -0.00000000000E+00 -0.00000000000E+00 -0.23353102561E-01  0.23353102561E-01  0.00000000000E+00 0.  1.
          5    1    1    2  501    0  0.29175887532E+01 -0.15318349342E+01  0.52397490824E+03  0.52400634854E+03  0.47000000000E+01 0.  1.
         -5    1    1    2    0  502 -0.29175887532E+01  0.15318349342E+01  0.10791565750E+04  0.10791718409E+04  0.47000000000E+01 0.  1.
<mgrwt>
<rscale>  2 0.57401082E+01</rscale>
<asrwt>0</asrwt>
<pdfrwt beam="1">  1       21 0.24655109E+00 0.57401082E+01</pdfrwt>
<pdfrwt beam="2">  1       21 0.35940690E-05 0.57401082E+01</pdfrwt>
<totfact> 0.58185622E+08</totfact>
</mgrwt>
</event>
<event>
 4    1  0.4043737E+006  0.6985200E+01  0.7546771E-02  0.2302488E+00
         21   -1    0    0  503  502  0.00000000000E+00  0.00000000000E+00  0.88461229652E+01  0.88461229652E+01  0.00000000000E+00 0.  1.
         21   -1    0    0  501  503 -0.00000000000E+00 -0.00000000000E+00 -0.10483074248E+02  0.10483074248E+02  0.00000000000E+00 0.  1.
          5    1    1    2  501    0 -0.51344182189E+01  0.58375123293E+00 -0.74712176257E+01  0.10228006099E+02  0.47000000000E+01 0.  1.
         -5    1    1    2    0  502  0.51344182189E+01 -0.58375123293E+00  0.58342663427E+01  0.91011911146E+01  0.47000000000E+01 0.  1.
<mgrwt>
<rscale>  2 0.69851998E+01</rscale>
<asrwt>0</asrwt>
<pdfrwt beam="1">  1       21 0.13609420E-02 0.69851998E+01</pdfrwt>
<pdfrwt beam="2">  1       21 0.16127807E-02 0.69851998E+01</pdfrwt>
<totfact> 0.11661242E+09</totfact>
</mgrwt>
</event>
<event>
 4    1  0.4043737E+006  0.6350819E+01  0.7546771E-02  0.2371884E+00
         21   -1    0    0  501  502  0.00000000000E+00  0.00000000000E+00  0.87949102337E+02  0.87949102337E+02  0.00000000000E+00 0. -1.
         21   -1    0    0  502  503 -0.00000000000E+00 -0.00000000000E+00 -0.70521794329E+00  0.70521794329E+00  0.00000000000E+00 0. -1.
          5    1    1    2  501    0 -0.17305160326E+01 -0.39048963484E+01  0.69835510617E+02  0.70123686757E+02  0.47000000000E+01 0. -1.
         -5    1    1    2    0  503  0.17305160326E+01  0.39048963484E+01  0.17408373776E+02  0.18530633523E+02  0.47000000000E+01 0. -1.
<mgrwt>
<rscale>  2 0.63508189E+01</rscale>
<asrwt>0</asrwt>
<pdfrwt beam="1">  1       21 0.13530622E-01 0.63508189E+01</pdfrwt>
<pdfrwt beam="2">  1       21 0.10849514E-03 0.63508189E+01</pdfrwt>
<totfact> 0.15175138E+09</totfact>
</mgrwt>
</event>
<event>
 4    1  0.4043737E+006  0.4909515E+01  0.7546771E-02  0.2583460E+00
         21   -1    0    0  501  502  0.00000000000E+00  0.00000000000E+00  0.55106894340E+03  0.55106894340E+03  0.00000000000E+00 0.  1.
         21   -1    0    0  502  503 -0.00000000000E+00 -0.00000000000E+00 -0.16324415666E+00  0.16324415666E+00  0.00000000000E+00 0. -1.
          5    1    1    2  501    0 -0.12204476924E+01  0.72377101456E+00  0.51127176457E+03  0.51129533597E+03  0.47000000000E+01 0.  1.
         -5    1    1    2    0  503  0.12204476924E+01 -0.72377101456E+00  0.39633934675E+02  0.39936851589E+02  0.47000000000E+01 0. -1.
<mgrwt>
<rscale>  2 0.49095150E+01</rscale>
<asrwt>0</asrwt>
<pdfrwt beam="1">  1       21 0.84778348E-01 0.49095150E+01</pdfrwt>
<pdfrwt beam="2">  1       21 0.25114927E-04 0.49095150E+01</pdfrwt>
<totfact> 0.37375834E+08</totfact>
</mgrwt>
</event>
<event>
 4    1  0.4043737E+006  0.6025644E+01  0.7546771E-02  0.2412098E+00
         21   -1    0    0  501  502  0.00000000000E+00  0.00000000000E+00  0.63307037434E+00  0.63307037434E+00  0.00000000000E+00 0.  1.
         21   -1    0    0  502  503 -0.00000000000E+00 -0.00000000000E+00 -0.81688976352E+02  0.81688976352E+02  0.00000000000E+00 0. -1.
          5    1    1    2  501    0  0.27195552253E+01 -0.26119722957E+01 -0.18061717431E+02  0.19040326060E+02  0.47000000000E+01 0.  1.
         -5    1    1    2    0  503 -0.27195552253E+01  0.26119722957E+01 -0.62994188547E+02  0.63281720667E+02  0.47000000000E+01 0. -1.
<mgrwt>
<rscale>  2 0.60256435E+01</rscale>
<asrwt>0</asrwt>
<pdfrwt beam="1">  1       21 0.97395497E-04 0.60256435E+01</pdfrwt>
<pdfrwt beam="2">  1       21 0.12567528E-01 0.60256435E+01</pdfrwt>
<totfact> 0.18885708E+09</totfact>
</mgrwt>
</event>
<event>
 4    1  0.4043737E+006  0.5377057E+01  0.7546771E-02  0.2504318E+00
         21   -1    0    0  503  502  0.00000000000E+00  0.00000000000E+00  0.91874529318E+02  0.91874529318E+02  0.00000000000E+00 0. -1.
         21   -1    0    0  501  503 -0.00000000000E+00 -0.00000000000E+00 -0.38221751943E+00  0.38221751943E+00  0.00000000000E+00 0.  1.
          5    1    1    2  501    0  0.25992625663E+01  0.25802771965E+00  0.26358422355E+02  0.26901285717E+02  0.47000000000E+01 0.  1.
         -5    1    1    2    0  502 -0.25992625663E+01 -0.25802771965E+00  0.65133889444E+02  0.65355461120E+02  0.47000000000E+01 0. -1.
<mgrwt>
<rscale>  2 0.53770572E+01</rscale>
<asrwt>0</asrwt>
<pdfrwt beam="1">  1       21 0.14134525E-01 0.53770572E+01</pdfrwt>
<pdfrwt beam="2">  1       21 0.58802768E-04 0.53770572E+01</pdfrwt>
<totfact> 0.27972700E+09</totfact>
</mgrwt>
</event>
<event>
 4    1  0.4043737E+006  0.4831589E+01  0.7546771E-02  0.2597926E+00
         21   -1    0    0  501  502  0.00000000000E+00  0.00000000000E+00  0.51802328344E+01  0.51802328344E+01  0.00000000000E+00 0.  1.
         21   -1    0    0  502  503 -0.00000000000E+00 -0.00000000000E+00 -0.52936656079E+01  0.52936656079E+01  0.00000000000E+00 0.  1.
          5    1    1    2  501    0  0.11189930514E+01 -0.45866680057E-01  0.19628502943E+01  0.52150772266E+01  0.47000000000E+01 0.  1.
         -5    1    1    2    0  503 -0.11189930514E+01  0.45866680057E-01 -0.20762830678E+01  0.52588212157E+01  0.47000000000E+01 0.  1.
<mgrwt>
<rscale>  2 0.48315887E+01</rscale>
<asrwt>0</asrwt>
<pdfrwt beam="1">  1       21 0.79695890E-03 0.48315887E+01</pdfrwt>
<pdfrwt beam="2">  1       21 0.81441009E-03 0.48315887E+01</pdfrwt>
<totfact> 0.46647043E+09</totfact>
</mgrwt>
</event>
<event>
 4    1  0.4043737E+006  0.6373407E+01  0.7546771E-02  0.2369218E+00
         21   -1    0    0  501  502  0.00000000000E+00  0.00000000000E+00  0.39926561077E+01  0.39926561077E+01  0.00000000000E+00 0. -1.
         21   -1    0    0  502  503 -0.00000000000E+00 -0.00000000000E+00 -0.51927503150E+02  0.51927503150E+02  0.00000000000E+00 0. -1.
          5    1    1    2  501    0  0.19448778060E+01 -0.38402819634E+01  0.11044855419E+01  0.64684003858E+01  0.47000000000E+01 0. -1.
         -5    1    1    2    0  503 -0.19448778060E+01  0.38402819634E+01 -0.49039332584E+02  0.49451758872E+02  0.47000000000E+01 0. -1.
<mgrwt>
<rscale>  2 0.63734069E+01</rscale>
<asrwt>0</asrwt>
<pdfrwt beam="1">  1       21 0.61425477E-03 0.63734069E+01</pdfrwt>
<pdfrwt beam="2">  1       21 0.79888468E-02 0.63734069E+01</pdfrwt>
<totfact> 0.31741689E+08</totfact>
</mgrwt>
</event>
<event>
 4    1  0.4043737E+006  0.5569559E+01  0.7546771E-02  0.2475056E+00
         21   -1    0    0  503  502  0.00000000000E+00  0.00000000000E+00  0.18301004702E+03  0.18301004702E+03  0.00000000000E+00 0.  1.
         21   -1    0    0  501  503 -0.00000000000E+00 -0.00000000000E+00 -0.23617052159E+00  0.23617052159E+00  0.00000000000E+00 0.  1.
          5    1    1    2  501    0 -0.94710685766E-01 -0.29868077260E+01  0.42705557624E+02  0.43067210758E+02  0.47000000000E+01 0.  1.
         -5    1    1    2    0  502  0.94710685766E-01  0.29868077260E+01  0.14006831888E+03  0.14017900679E+03  0.47000000000E+01 0.  1.
<mgrwt>
<rscale>  2 0.55695593E+01</rscale>
<asrwt>0</asrwt>
<pdfrwt beam="1">  1       21 0.28155278E-01 0.55695593E+01</pdfrwt>
<pdfrwt beam="2">  1       21 0.36334073E-04 0.55695593E+01</pdfrwt>
<totfact> 0.18108523E+09</totfact>
</mgrwt>
</event>
<event>
 4    1  0.4043737E+006  0.4729070E+01  0.7546771E-02  0.2617584E+00
         21   -1    0    0  501  502  0.00000000000E+00  0.00000000000E+00  0.54242895634E+01  0.54242895634E+01  0.00000000000E+00 0. -1.
         21   -1    0    0  502  503 -0.00000000000E+00 -0.00000000000E+00 -0.13293718202E+02  0.13293718202E+02  0.00000000000E+00 0. -1.
          5    1    1    2  501    0 -0.38582450473E+00  0.35389412653E+00  0.38386519922E+01  0.60909236342E+01  0.47000000000E+01 0. -1.
         -5    1    1    2    0  503  0.38582450473E+00 -0.35389412653E+00 -0.11708080631E+02  0.12627084132E+02  0.47000000000E+01 0. -1.
<mgrwt>
<rscale>  2 0.47290698E+01</rscale>
<asrwt>0</asrwt>
<pdfrwt beam="1">  1       21 0.83450609E-03 0.47290698E+01</pdfrwt>
<pdfrwt beam="2">  1       21 0.20451874E-02 0.47290698E+01</pdfrwt>
<totfact> 0.11809198E+09</totfact>
</mgrwt>
</event>
<event>
 4    1  0.4043737E+006  0.7471559E+01  0.7546771E-02  0.2255925E+00
         21   -1    0    0  501  502  0.00000000000E+00  0.00000000000E+00  0.41787334809E+02  0.41787334809E+02  0.00000000000E+00 0.  1.
         21   -1    0    0  502  503 -0.00000000000E+00 -0.00000000000E+00 -0.22825771635E+01  0.22825771635E+01  0.00000000000E+00 0. -1.
          5    1    1    2  501    0 -0.31014266726E+01  0.49107376882E+01  0.33942879083E+02  0.34755477734E+02  0.47000000000E+01 0.  1.
         -5    1    1    2    0  503  0.31014266726E+01 -0.49107376882E+01  0.55618785627E+01  0.93144342391E+01  0.47000000000E+01 0. -1.
<mgrwt>
<rscale>  2 0.74715589E+01</rscale>
<asrwt>0</asrwt>
<pdfrwt beam="1">  1       21 0.64288202E-02 0.74715589E+01</pdfrwt>
<pdfrwt beam="2">  1       21 0.35116575E-03 0.74715589E+01</pdfrwt>
<totfact> 0.10782535E+09</totfact>
</mgrwt>
</event>
<event>
 4    1  0.4043737E+006  0.5317082E+01  0.7546771E-02  0.2513801E+00
         21   -1    0    0  503  502  0.00000000000E+00  0.00000000000E+00  0.19056148952E+03  0.19056148952E+03  0.00000000000E+00 0. -1.
         21   -1    0    0  501  503 -0.00000000000E+00 -0.00000000000E+00 -0.19165057584E+00  0.19165057584E+00  0.00000000000E+00 0. -1.
          5    1    1    2  501    0  0.23056336924E+01 -0.93027820123E+00  0.49854240635E+02  0.50136979102E+02  0.47000000000E+01 0. -1.
         -5    1    1    2    0  502 -0.23056336924E+01  0.93027820123E+00  0.14051559831E+03  0.14061616099E+03  0.47000000000E+01 0. -1.
<mgrwt>
<rscale>  2 0.53170823E+01</rscale>
<asrwt>0</asrwt>
<pdfrwt beam="1">  1       21 0.29317001E-01 0.53170823E+01</pdfrwt>
<pdfrwt beam="2">  1       21 0.29484856E-04 0.53170823E+01</pdfrwt>
<totfact> 0.21482840E+09</totfact>
</mgrwt>
</event>
<event>
 4    1  0.4043737E+006  0.8197326E+01  0.7546771E-02  0.2194913E+00
         21   -1    0    0  501  502  0.00000000000E+00  0.00000000000E+00  0.27170605071E+04  0.27170605071E+04  0.00000000000E+00 0. -1.
         21   -1    0    0  502  503 -0.00000000000E+00 -0.00000000000E+00 -0.43615735410E-01  0.43615735410E-01  0.00000000000E+00 0. -1.
          5    1    1    2  501    0 -0.47610923927E+01  0.47368925241E+01  0.22524474834E+04  0.22524623996E+04  0.47000000000E+01 0. -1.
         -5    1    1    2    0  503  0.47610923927E+01 -0.47368925241E+01  0.46456940797E+03  0.46464172324E+03  0.47000000000E+01 0. -1.
<mgrwt>
<rscale>  2 0.81973259E+01</rscale>
<asrwt>0</asrwt>
<pdfrwt beam="1">  1       21 0.41787378E+00 0.81973259E+01</pdfrwt>
<pdfrwt beam="2">  1       21 0.67122894E-05 0.81973259E+01</pdfrwt>
<totfact> 0.52617165E+07</totfact>
</mgrwt>
</event>
<event>
 4    1  0.4043737E+006  0.7094583E+01  0.7546771E-02  0.2291563E+00
         21   -1    0    0  501  502  0.00000000000E+00  0.00000000000E+00  0.44619794542E+01  0.44619794542E+01  0.00000000000E+00 0.  1.
         21   -1    0    0  502  503 -0.00000000000E+00 -0.00000000000E+00 -0.12082337627E+02  0.12082337627E+02  0.00000000000E+00 0. -1.
          5    1    1    2  501    0  0.40593997421E+01 -0.34299243791E+01 -0.16790887539E+01  0.72905724436E+01  0.47000000000E+01 0.  1.
         -5    1    1    2    0  503 -0.40593997421E+01  0.34299243791E+01 -0.59412694193E+01  0.92537446380E+01  0.47000000000E+01 0.  1.
<mgrwt>
<rscale>  2 0.70945830E+01</rscale>
<asrwt>0</asrwt>
<pdfrwt beam="1">  1       21 0.68645839E-03 0.70945830E+01</pdfrwt>
<pdfrwt beam="2">  1       21 0.18588211E-02 0.70945830E+01</pdfrwt>
<totfact> 0.25462638E+09</totfact>
</mgrwt>
</event>
<event>
 4    1  0.4043737E+006  0.5963141E+01  0.7546771E-02  0.2420246E+00
         21   -1    0    0  501  502  0.00000000000E+00  0.00000000000E+00  0.15154282791E+00  0.15154282791E+00  0.00000000000E+00 0. -1.
         21   -1    0    0  502  503 -0.00000000000E+00 -0.00000000000E+00 -0.28921158828E+03  0.28921158828E+03  0.00000000000E+00 0.  1.
          5    1    1    2  501    0 -0.21056389246E+01 -0.30058842947E+01 -0.81686406156E+02  0.81903772846E+02  0.47000000000E+01 0. -1.
         -5    1    1    2    0  503  0.21056389246E+01  0.30058842947E+01 -0.20737363929E+03  0.20745935826E+03  0.47000000000E+01 0.  1.
<mgrwt>
<rscale>  2 0.59631414E+01</rscale>
<asrwt>0</asrwt>
<pdfrwt beam="1">  1       21 0.23314409E-04 0.59631414E+01</pdfrwt>
<pdfrwt beam="2">  1       21 0.44493847E-01 0.59631414E+01</pdfrwt>
<totfact> 0.15766810E+09</totfact>
</mgrwt>
</event>
<event>
 4    1  0.4043737E+006  0.7968202E+01  0.7546771E-02  0.2213203E+00
         21   -1    0    0  503  502  0.00000000000E+00  0.00000000000E+00  0.57741340244E+01  0.57741340244E+01  0.00000000000E+00 0. -1.
         21   -1    0    0  501  503 -0.00000000000E+00 -0.00000000000E+00 -0.11601086024E+02  0.11601086024E+02  0.00000000000E+00 0.  1.
          5    1    1    2  501    0  0.50556707558E+01  0.39802567256E+01 -0.92935812596E+00  0.80222164592E+01  0.47000000000E+01 0. -1.
         -5    1    1    2    0  502 -0.50556707558E+01 -0.39802567256E+01 -0.48975938741E+01  0.93530035896E+01  0.47000000000E+01 0.  1.
<mgrwt>
<rscale>  2 0.79682025E+01</rscale>
<asrwt>0</asrwt>
<pdfrwt beam="1">  1       21 0.88832833E-03 0.79682025E+01</pdfrwt>
<pdfrwt beam="2">  1       21 0.17847824E-02 0.79682025E+01</pdfrwt>
<totfact> 0.20436025E+09</totfact>
</mgrwt>
</event>
<event>
 4    1  0.4043737E+006  0.5694915E+01  0.7546771E-02  0.2456907E+00
         21   -1    0    0  501  502  0.00000000000E+00  0.00000000000E+00  0.25199817198E+00  0.25199817198E+00  0.00000000000E+00 0. -1.
         21   -1    0    0  502  503 -0.00000000000E+00 -0.00000000000E+00 -0.17416680275E+03  0.17416680275E+03  0.00000000000E+00 0.  1.
          5    1    1    2  501    0  0.29726216138E+01  0.12270186617E+01 -0.42398968568E+02  0.42779721711E+02  0.47000000000E+01 0. -1.
         -5    1    1    2    0  503 -0.29726216138E+01 -0.12270186617E+01 -0.13151583601E+03  0.13163907921E+03  0.47000000000E+01 0.  1.
<mgrwt>
<rscale>  2 0.56949148E+01</rscale>
<asrwt>0</asrwt>
<pdfrwt beam="1">  1       21 0.38769048E-04 0.56949148E+01</pdfrwt>
<pdfrwt beam="2">  1       21 0.26794825E-01 0.56949148E+01</pdfrwt>
<totfact> 0.18366181E+09</totfact>
</mgrwt>
</event>
<event>
 4    1  0.4043737E+006  0.9997569E+01  0.7546771E-02  0.2075126E+00
         21   -1    0    0  503  502  0.00000000000E+00  0.00000000000E+00  0.13170746049E+02  0.13170746049E+02  0.00000000000E+00 0. -1.
         21   -1    0    0  501  503 -0.00000000000E+00 -0.00000000000E+00 -0.76020803875E+01  0.76020803875E+01  0.00000000000E+00 0.  1.
          5    1    1    2  501    0  0.87786679917E+01  0.89239560329E+00  0.23517394712E+01  0.10270445957E+02  0.47000000000E+01 0. -1.
         -5    1    1    2    0  502 -0.87786679917E+01 -0.89239560329E+00  0.32169261907E+01  0.10502380480E+02  0.47000000000E+01 0.  1.
<mgrwt>
<rscale>  2 0.99975688E+01</rscale>
<asrwt>0</asrwt>
<pdfrwt beam="1">  1       21 0.20262686E-02 0.99975688E+01</pdfrwt>
<pdfrwt beam="2">  1       21 0.11695508E-02 0.99975688E+01</pdfrwt>
<totfact> 0.13228200E+09</totfact>
</mgrwt>
</event>
<event>
 4    1  0.4043737E+006  0.5012386E+01  0.7546771E-02  0.2564961E+00
         21   -1    0    0  501  502  0.00000000000E+00  0.00000000000E+00  0.25730584142E+03  0.25730584142E+03  0.00000000000E+00 0.  1.
         21   -1    0    0  502  503 -0.00000000000E+00 -0.00000000000E+00 -0.12404355679E+00  0.12404355679E+00  0.00000000000E+00 0.  1.
          5    1    1    2  501    0  0.16935459930E+01  0.40733020556E+00  0.18797245154E+03  0.18803926865E+03  0.47000000000E+01 0.  1.
         -5    1    1    2    0  503 -0.16935459930E+01 -0.40733020556E+00  0.69209346326E+02  0.69390616331E+02  0.47000000000E+01 0.  1.
<mgrwt>
<rscale>  2 0.50123863E+01</rscale>
<asrwt>0</asrwt>
<pdfrwt beam="1">  1       21 0.39585087E-01 0.50123863E+01</pdfrwt>
<pdfrwt beam="2">  1       21 0.19083830E-04 0.50123863E+01</pdfrwt>
<totfact> 0.21859120E+09</totfact>
</mgrwt>
</event>
<event>
 4    1  0.4043737E+006  0.4887159E+01  0.7546771E-02  0.2587569E+00
         21   -1    0    0  503  502  0.00000000000E+00  0.00000000000E+00  0.17100361101E+02  0.17100361101E+02  0.00000000000E+00 0. -1.
         21   -1    0    0  501  503 -0.00000000000E+00 -0.00000000000E+00 -0.13089288413E+02  0.13089288413E+02  0.00000000000E+00 0. -1.
          5    1    1    2  501    0  0.94982636869E+00  0.94454106338E+00 -0.12261215682E+02  0.13199308237E+02  0.47000000000E+01 0. -1.
         -5    1    1    2    0  502 -0.94982636869E+00 -0.94454106338E+00  0.16272288369E+02  0.16990341277E+02  0.47000000000E+01 0. -1.
<mgrwt>
<rscale>  2 0.48871595E+01</rscale>
<asrwt>0</asrwt>
<pdfrwt beam="1">  1       21 0.26308248E-02 0.48871595E+01</pdfrwt>
<pdfrwt beam="2">  1       21 0.20137367E-02 0.48871595E+01</pdfrwt>
<totfact> 0.24828009E+08</totfact>
</mgrwt>
</event>
<event>
 4    1  0.4043737E+006  0.5974447E+01  0.7546771E-02  0.2418761E+00
         21   -1    0    0  501  502  0.00000000000E+00  0.00000000000E+00  0.12011581360E+02  0.12011581360E+02  0.00000000000E+00 0.  1.
         21   -1    0    0  502  503 -0.00000000000E+00 -0.00000000000E+00 -0.63456674814E+01  0.63456674814E+01  0.00000000000E+00 0. -1.
          5    1    1    2  501    0  0.38529886141E+00  0.36681820461E+01  0.95258469063E+01  0.11244366324E+02  0.47000000000E+01 0.  1.
         -5    1    1    2    0  503 -0.38529886141E+00 -0.36681820461E+01 -0.38599330276E+01  0.71128825179E+01  0.47000000000E+01 0. -1.
<mgrwt>
<rscale>  2 0.59744468E+01</rscale>
<asrwt>0</asrwt>
<pdfrwt beam="1">  1       21 0.18479356E-02 0.59744468E+01</pdfrwt>
<pdfrwt beam="2">  1       21 0.97625654E-03 0.59744468E+01</pdfrwt>
<totfact> 0.13587844E+09</totfact>
</mgrwt>
</event>
<event>
 4    1  0.4043737E+006  0.5174813E+01  0.7546771E-02  0.2537046E+00
         21   -1    0    0  501  502  0.00000000000E+00  0.00000000000E+00  0.71370236862E+00  0.71370236862E+00  0.00000000000E+00 0.  1.
         21   -1    0    0  502  503 -0.00000000000E+00 -0.00000000000E+00 -0.26951874679E+03  0.26951874679E+03  0.00000000000E+00 0.  1.
          5    1    1    2  501    0 -0.75285337842E+00 -0.20302476350E+01 -0.90436517923E+01  0.10419516851E+02  0.47000000000E+01 0.  1.
         -5    1    1    2    0  503  0.75285337842E+00  0.20302476350E+01 -0.25976139263E+03  0.25981293231E+03  0.47000000000E+01 0.  1.
<mgrwt>
<rscale>  2 0.51748134E+01</rscale>
<asrwt>0</asrwt>
<pdfrwt beam="1">  1       21 0.10980040E-03 0.51748134E+01</pdfrwt>
<pdfrwt beam="2">  1       21 0.41464410E-01 0.51748134E+01</pdfrwt>
<totfact> 0.20331786E+08</totfact>
</mgrwt>
</event>
<event>
 4    1  0.4043737E+006  0.6325643E+01  0.7546771E-02  0.2374874E+00
         21   -1    0    0  501  502  0.00000000000E+00  0.00000000000E+00  0.15410360299E+01  0.15410360299E+01  0.00000000000E+00 0.  1.
         21   -1    0    0  502  503 -0.00000000000E+00 -0.00000000000E+00 -0.31132849294E+02  0.31132849294E+02  0.00000000000E+00 0. -1.
          5    1    1    2  501    0 -0.42160942956E+01 -0.38510501913E+00 -0.81401774435E+01  0.10309037094E+02  0.47000000000E+01 0.  1.
         -5    1    1    2    0  503  0.42160942956E+01  0.38510501913E+00 -0.21451635820E+02  0.22364848230E+02  0.47000000000E+01 0. -1.
<mgrwt>
<rscale>  2 0.63256428E+01</rscale>
<asrwt>0</asrwt>
<pdfrwt beam="1">  1       21 0.23708248E-03 0.63256428E+01</pdfrwt>
<pdfrwt beam="2">  1       21 0.47896689E-02 0.63256428E+01</pdfrwt>
<totfact> 0.25456457E+09</totfact>
</mgrwt>
</event>
<event>
 4    1  0.4043737E+006  0.4755396E+01  0.7546771E-02  0.2612466E+00
         21   -1    0    0  503  502  0.00000000000E+00  0.00000000000E+00  0.25464224038E+02  0.25464224038E+02  0.00000000000E+00 0. -1.
         21   -1    0    0  501  503 -0.00000000000E+00 -0.00000000000E+00 -0.39330620650E+01  0.39330620650E+01  0.00000000000E+00 0. -1.
          5    1    1    2  501    0  0.71161956862E+00  0.13188140425E+00 -0.21676054338E+01  0.52261179121E+01  0.47000000000E+01 0. -1.
         -5    1    1    2    0  502 -0.71161956862E+00 -0.13188140425E+00  0.23698767407E+02  0.24171168191E+02  0.47000000000E+01 0. -1.
<mgrwt>
<rscale>  2 0.47553964E+01</rscale>
<asrwt>0</asrwt>
<pdfrwt beam="1">  1       21 0.39175728E-02 0.47553964E+01</pdfrwt>
<pdfrwt beam="2">  1       21 0.60508649E-03 0.47553964E+01</pdfrwt>
<totfact> 0.73166528E+08</totfact>
</mgrwt>
</event>
<event>
 4    1  0.4043737E+006  0.1500720E+02  0.7546771E-02  0.1867849E+00
         21   -1    0    0  503  502  0.00000000000E+00  0.00000000000E+00  0.11888647805E+00  0.11888647805E+00  0.00000000000E+00 0. -1.
         21   -1    0    0  501  503 -0.00000000000E+00 -0.00000000000E+00 -0.19427707873E+04  0.19427707873E+04  0.00000000000E+00 0.  1.
          5    1    1    2  501    0 -0.15489134141E+01 -0.14167808780E+02 -0.81800648109E+03  0.81814413097E+03  0.47000000000E+01 0. -1.
         -5    1    1    2    0  502  0.15489134141E+01  0.14167808780E+02 -0.11246454197E+04  0.11247455428E+04  0.47000000000E+01 0.  1.
<mgrwt>
<rscale>  2 0.15007196E+02</rscale>
<asrwt>0</asrwt>
<pdfrwt beam="1">  1       21 0.18290410E-04 0.15007196E+02</pdfrwt>
<pdfrwt beam="2">  1       21 0.29888483E+00 0.15007196E+02</pdfrwt>
<totfact> 0.51296021E+07</totfact>
</mgrwt>
</event>
<event>
 4    1  0.4043737E+006  0.5331019E+01  0.7546771E-02  0.2511581E+00
         21   -1    0    0  503  502  0.00000000000E+00  0.00000000000E+00  0.11598782610E+01  0.11598782610E+01  0.00000000000E+00 0. -1.
         21   -1    0    0  501  503 -0.00000000000E+00 -0.00000000000E+00 -0.15240356379E+03  0.15240356379E+03  0.00000000000E+00 0. -1.
          5    1    1    2  501    0 -0.24942309313E+01 -0.32950144984E+00 -0.14596106965E+03  0.14605839111E+03  0.47000000000E+01 0. -1.
         -5    1    1    2    0  502  0.24942309313E+01  0.32950144984E+00 -0.52826158754E+01  0.75050509413E+01  0.47000000000E+01 0. -1.
<mgrwt>
<rscale>  2 0.53310186E+01</rscale>
<asrwt>0</asrwt>
<pdfrwt beam="1">  1       21 0.17844280E-03 0.53310186E+01</pdfrwt>
<pdfrwt beam="2">  1       21 0.23446704E-01 0.53310186E+01</pdfrwt>
<totfact> 0.28191649E+08</totfact>
</mgrwt>
</event>
<event>
 4    1  0.4043737E+006  0.5999403E+01  0.7546771E-02  0.2415501E+00
         21   -1    0    0  501  502  0.00000000000E+00  0.00000000000E+00  0.20960852332E+02  0.20960852332E+02  0.00000000000E+00 0.  1.
         21   -1    0    0  502  503 -0.00000000000E+00 -0.00000000000E+00 -0.60362050307E+01  0.60362050307E+01  0.00000000000E+00 0. -1.
          5    1    1    2  501    0 -0.16339874295E+01 -0.33515542503E+01  0.18880560387E+02  0.19810815010E+02  0.47000000000E+01 0.  1.
         -5    1    1    2    0  503  0.16339874295E+01  0.33515542503E+01 -0.39559130860E+01  0.71862423530E+01  0.47000000000E+01 0. -1.
<mgrwt>
<rscale>  2 0.59994025E+01</rscale>
<asrwt>0</asrwt>
<pdfrwt beam="1">  1       21 0.32247465E-02 0.59994025E+01</pdfrwt>
<pdfrwt beam="2">  1       21 0.92864694E-03 0.59994025E+01</pdfrwt>
<totfact> 0.65447471E+08</totfact>
</mgrwt>
</event>
<event>
 4    1  0.4043737E+006  0.4824913E+01  0.7546771E-02  0.2599184E+00
         21   -1    0    0  501  502  0.00000000000E+00  0.00000000000E+00  0.33423560747E+02  0.33423560747E+02  0.00000000000E+00 0.  1.
         21   -1    0    0  502  503 -0.00000000000E+00 -0.00000000000E+00 -0.84158170843E+00  0.84158170843E+00  0.00000000000E+00 0.  1.
          5    1    1    2  501    0  0.32596764056E+00 -0.10409286891E+01  0.23404243429E+02  0.23896409728E+02  0.47000000000E+01 0.  1.
         -5    1    1    2    0  503 -0.32596764056E+00  0.10409286891E+01  0.91777356095E+01  0.10368732727E+02  0.47000000000E+01 0.  1.
<mgrwt>
<rscale>  2 0.48249132E+01</rscale>
<asrwt>0</asrwt>
<pdfrwt beam="1">  1       21 0.51420852E-02 0.48249132E+01</pdfrwt>
<pdfrwt beam="2">  1       21 0.12947413E-03 0.48249132E+01</pdfrwt>
<totfact> 0.40235165E+09</totfact>
</mgrwt>
</event>
<event>
 4    1  0.4043737E+006  0.5139070E+01  0.7546771E-02  0.2543059E+00
         21   -1    0    0  501  502  0.00000000000E+00  0.00000000000E+00  0.19559144670E+02  0.19559144670E+02  0.00000000000E+00 0.  1.
         21   -1    0    0  502  503 -0.00000000000E+00 -0.00000000000E+00 -0.18804789293E+01  0.18804789293E+01  0.00000000000E+00 0. -1.
          5    1    1    2  501    0  0.20287948271E+01  0.45169471407E+00  0.14531508901E+02  0.15413461243E+02  0.47000000000E+01 0.  1.
         -5    1    1    2    0  503 -0.20287948271E+01 -0.45169471407E+00  0.31471568396E+01  0.60261623558E+01  0.47000000000E+01 0. -1.
<mgrwt>
<rscale>  2 0.51390696E+01</rscale>
<asrwt>0</asrwt>
<pdfrwt beam="1">  1       21 0.30090990E-02 0.51390696E+01</pdfrwt>
<pdfrwt beam="2">  1       21 0.28930446E-03 0.51390696E+01</pdfrwt>
<totfact> 0.31655646E+09</totfact>
</mgrwt>
</event>
<event>
 4    1  0.4043737E+006  0.6160029E+01  0.7546771E-02  0.2395050E+00
         21   -1    0    0  503  502  0.00000000000E+00  0.00000000000E+00  0.91968450294E+02  0.91968450294E+02  0.00000000000E+00 0.  1.
         21   -1    0    0  501  503 -0.00000000000E+00 -0.00000000000E+00 -0.41262115361E+00  0.41262115361E+00  0.00000000000E+00 0. -1.
          5    1    1    2  501    0 -0.28264797380E+00  0.39719092560E+01  0.45428217852E+02  0.45843962855E+02  0.47000000000E+01 0.  1.
         -5    1    1    2    0  502  0.28264797380E+00 -0.39719092560E+01  0.46127611288E+02  0.46537108592E+02  0.47000000000E+01 0.  1.
<mgrwt>
<rscale>  2 0.61600287E+01</rscale>
<asrwt>0</asrwt>
<pdfrwt beam="1">  1       21 0.14148976E-01 0.61600287E+01</pdfrwt>
<pdfrwt beam="2">  1       21 0.63480251E-04 0.61600287E+01</pdfrwt>
<totfact> 0.28370678E+09</totfact>
</mgrwt>
</event>
<event>
 4    1  0.4043737E+006  0.8030890E+01  0.7546771E-02  0.2208116E+00
         21   -1    0    0  503  502  0.00000000000E+00  0.00000000000E+00  0.11513708721E+04  0.11513708721E+04  0.00000000000E+00 0. -1.
         21   -1    0    0  501  503 -0.00000000000E+00 -0.00000000000E+00 -0.31051355619E+00  0.31051355619E+00  0.00000000000E+00 0.  1.
          5    1    1    2  501    0  0.56154607334E+01 -0.32972401420E+01  0.54210791291E+02  0.54802418598E+02  0.47000000000E+01 0.  1.
         -5    1    1    2    0  502 -0.56154607334E+01  0.32972401420E+01  0.10968495673E+04  0.10968789671E+04  0.47000000000E+01 0. -1.
<mgrwt>
<rscale>  2 0.80308899E+01</rscale>
<asrwt>0</asrwt>
<pdfrwt beam="1">  1       21 0.17713056E+00 0.80308899E+01</pdfrwt>
<pdfrwt beam="2">  1       21 0.47772238E-04 0.80308899E+01</pdfrwt>
<totfact> 0.44808073E+07</totfact>
</mgrwt>
</event>
<event>
 4    1  0.4043737E+006  0.1237131E+02  0.7546771E-02  0.1960795E+00
         21   -1    0    0  501  502  0.00000000000E+00  0.00000000000E+00  0.54587160156E+03  0.54587160156E+03  0.00000000000E+00 0.  1.
         21   -1    0    0  502  503 -0.00000000000E+00 -0.00000000000E+00 -0.58369112155E+00  0.58369112155E+00  0.00000000000E+00 0. -1.
          5    1    1    2  501    0 -0.11436125723E+02 -0.41746996737E+00  0.46960493020E+03  0.46976785727E+03  0.47000000000E+01 0.  1.
         -5    1    1    2    0  503  0.11436125723E+02  0.41746996737E+00  0.75682980235E+02  0.76687435412E+02  0.47000000000E+01 0. -1.
<mgrwt>
<rscale>  2 0.12371308E+02</rscale>
<asrwt>0</asrwt>
<pdfrwt beam="1">  1       21 0.83979838E-01 0.12371308E+02</pdfrwt>
<pdfrwt beam="2">  1       21 0.89799071E-04 0.12371308E+02</pdfrwt>
<totfact> 0.11162299E+08</totfact>
</mgrwt>
</event>
<event>
 4    1  0.4043737E+006  0.8072321E+01  0.7546771E-02  0.2204788E+00
         21   -1    0    0  501  502  0.00000000000E+00  0.00000000000E+00  0.31000257761E+01  0.31000257761E+01  0.00000000000E+00 0.  1.
         21   -1    0    0  502  503 -0.00000000000E+00 -0.00000000000E+00 -0.23386007571E+02  0.23386007571E+02  0.00000000000E+00 0. -1.
          5    1    1    2  501    0 -0.35607214412E-01  0.65628574341E+01 -0.59306630469E+01  0.10016742472E+02  0.47000000000E+01 0.  1.
         -5    1    1    2    0  503  0.35607214412E-01 -0.65628574341E+01 -0.14355318748E+02  0.16469290875E+02  0.47000000000E+01 0. -1.
<mgrwt>
<rscale>  2 0.80723210E+01</rscale>
<asrwt>0</asrwt>
<pdfrwt beam="1">  1       21 0.47692704E-03 0.80723210E+01</pdfrwt>
<pdfrwt beam="2">  1       21 0.35978473E-02 0.80723210E+01</pdfrwt>
<totfact> 0.17757580E+09</totfact>
</mgrwt>
</event>
<event>
 4    1  0.4043737E+006  0.5221847E+01  0.7546771E-02  0.2529242E+00
         21   -1    0    0  503  502  0.00000000000E+00  0.00000000000E+00  0.17631380181E+00  0.17631380181E+00  0.00000000000E+00 0.  1.
         21   -1    0    0  501  503 -0.00000000000E+00 -0.00000000000E+00 -0.15668247615E+03  0.15668247615E+03  0.00000000000E+00 0. -1.
          5    1    1    2  501    0  0.15516906594E+01  0.16643151603E+01 -0.87176283171E+02  0.87332537100E+02  0.47000000000E+01 0. -1.
         -5    1    1    2    0  502 -0.15516906594E+01 -0.16643151603E+01 -0.69329879175E+02  0.69526252849E+02  0.47000000000E+01 0.  1.
<mgrwt>
<rscale>  2 0.52218473E+01</rscale>
<asrwt>0</asrwt>
<pdfrwt beam="1">  1       21 0.27125134E-04 0.52218473E+01</pdfrwt>
<pdfrwt beam="2">  1       21 0.24105055E-01 0.52218473E+01</pdfrwt>
<totfact> 0.32574482E+09</totfact>
</mgrwt>
</event>
<event>
 4    1  0.4043737E+006  0.4814878E+01  0.7546771E-02  0.2601080E+00
         21   -1    0    0  503  502  0.00000000000E+00  0.00000000000E+00  0.44293351456E+00  0.44293351456E+00  0.00000000000E+00 0. -1.
         21   -1    0    0  501  503 -0.00000000000E+00 -0.00000000000E+00 -0.16504904211E+03  0.16504904211E+03  0.00000000000E+00 0. -1.
          5    1    1    2  501    0 -0.10392710923E+01  0.11388395402E+00 -0.15068165279E+03  0.15075856043E+03  0.47000000000E+01 0. -1.
         -5    1    1    2    0  502  0.10392710923E+01 -0.11388395402E+00 -0.13924455805E+02  0.14733415199E+02  0.47000000000E+01 0. -1.
<mgrwt>
<rscale>  2 0.48148784E+01</rscale>
<asrwt>0</asrwt>
<pdfrwt beam="1">  1       21 0.68143543E-04 0.48148784E+01</pdfrwt>
<pdfrwt beam="2">  1       21 0.25392188E-01 0.48148784E+01</pdfrwt>
<totfact> 0.82041191E+08</totfact>
</mgrwt>
</event>
<event>
 4    1  0.4043737E+006  0.1236531E+02  0.7546771E-02  0.1961040E+00
         21   -1    0    0  501  502  0.00000000000E+00  0.00000000000E+00  0.32936304063E+02  0.32936304063E+02  0.00000000000E+00 0. -1.
         21   -1    0    0  502  503 -0.00000000000E+00 -0.00000000000E+00 -0.91346805254E+01  0.91346805254E+01  0.00000000000E+00 0.  1.
          5    1    1    2  501    0  0.57526378499E+01 -0.98852419444E+01  0.26652554115E+02  0.29381277906E+02  0.47000000000E+01 0. -1.
         -5    1    1    2    0  503 -0.57526378499E+01  0.98852419444E+01 -0.28509305773E+01  0.12689706683E+02  0.47000000000E+01 0.  1.
<mgrwt>
<rscale>  2 0.12365308E+02</rscale>
<asrwt>0</asrwt>
<pdfrwt beam="1">  1       21 0.50671236E-02 0.12365308E+02</pdfrwt>
<pdfrwt beam="2">  1       21 0.14053355E-02 0.12365308E+02</pdfrwt>
<totfact> 0.28237816E+08</totfact>
</mgrwt>
</event>
<event>
 4    1  0.4043737E+006  0.6765894E+01  0.7546771E-02  0.2325263E+00
         21   -1    0    0  503  502  0.00000000000E+00  0.00000000000E+00  0.96610973056E+01  0.96610973056E+01  0.00000000000E+00 0. -1.
         21   -1    0    0  501  503 -0.00000000000E+00 -0.00000000000E+00 -0.14711247707E+02  0.14711247707E+02  0.00000000000E+00 0. -1.
          5    1    1    2  501    0  0.11605734038E+01 -0.47265618994E+01 -0.12558611391E+02  0.14265203752E+02  0.47000000000E+01 0. -1.
         -5    1    1    2    0  502 -0.11605734038E+01  0.47265618994E+01  0.75084609900E+01  0.10107141260E+02  0.47000000000E+01 0. -1.
<mgrwt>
<rscale>  2 0.67658937E+01</rscale>
<asrwt>0</asrwt>
<pdfrwt beam="1">  1       21 0.14863227E-02 0.67658937E+01</pdfrwt>
<pdfrwt beam="2">  1       21 0.22632689E-02 0.67658937E+01</pdfrwt>
<totfact> 0.61492069E+08</totfact>
</mgrwt>
</event>
<event>
 4    1  0.4043737E+006  0.7670257E+01  0.7546771E-02  0.2238296E+00
         21   -1    0    0  503  502  0.00000000000E+00  0.00000000000E+00  0.12922603451E+03  0.12922603451E+03  0.00000000000E+00 0. -1.
         21   -1    0    0  501  503 -0.00000000000E+00 -0.00000000000E+00 -0.49579956162E+00  0.49579956162E+00  0.00000000000E+00 0.  1.
          5    1    1    2  501    0  0.32364986847E+01  0.51252242490E+01  0.45820777410E+02  0.46458330682E+02  0.47000000000E+01 0.  1.
         -5    1    1    2    0  502 -0.32364986847E+01 -0.51252242490E+01  0.82909457539E+02  0.83263503390E+02  0.47000000000E+01 0. -1.
<mgrwt>
<rscale>  2 0.76702573E+01</rscale>
<asrwt>0</asrwt>
<pdfrwt beam="1">  1       21 0.19880902E-01 0.76702573E+01</pdfrwt>
<pdfrwt beam="2">  1       21 0.76276959E-04 0.76702573E+01</pdfrwt>
<totfact> 0.15104207E+09</totfact>
</mgrwt>
</event>
<event>
 4    1  0.4043737E+006  0.1233626E+02  0.7546771E-02  0.1962231E+00
         21   -1    0    0  503  502  0.00000000000E+00  0.00000000000E+00  0.20951272675E+03  0.20951272675E+03  0.00000000000E+00 0. -1.
         21   -1    0    0  501  503 -0.00000000000E+00 -0.00000000000E+00 -0.74285463287E+00  0.74285463287E+00  0.00000000000E+00 0.  1.
          5    1    1    2  501    0 -0.94250877936E+01  0.64234831640E+01  0.12004620156E+03  0.12067839047E+03  0.47000000000E+01 0. -1.
         -5    1    1    2    0  502  0.94250877936E+01 -0.64234831640E+01  0.88723670554E+02  0.89577190916E+02  0.47000000000E+01 0.  1.
<mgrwt>
<rscale>  2 0.12336264E+02</rscale>
<asrwt>0</asrwt>
<pdfrwt beam="1">  1       21 0.32232680E-01 0.12336264E+02</pdfrwt>
<pdfrwt beam="2">  1       21 0.11428549E-03 0.12336264E+02</pdfrwt>
<totfact> 0.49314039E+08</totfact>
</mgrwt>
</event>
<event>
 4    1  0.4043737E+006  0.6327761E+01  0.7546771E-02  0.2374622E+00
         21   -1    0    0  503  502  0.00000000000E+00  0.00000000000E+00  0.14094988343E+03  0.14094988343E+03  0.00000000000E+00 0. -1.
         21   -1    0    0  501  503 -0.00000000000E+00 -0.00000000000E+00 -0.92196177484E+00  0.92196177484E+00  0.00000000000E+00 0. -1.
          5    1    1    2  501    0  0.39673299962E+01  0.14868949745E+01  0.11010020163E+02  0.12698862467E+02  0.47000000000E+01 0. -1.
         -5    1    1    2    0  502 -0.39673299962E+01 -0.14868949745E+01  0.12901790149E+03  0.12917298274E+03  0.47000000000E+01 0. -1.
<mgrwt>
<rscale>  2 0.63277614E+01</rscale>
<asrwt>0</asrwt>
<pdfrwt beam="1">  1       21 0.21684580E-01 0.63277614E+01</pdfrwt>
<pdfrwt beam="2">  1       21 0.14184039E-03 0.63277614E+01</pdfrwt>
<totfact> 0.49483737E+08</totfact>
</mgrwt>
</event>
<event>
 4    1  0.4043737E+006  0.6909754E+01  0.7546771E-02  0.2310189E+00
         21   -1    0    0  503  502  0.00000000000E+00  0.00000000000E+00  0.18940532656E+04  0.18940532656E+04  0.00000000000E+00 0. -1.
         21   -1    0    0  501  503 -0.00000000000E+00 -0.00000000000E+00 -0.29335423971E-01  0.29335423971E-01  0.00000000000E+00 0. -1.
          5    1    1    2  501    0 -0.39657290065E+01  0.31508253606E+01  0.59176645330E+03  0.59180679276E+03  0.47000000000E+01 0. -1.
         -5    1    1    2    0  502  0.39657290065E+01 -0.31508253606E+01  0.13022574769E+04  0.13022758083E+04  0.47000000000E+01 0. -1.
<mgrwt>
<rscale>  2 0.69097545E+01</rscale>
<asrwt>0</asrwt>
<pdfrwt beam="1">  1       21 0.29129490E+00 0.69097545E+01</pdfrwt>
<pdfrwt beam="2">  1       21 0.45146591E-05 0.69097545E+01</pdfrwt>
<totfact> 0.30629138E+08</totfact>
</mgrwt>
</event>
<event>
 4    1  0.4043737E+006  0.5084979E+01  0.7546771E-02  0.2552296E+00
         21   -1    0    0  503  502  0.00000000000E+00  0.00000000000E+00  0.71705705548E+02  0.71705705548E+02  0.00000000000E+00 0.  1.
         21   -1    0    0  501  503 -0.00000000000E+00 -0.00000000000E+00 -0.37166733894E+00  0.37166733894E+00  0.00000000000E+00 0.  1.
          5    1    1    2  501    0  0.19397930853E+01  0.64943033048E-01  0.29447876860E+02  0.29883682276E+02  0.47000000000E+01 0.  1.
         -5    1    1    2    0  502 -0.19397930853E+01 -0.64943033048E-01  0.41886161349E+02  0.42193690611E+02  0.47000000000E+01 0.  1.
<mgrwt>
<rscale>  2 0.50849793E+01</rscale>
<asrwt>0</asrwt>
<pdfrwt beam="1">  1       21 0.11031636E-01 0.50849793E+01</pdfrwt>
<pdfrwt beam="2">  1       21 0.57179648E-04 0.50849793E+01</pdfrwt>
<totfact> 0.40301361E+09</totfact>
</mgrwt>
</event>
<event>
 4    1  0.4043737E+006  0.4776143E+01  0.7546771E-02  0.2608467E+00
         21   -1    0    0  501  502  0.00000000000E+00  0.00000000000E+00  0.64127387673E+00  0.64127387673E+00  0.00000000000E+00 0. -1.
         21   -1    0    0  502  503 -0.00000000000E+00 -0.00000000000E+00 -0.42553079650E+02  0.42553079650E+02  0.00000000000E+00 0.  1.
          5    1    1    2  501    0  0.80626883621E+00 -0.26734538758E+00 -0.12208370264E+02  0.13109380134E+02  0.47000000000E+01 0. -1.
         -5    1    1    2    0  503 -0.80626883621E+00  0.26734538758E+00 -0.29703435510E+02  0.30084973393E+02  0.47000000000E+01 0. -1.
<mgrwt>
<rscale>  2 0.47761431E+01</rscale>
<asrwt>0</asrwt>
<pdfrwt beam="1">  1       21 0.98657559E-04 0.47761431E+01</pdfrwt>
<pdfrwt beam="2">  1       21 0.65466250E-02 0.47761431E+01</pdfrwt>
<totfact> 0.40078337E+09</totfact>
</mgrwt>
</event>
<event>
 4    1  0.4043737E+006  0.5249343E+01  0.7546771E-02  0.2524735E+00
         21   -1    0    0  501  502  0.00000000000E+00  0.00000000000E+00  0.47152258263E+00  0.47152258263E+00  0.00000000000E+00 0.  1.
         21   -1    0    0  502  503 -0.00000000000E+00 -0.00000000000E+00 -0.58515938164E+02  0.58515938164E+02  0.00000000000E+00 0. -1.
          5    1    1    2  501    0  0.87690234089E+00 -0.21671731688E+01 -0.30087396209E+02  0.30541889397E+02  0.47000000000E+01 0. -1.
         -5    1    1    2    0  503 -0.87690234089E+00  0.21671731688E+01 -0.27957019372E+02  0.28445571350E+02  0.47000000000E+01 0. -1.
<mgrwt>
<rscale>  2 0.52493426E+01</rscale>
<asrwt>0</asrwt>
<pdfrwt beam="1">  1       21 0.72541925E-04 0.52493426E+01</pdfrwt>
<pdfrwt beam="2">  1       21 0.90024534E-02 0.52493426E+01</pdfrwt>
<totfact> 0.41276380E+09</totfact>
</mgrwt>
</event>
<event>
 4    1  0.4043737E+006  0.5140771E+01  0.7546771E-02  0.2542771E+00
         21   -1    0    0  501  502  0.00000000000E+00  0.00000000000E+00  0.34199240036E+01  0.34199240036E+01  0.00000000000E+00 0. -1.
         21   -1    0    0  502  503 -0.00000000000E+00 -0.00000000000E+00 -0.33080770137E+02  0.33080770137E+02  0.00000000000E+00 0. -1.
          5    1    1    2  501    0 -0.16887890929E+01 -0.12188200259E+01  0.11467575013E+01  0.52671228980E+01  0.47000000000E+01 0. -1.
         -5    1    1    2    0  503  0.16887890929E+01  0.12188200259E+01 -0.30807603635E+02  0.31233571243E+02  0.47000000000E+01 0. -1.
<mgrwt>
<rscale>  2 0.51407714E+01</rscale>
<asrwt>0</asrwt>
<pdfrwt beam="1">  1       21 0.52614217E-03 0.51407714E+01</pdfrwt>
<pdfrwt beam="2">  1       21 0.50893491E-02 0.51407714E+01</pdfrwt>
<totfact> 0.65146346E+08</totfact>
</mgrwt>
</event>
<event>
 4    1  0.4043737E+006  0.6075744E+01  0.7546771E-02  0.2405668E+00
         21   -1    0    0  501  502  0.00000000000E+00  0.00000000000E+00  0.34391999941E+02  0.34391999941E+02  0.00000000000E+00 0. -1.
         21   -1    0    0  502  503 -0.00000000000E+00 -0.00000000000E+00 -0.13150975246E+01  0.13150975246E+01  0.00000000000E+00 0. -1.
          5    1    1    2  501    0 -0.34055125374E+01 -0.17964275995E+01  0.24193116563E+02  0.24944369240E+02  0.47000000000E+01 0. -1.
         -5    1    1    2    0  503  0.34055125374E+01  0.17964275995E+01  0.88837858533E+01  0.10762728225E+02  0.47000000000E+01 0. -1.
<mgrwt>
<rscale>  2 0.60757442E+01</rscale>
<asrwt>0</asrwt>
<pdfrwt beam="1">  1       21 0.52910762E-02 0.60757442E+01</pdfrwt>
<pdfrwt beam="2">  1       21 0.20232272E-03 0.60757442E+01</pdfrwt>
<totfact> 0.26347676E+09</totfact>
</mgrwt>
</event>
<event>
 4    1  0.4043737E+006  0.5812056E+01  0.7546771E-02  0.2440546E+00
         21   -1    0    0  503  502  0.00000000000E+00  0.00000000000E+00  0.30130301938E+00  0.30130301938E+00  0.00000000000E+00 0.  1.
         21   -1    0    0  501  503 -0.00000000000E+00 -0.00000000000E+00 -0.11619338726E+03  0.11619338726E+03  0.00000000000E+00 0. -1.
          5    1    1    2  501    0  0.26713737637E+01  0.21339525180E+01 -0.68861327889E+02  0.69106168102E+02  0.47000000000E+01 0. -1.
         -5    1    1    2    0  502 -0.26713737637E+01 -0.21339525180E+01 -0.47030756356E+02  0.47388522182E+02  0.47000000000E+01 0.  1.
<mgrwt>
<rscale>  2 0.58120557E+01</rscale>
<asrwt>0</asrwt>
<pdfrwt beam="1">  1       21 0.46354327E-04 0.58120557E+01</pdfrwt>
<pdfrwt beam="2">  1       21 0.17875900E-01 0.58120557E+01</pdfrwt>
<totfact> 0.28404686E+09</totfact>
</mgrwt>
</event>
<event>
 4    1  0.4043737E+006  0.5118344E+01  0.7546771E-02  0.2546578E+00
         21   -1    0    0  501  502  0.00000000000E+00  0.00000000000E+00  0.36317333055E+02  0.36317333055E+02  0.00000000000E+00 0.  1.
         21   -1    0    0  502  503 -0.00000000000E+00 -0.00000000000E+00 -0.34485489936E+01  0.34485489936E+01  0.00000000000E+00 0.  1.
          5    1    1    2  501    0  0.87362865786E+00 -0.18287202081E+01  0.34115968250E+02  0.34497778686E+02  0.47000000000E+01 0.  1.
         -5    1    1    2    0  503 -0.87362865786E+00  0.18287202081E+01 -0.12471841891E+01  0.52681033620E+01  0.47000000000E+01 0.  1.
<mgrwt>
<rscale>  2 0.51183439E+01</rscale>
<asrwt>0</asrwt>
<pdfrwt beam="1">  1       21 0.55872817E-02 0.51183439E+01</pdfrwt>
<pdfrwt beam="2">  1       21 0.53054602E-03 0.51183439E+01</pdfrwt>
<totfact> 0.55932590E+08</totfact>
</mgrwt>
</event>
<event>
 4    1  0.4043737E+006  0.4811394E+01  0.7546771E-02  0.2601741E+00
         21   -1    0    0  501  502  0.00000000000E+00  0.00000000000E+00  0.64339411147E+03  0.64339411147E+03  0.00000000000E+00 0. -1.
         21   -1    0    0  502  503 -0.00000000000E+00 -0.00000000000E+00 -0.61890072358E-01  0.61890072358E-01  0.00000000000E+00 0. -1.
          5    1    1    2  501    0 -0.24314341005E+00 -0.10001945316E+01  0.52983231967E+03  0.52985416529E+03  0.47000000000E+01 0. -1.
         -5    1    1    2    0  503  0.24314341005E+00  0.10001945316E+01  0.11349990172E+03  0.11360183625E+03  0.47000000000E+01 0. -1.
<mgrwt>
<rscale>  2 0.48113935E+01</rscale>
<asrwt>0</asrwt>
<pdfrwt beam="1">  1       21 0.98978353E-01 0.48113935E+01</pdfrwt>
<pdfrwt beam="2">  1       21 0.95220648E-05 0.48113935E+01</pdfrwt>
<totfact> 0.97908732E+08</totfact>
</mgrwt>
</event>
<event>
 4    1  0.4043737E+006  0.5904918E+01  0.7546771E-02  0.2427965E+00
         21   -1    0    0  501  502  0.00000000000E+00  0.00000000000E+00  0.72723221196E+00  0.72723221196E+00  0.00000000000E+00 0.  1.
         21   -1    0    0  502  503 -0.00000000000E+00 -0.00000000000E+00 -0.12492527041E+03  0.12492527041E+03  0.00000000000E+00 0. -1.
          5    1    1    2  501    0 -0.27908478487E+01 -0.22336560727E+01 -0.12781387449E+02  0.14079485655E+02  0.47000000000E+01 0.  1.
         -5    1    1    2    0  503  0.27908478487E+01  0.22336560727E+01 -0.11141665075E+03  0.11157301697E+03  0.47000000000E+01 0. -1.
<mgrwt>
<rscale>  2 0.59049175E+01</rscale>
<asrwt>0</asrwt>
<pdfrwt beam="1">  1       21 0.11188204E-03 0.59049175E+01</pdfrwt>
<pdfrwt beam="2">  1       21 0.19219244E-01 0.59049175E+01</pdfrwt>
<totfact> 0.78776637E+08</totfact>
</mgrwt>
</event>
<event>
 4    1  0.4043737E+006  0.5140669E+01  0.7546771E-02  0.2542788E+00
         21   -1    0    0  501  502  0.00000000000E+00  0.00000000000E+00  0.60203560363E+01  0.60203560363E+01  0.00000000000E+00 0. -1.
         21   -1    0    0  502  503 -0.00000000000E+00 -0.00000000000E+00 -0.43909425167E+01  0.43909425167E+01  0.00000000000E+00 0. -1.
          5    1    1    2  501    0  0.12907112285E+01 -0.16341787522E+01  0.90839019340E+00  0.52203111414E+01  0.47000000000E+01 0. -1.
         -5    1    1    2    0  503 -0.12907112285E+01  0.16341787522E+01  0.72102332621E+00  0.51909874115E+01  0.47000000000E+01 0. -1.
<mgrwt>
<rscale>  2 0.51406688E+01</rscale>
<asrwt>0</asrwt>
<pdfrwt beam="1">  1       21 0.92620862E-03 0.51406688E+01</pdfrwt>
<pdfrwt beam="2">  1       21 0.67552962E-03 0.51406688E+01</pdfrwt>
<totfact> 0.52400066E+09</totfact>
</mgrwt>
</event>
<event>
 4    1  0.4043737E+006  0.5259173E+01  0.7546771E-02  0.2523133E+00
         21   -1    0    0  501  502  0.00000000000E+00  0.00000000000E+00  0.13430990937E+02  0.13430990937E+02  0.00000000000E+00 0. -1.
         21   -1    0    0  502  503 -0.00000000000E+00 -0.00000000000E+00 -0.21233344539E+01  0.21233344539E+01  0.00000000000E+00 0. -1.
          5    1    1    2  501    0  0.18940639811E+01 -0.14076293164E+01  0.70040431844E+01  0.87587396117E+01  0.47000000000E+01 0. -1.
         -5    1    1    2    0  503 -0.18940639811E+01  0.14076293164E+01  0.43036132986E+01  0.67955857791E+01  0.47000000000E+01 0. -1.
<mgrwt>
<rscale>  2 0.52591728E+01</rscale>
<asrwt>0</asrwt>
<pdfrwt beam="1">  1       21 0.20663062E-02 0.52591728E+01</pdfrwt>
<pdfrwt beam="2">  1       21 0.32666685E-03 0.52591728E+01</pdfrwt>
<totfact> 0.47035365E+09</totfact>
</mgrwt>
</event>
<event>
 4    1  0.4043737E+006  0.5407727E+01  0.7546771E-02  0.2499537E+00
         21   -1    0    0  501  502  0.00000000000E+00  0.00000000000E+00  0.23181137259E+02  0.23181137259E+02  0.00000000000E+00 0.  1.
         21   -1    0    0  502  503 -0.00000000000E+00 -0.00000000000E+00 -0.17435987746E+01  0.17435987746E+01  0.00000000000E+00 0.  1.
          5    1    1    2  501    0  0.26712224162E+01  0.13446073785E+00  0.17271698965E+02  0.18098483197E+02  0.47000000000E+01 0.  1.
         -5    1    1    2    0  503 -0.26712224162E+01 -0.13446073785E+00  0.41658395189E+01  0.68262528362E+01  0.47000000000E+01 0.  1.
<mgrwt>
<rscale>  2 0.54077268E+01</rscale>
<asrwt>0</asrwt>
<pdfrwt beam="1">  1       21 0.35663286E-02 0.54077268E+01</pdfrwt>
<pdfrwt beam="2">  1       21 0.26824598E-03 0.54077268E+01</pdfrwt>
<totfact> 0.28865484E+09</totfact>
</mgrwt>
</event>
<event>
 4    1  0.4043737E+006  0.7625759E+01  0.7546771E-02  0.2242179E+00
         21   -1    0    0  503  502  0.00000000000E+00  0.00000000000E+00  0.15746386249E+03  0.15746386249E+03  0.00000000000E+00 0. -1.
         21   -1    0    0  501  503 -0.00000000000E+00 -0.00000000000E+00 -0.92116434066E+00  0.92116434066E+00  0.00000000000E+00 0. -1.
          5    1    1    2  501    0 -0.57174520261E+01  0.18365561157E+01  0.16975684768E+02  0.18609837973E+02  0.47000000000E+01 0. -1.
         -5    1    1    2    0  502  0.57174520261E+01 -0.18365561157E+01  0.13956701339E+03  0.13977518886E+03  0.47000000000E+01 0. -1.
<mgrwt>
<rscale>  2 0.76257587E+01</rscale>
<asrwt>0</asrwt>
<pdfrwt beam="1">  1       21 0.24225188E-01 0.76257587E+01</pdfrwt>
<pdfrwt beam="2">  1       21 0.14171772E-03 0.76257587E+01</pdfrwt>
<totfact> 0.46607003E+08</totfact>
</mgrwt>
</event>
<event>
 4    1  0.4043737E+006  0.4863341E+01  0.7546771E-02  0.2591983E+00
         21   -1    0    0  503  502  0.00000000000E+00  0.00000000000E+00  0.96207855190E+02  0.96207855190E+02  0.00000000000E+00 0. -1.
         21   -1    0    0  501  503 -0.00000000000E+00 -0.00000000000E+00 -0.24728974326E+00  0.24728974326E+00  0.00000000000E+00 0. -1.
          5    1    1    2  501    0  0.83443194022E+00  0.93048775535E+00  0.44292204661E+02  0.44558405243E+02  0.47000000000E+01 0.  1.
         -5    1    1    2    0  502 -0.83443194022E+00 -0.93048775535E+00  0.51668360786E+02  0.51896739690E+02  0.47000000000E+01 0.  1.
<mgrwt>
<rscale>  2 0.48633408E+01</rscale>
<asrwt>0</asrwt>
<pdfrwt beam="1">  1       21 0.14801179E-01 0.48633408E+01</pdfrwt>
<pdfrwt beam="2">  1       21 0.38044653E-04 0.48633408E+01</pdfrwt>
<totfact> 0.42085984E+09</totfact>
</mgrwt>
</event>
<event>
 4    1  0.4043737E+006  0.7979824E+01  0.7546771E-02  0.2212255E+00
         21   -1    0    0  503  502  0.00000000000E+00  0.00000000000E+00  0.11640824316E+02  0.11640824316E+02  0.00000000000E+00 0. -1.
         21   -1    0    0  501  503 -0.00000000000E+00 -0.00000000000E+00 -0.71270319080E+01  0.71270319080E+01  0.00000000000E+00 0. -1.
          5    1    1    2  501    0  0.36688823131E+01  0.53034798878E+01 -0.22675976756E+01  0.82957576849E+01  0.47000000000E+01 0. -1.
         -5    1    1    2    0  502 -0.36688823131E+01 -0.53034798878E+01  0.67813900836E+01  0.10472098539E+02  0.47000000000E+01 0. -1.
<mgrwt>
<rscale>  2 0.79798243E+01</rscale>
<asrwt>0</asrwt>
<pdfrwt beam="1">  1       21 0.17908960E-02 0.79798243E+01</pdfrwt>
<pdfrwt beam="2">  1       21 0.10964664E-02 0.79798243E+01</pdfrwt>
<totfact> 0.15051512E+09</totfact>
</mgrwt>
</event>
<event>
 4    1  0.4043737E+006  0.1059672E+02  0.7546771E-02  0.2042538E+00
         21   -1    0    0  503  502  0.00000000000E+00  0.00000000000E+00  0.72931173724E+01  0.72931173724E+01  0.00000000000E+00 0. -1.
         21   -1    0    0  501  503 -0.00000000000E+00 -0.00000000000E+00 -0.27710928403E+02  0.27710928403E+02  0.00000000000E+00 0. -1.
          5    1    1    2  501    0 -0.58059631691E+01 -0.75160705187E+01 -0.21876058681E+02  0.24307457040E+02  0.47000000000E+01 0. -1.
         -5    1    1    2    0  502  0.58059631691E+01  0.75160705187E+01  0.14582476499E+01  0.10696588735E+02  0.47000000000E+01 0. -1.
<mgrwt>
<rscale>  2 0.10596722E+02</rscale>
<asrwt>0</asrwt>
<pdfrwt beam="1">  1       21 0.11220181E-02 0.10596722E+02</pdfrwt>
<pdfrwt beam="2">  1       21 0.42632197E-02 0.10596722E+02</pdfrwt>
<totfact> 0.47523823E+08</totfact>
</mgrwt>
</event>
<event>
 4    1  0.4043737E+006  0.9377310E+01  0.7546771E-02  0.2112260E+00
         21   -1    0    0  503  502  0.00000000000E+00  0.00000000000E+00  0.15553542228E+00  0.15553542228E+00  0.00000000000E+00 0.  1.
         21   -1    0    0  501  503 -0.00000000000E+00 -0.00000000000E+00 -0.61860522253E+03  0.61860522253E+03  0.00000000000E+00 0. -1.
          5    1    1    2  501    0 -0.24477742018E+01  0.77364302792E+01 -0.39998904963E+03  0.40009895498E+03  0.47000000000E+01 0. -1.
         -5    1    1    2    0  502  0.24477742018E+01 -0.77364302792E+01 -0.21846063748E+03  0.21866180297E+03  0.47000000000E+01 0.  1.
<mgrwt>
<rscale>  2 0.93773105E+01</rscale>
<asrwt>0</asrwt>
<pdfrwt beam="1">  1       21 0.23928462E-04 0.93773105E+01</pdfrwt>
<pdfrwt beam="2">  1       21 0.95170292E-01 0.93773105E+01</pdfrwt>
<totfact> 0.47074514E+08</totfact>
</mgrwt>
</event>
<event>
 4    1  0.4043737E+006  0.4782766E+01  0.7546771E-02  0.2607196E+00
         21   -1    0    0  501  502  0.00000000000E+00  0.00000000000E+00  0.38015436305E+01  0.38015436305E+01  0.00000000000E+00 0.  1.
         21   -1    0    0  502  503 -0.00000000000E+00 -0.00000000000E+00 -0.89589335877E+01  0.89589335877E+01  0.00000000000E+00 0.  1.
          5    1    1    2  501    0  0.18393002957E+00  0.86661693869E+00  0.10773069442E+01  0.49025957845E+01  0.47000000000E+01 0.  1.
         -5    1    1    2    0  503 -0.18393002957E+00 -0.86661693869E+00 -0.62346969014E+01  0.78578814337E+01  0.47000000000E+01 0.  1.
<mgrwt>
<rscale>  2 0.47827665E+01</rscale>
<asrwt>0</asrwt>
<pdfrwt beam="1">  1       21 0.58485287E-03 0.47827665E+01</pdfrwt>
<pdfrwt beam="2">  1       21 0.13782975E-02 0.47827665E+01</pdfrwt>
<totfact> 0.33979434E+09</totfact>
</mgrwt>
</event>
<event>
 4    1  0.4043737E+006  0.1370462E+02  0.7546771E-02  0.1910379E+00
         21   -1    0    0  501  502  0.00000000000E+00  0.00000000000E+00  0.40304067138E+03  0.40304067138E+03  0.00000000000E+00 0. -1.
         21   -1    0    0  502  503 -0.00000000000E+00 -0.00000000000E+00 -0.21762356465E+01  0.21762356465E+01  0.00000000000E+00 0.  1.
          5    1    1    2  501    0  0.12413045394E+02  0.34121827859E+01  0.38004310690E+03  0.38029012581E+03  0.47000000000E+01 0. -1.
         -5    1    1    2    0  503 -0.12413045394E+02 -0.34121827859E+01  0.20821328828E+02  0.24926781210E+02  0.47000000000E+01 0.  1.
<mgrwt>
<rscale>  2 0.13704623E+02</rscale>
<asrwt>0</asrwt>
<pdfrwt beam="1">  1       21 0.62006198E-01 0.13704623E+02</pdfrwt>
<pdfrwt beam="2">  1       21 0.33480580E-03 0.13704623E+02</pdfrwt>
<totfact> 0.33162709E+07</totfact>
</mgrwt>
</event>
<event>
 4    1  0.4043737E+006  0.8751892E+01  0.7546771E-02  0.2153856E+00
         21   -1    0    0  503  502  0.00000000000E+00  0.00000000000E+00  0.13516231959E+01  0.13516231959E+01  0.00000000000E+00 0.  1.
         21   -1    0    0  501  503 -0.00000000000E+00 -0.00000000000E+00 -0.77193189058E+02  0.77193189058E+02  0.00000000000E+00 0. -1.
          5    1    1    2  501    0 -0.73445044040E+01  0.75090936275E+00 -0.58170889092E+02  0.58825572225E+02  0.47000000000E+01 0. -1.
         -5    1    1    2    0  502  0.73445044040E+01 -0.75090936275E+00 -0.17670676769E+02  0.19719240028E+02  0.47000000000E+01 0.  1.
<mgrwt>
<rscale>  2 0.87518918E+01</rscale>
<asrwt>0</asrwt>
<pdfrwt beam="1">  1       21 0.20794196E-03 0.87518918E+01</pdfrwt>
<pdfrwt beam="2">  1       21 0.11875879E-01 0.87518918E+01</pdfrwt>
<totfact> 0.95453715E+08</totfact>
</mgrwt>
</event>
<event>
 4    1  0.4043737E+006  0.6398712E+01  0.7546771E-02  0.2366250E+00
         21   -1    0    0  503  502  0.00000000000E+00  0.00000000000E+00  0.45480623641E+02  0.45480623641E+02  0.00000000000E+00 0.  1.
         21   -1    0    0  501  503 -0.00000000000E+00 -0.00000000000E+00 -0.14399854042E+01  0.14399854042E+01  0.00000000000E+00 0.  1.
          5    1    1    2  501    0 -0.30861720285E+01  0.30543506433E+01  0.76572010166E+01  0.99787896586E+01  0.47000000000E+01 0.  1.
         -5    1    1    2    0  502  0.30861720285E+01 -0.30543506433E+01  0.36383437220E+02  0.36941819387E+02  0.47000000000E+01 0.  1.
<mgrwt>
<rscale>  2 0.63987120E+01</rscale>
<asrwt>0</asrwt>
<pdfrwt beam="1">  1       21 0.69970179E-02 0.63987120E+01</pdfrwt>
<pdfrwt beam="2">  1       21 0.22153625E-03 0.63987120E+01</pdfrwt>
<totfact> 0.15981055E+09</totfact>
</mgrwt>
</event>
<event>
 4    1  0.4043737E+006  0.8628499E+01  0.7546771E-02  0.2162626E+00
         21   -1    0    0  503  502  0.00000000000E+00  0.00000000000E+00  0.17954020112E+04  0.17954020112E+04  0.00000000000E+00 0.  1.
         21   -1    0    0  501  503 -0.00000000000E+00 -0.00000000000E+00 -0.50515741077E-01  0.50515741077E-01  0.00000000000E+00 0. -1.
          5    1    1    2  501    0 -0.26496362875E+01  0.67335293012E+01  0.51773965025E+03  0.51781154528E+03  0.47000000000E+01 0. -1.
         -5    1    1    2    0  502  0.26496362875E+01 -0.67335293012E+01  0.12776118452E+04  0.12776409817E+04  0.47000000000E+01 0.  1.
<mgrwt>
<rscale>  2 0.86284987E+01</rscale>
<asrwt>0</asrwt>
<pdfrwt beam="1">  1       21 0.27616460E+00 0.86284987E+01</pdfrwt>
<pdfrwt beam="2">  1       21 0.77730904E-05 0.86284987E+01</pdfrwt>
<totfact> 0.18296933E+08</totfact>
</mgrwt>
</event>
<event>
 4    1  0.4043737E+006  0.5322616E+01  0.7546771E-02  0.2512919E+00
         21   -1    0    0  501  502  0.00000000000E+00  0.00000000000E+00  0.68443609514E-01  0.68443609514E-01  0.00000000000E+00 0.  1.
         21   -1    0    0  502  503 -0.00000000000E+00 -0.00000000000E+00 -0.46806724986E+03  0.46806724986E+03  0.00000000000E+00 0.  1.
          5    1    1    2  501    0 -0.13387486624E+00 -0.24944566459E+01 -0.15438851663E+03  0.15448023920E+03  0.47000000000E+01 0.  1.
         -5    1    1    2    0  503  0.13387486624E+00  0.24944566459E+01 -0.31361028963E+03  0.31365545427E+03  0.47000000000E+01 0.  1.
<mgrwt>
<rscale>  2 0.53226156E+01</rscale>
<asrwt>0</asrwt>
<pdfrwt beam="1">  1       21 0.10530014E-04 0.53226156E+01</pdfrwt>
<pdfrwt beam="2">  1       21 0.72008785E-01 0.53226156E+01</pdfrwt>
<totfact> 0.17211894E+09</totfact>
</mgrwt>
</event>
<event>
 4    1  0.4043737E+006  0.5948741E+01  0.7546771E-02  0.2422143E+00
         21   -1    0    0  501  502  0.00000000000E+00  0.00000000000E+00  0.95343036142E+00  0.95343036142E+00  0.00000000000E+00 0.  1.
         21   -1    0    0  502  503 -0.00000000000E+00 -0.00000000000E+00 -0.49947513171E+02  0.49947513171E+02  0.00000000000E+00 0.  1.
          5    1    1    2  501    0 -0.20551225292E+01 -0.30123072239E+01 -0.11597395135E+02  0.13034074472E+02  0.47000000000E+01 0.  1.
         -5    1    1    2    0  503  0.20551225292E+01  0.30123072239E+01 -0.37396687674E+02  0.37866869060E+02  0.47000000000E+01 0.  1.
<mgrwt>
<rscale>  2 0.59487413E+01</rscale>
<asrwt>0</asrwt>
<pdfrwt beam="1">  1       21 0.14668155E-03 0.59487413E+01</pdfrwt>
<pdfrwt beam="2">  1       21 0.76842354E-02 0.59487413E+01</pdfrwt>
<totfact> 0.22881531E+09</totfact>
</mgrwt>
</event>
<event>
 4    1  0.4043737E+006  0.8659310E+01  0.7546771E-02  0.2160417E+00
         21   -1    0    0  501  502  0.00000000000E+00  0.00000000000E+00  0.18335579579E+02  0.18335579579E+02  0.00000000000E+00 0. -1.
         21   -1    0    0  502  503 -0.00000000000E+00 -0.00000000000E+00 -0.46359103720E+01  0.46359103720E+01  0.00000000000E+00 0.  1.
          5    1    1    2  501    0  0.12791752445E+01 -0.71594240861E+01  0.29066706202E+01  0.91341325064E+01  0.47000000000E+01 0. -1.
         -5    1    1    2    0  503 -0.12791752445E+01  0.71594240861E+01  0.10792998587E+02  0.13837357444E+02  0.47000000000E+01 0.  1.
<mgrwt>
<rscale>  2 0.86593096E+01</rscale>
<asrwt>0</asrwt>
<pdfrwt beam="1">  1       21 0.28208584E-02 0.86593096E+01</pdfrwt>
<pdfrwt beam="2">  1       21 0.71321699E-03 0.86593096E+01</pdfrwt>
<totfact> 0.15101017E+09</totfact>
</mgrwt>
</event>
<event>
 4    1  0.4043737E+006  0.7764357E+01  0.7546771E-02  0.2230203E+00
         21   -1    0    0  503  502  0.00000000000E+00  0.00000000000E+00  0.15270889674E+01  0.15270889674E+01  0.00000000000E+00 0.  1.
         21   -1    0    0  501  503 -0.00000000000E+00 -0.00000000000E+00 -0.93104335191E+02  0.93104335191E+02  0.00000000000E+00 0. -1.
          5    1    1    2  501    0  0.52082501599E+01 -0.33270658725E+01 -0.81698392823E+02  0.82066513432E+02  0.47000000000E+01 0. -1.
         -5    1    1    2    0  502 -0.52082501599E+01  0.33270658725E+01 -0.98788534008E+01  0.12564910726E+02  0.47000000000E+01 0.  1.
<mgrwt>
<rscale>  2 0.77643568E+01</rscale>
<asrwt>0</asrwt>
<pdfrwt beam="1">  1       21 0.23493677E-03 0.77643568E+01</pdfrwt>
<pdfrwt beam="2">  1       21 0.14323743E-01 0.77643568E+01</pdfrwt>
<totfact> 0.55495044E+08</totfact>
</mgrwt>
</event>
<event>
 4    1  0.4043737E+006  0.6440537E+01  0.7546771E-02  0.2361386E+00
         21   -1    0    0  503  502  0.00000000000E+00  0.00000000000E+00  0.12488642869E+01  0.12488642869E+01  0.00000000000E+00 0.  1.
         21   -1    0    0  501  503 -0.00000000000E+00 -0.00000000000E+00 -0.33282471889E+02  0.33282471889E+02  0.00000000000E+00 0.  1.
          5    1    1    2  501    0  0.41252788896E+01 -0.15403211441E+01 -0.15237058361E+02  0.16542323375E+02  0.47000000000E+01 0.  1.
         -5    1    1    2    0  502 -0.41252788896E+01  0.15403211441E+01 -0.16796549241E+02  0.17989012801E+02  0.47000000000E+01 0.  1.
<mgrwt>
<rscale>  2 0.64405369E+01</rscale>
<asrwt>0</asrwt>
<pdfrwt beam="1">  1       21 0.19213292E-03 0.64405369E+01</pdfrwt>
<pdfrwt beam="2">  1       21 0.51203816E-02 0.64405369E+01</pdfrwt>
<totfact> 0.31196165E+09</totfact>
</mgrwt>
</event>
<event>
 4    1  0.4043737E+006  0.5761618E+01  0.7546771E-02  0.2447522E+00
         21   -1    0    0  501  502  0.00000000000E+00  0.00000000000E+00  0.13031058978E+04  0.13031058978E+04  0.00000000000E+00 0.  1.
         21   -1    0    0  502  503 -0.00000000000E+00 -0.00000000000E+00 -0.28122574455E-01  0.28122574455E-01  0.00000000000E+00 0.  1.
          5    1    1    2  501    0 -0.29106901257E+01 -0.16229976862E+01  0.85146974291E+03  0.85148923618E+03  0.47000000000E+01 0.  1.
         -5    1    1    2    0  503  0.29106901257E+01  0.16229976862E+01  0.45160803230E+03  0.45164478418E+03  0.47000000000E+01 0.  1.
<mgrwt>
<rscale>  2 0.57616177E+01</rscale>
<asrwt>0</asrwt>
<pdfrwt beam="1">  1       21 0.20042948E+00 0.57616177E+01</pdfrwt>
<pdfrwt beam="2">  1       21 0.43275936E-05 0.57616177E+01</pdfrwt>
<totfact> 0.72375400E+08</totfact>
</mgrwt>
</event>
<event>
 4    1  0.4043737E+006  0.5550339E+01  0.7546771E-02  0.2477900E+00
         21   -1    0    0  503  502  0.00000000000E+00  0.00000000000E+00  0.53016140513E+02  0.53016140513E+02  0.00000000000E+00 0.  1.
         21   -1    0    0  501  503 -0.00000000000E+00 -0.00000000000E+00 -0.82369838714E+00  0.82369838714E+00  0.00000000000E+00 0.  1.
          5    1    1    2  501    0  0.27405614422E+01 -0.10979928160E+01  0.11485976868E+02  0.12756720968E+02  0.47000000000E+01 0.  1.
         -5    1    1    2    0  502 -0.27405614422E+01  0.10979928160E+01  0.40706465257E+02  0.41083117932E+02  0.47000000000E+01 0.  1.
<mgrwt>
<rscale>  2 0.55503392E+01</rscale>
<asrwt>0</asrwt>
<pdfrwt beam="1">  1       21 0.81563266E-02 0.55503392E+01</pdfrwt>
<pdfrwt beam="2">  1       21 0.12672287E-03 0.55503392E+01</pdfrwt>
<totfact> 0.23973482E+09</totfact>
</mgrwt>
</event>
<event>
 4    1  0.4043737E+006  0.5466574E+01  0.7546771E-02  0.2490493E+00
         21   -1    0    0  501  502  0.00000000000E+00  0.00000000000E+00  0.24167872262E+02  0.24167872262E+02  0.00000000000E+00 0.  1.
         21   -1    0    0  502  503 -0.00000000000E+00 -0.00000000000E+00 -0.33989874858E+01  0.33989874858E+01  0.00000000000E+00 0. -1.
          5    1    1    2  501    0  0.27343805667E+01 -0.56267055130E+00  0.21378547794E+02  0.22066393929E+02  0.47000000000E+01 0.  1.
         -5    1    1    2    0  503 -0.27343805667E+01  0.56267055130E+00 -0.60966301774E+00  0.55004658192E+01  0.47000000000E+01 0. -1.
<mgrwt>
<rscale>  2 0.54665744E+01</rscale>
<asrwt>0</asrwt>
<pdfrwt beam="1">  1       21 0.37181341E-02 0.54665744E+01</pdfrwt>
<pdfrwt beam="2">  1       21 0.52292117E-03 0.54665744E+01</pdfrwt>
<totfact> 0.10981005E+09</totfact>
</mgrwt>
</event>
<event>
 4    1  0.4043737E+006  0.5950368E+01  0.7546771E-02  0.2421928E+00
         21   -1    0    0  503  502  0.00000000000E+00  0.00000000000E+00  0.85423289897E+01  0.85423289897E+01  0.00000000000E+00 0.  1.
         21   -1    0    0  501  503 -0.00000000000E+00 -0.00000000000E+00 -0.12209535991E+02  0.12209535991E+02  0.00000000000E+00 0. -1.
          5    1    1    2  501    0 -0.32130610028E+01 -0.17300634673E+01 -0.10266380820E+02  0.11866147469E+02  0.47000000000E+01 0. -1.
         -5    1    1    2    0  502  0.32130610028E+01  0.17300634673E+01  0.65991738189E+01  0.88857175118E+01  0.47000000000E+01 0.  1.
<mgrwt>
<rscale>  2 0.59503681E+01</rscale>
<asrwt>0</asrwt>
<pdfrwt beam="1">  1       21 0.13142045E-02 0.59503681E+01</pdfrwt>
<pdfrwt beam="2">  1       21 0.18783901E-02 0.59503681E+01</pdfrwt>
<totfact> 0.86871319E+08</totfact>
</mgrwt>
</event>
<event>
 4    1  0.4043737E+006  0.4864485E+01  0.7546771E-02  0.2591770E+00
         21   -1    0    0  503  502  0.00000000000E+00  0.00000000000E+00  0.66567726626E+01  0.66567726626E+01  0.00000000000E+00 0. -1.
         21   -1    0    0  501  503 -0.00000000000E+00 -0.00000000000E+00 -0.97234881613E+01  0.97234881613E+01  0.00000000000E+00 0. -1.
          5    1    1    2  501    0  0.50342815013E-01 -0.12532665177E+01 -0.80568129276E+01  0.94114529119E+01  0.47000000000E+01 0.  1.
         -5    1    1    2    0  502 -0.50342815013E-01  0.12532665177E+01  0.49900974290E+01  0.69688079120E+01  0.47000000000E+01 0.  1.
<mgrwt>
<rscale>  2 0.48644847E+01</rscale>
<asrwt>0</asrwt>
<pdfrwt beam="1">  1       21 0.10241189E-02 0.48644847E+01</pdfrwt>
<pdfrwt beam="2">  1       21 0.14959213E-02 0.48644847E+01</pdfrwt>
<totfact> 0.14202381E+09</totfact>
</mgrwt>
</event>
<event>
 4    1  0.4043737E+006  0.7211471E+01  0.7546771E-02  0.2280188E+00
         21   -1    0    0  501  502  0.00000000000E+00  0.00000000000E+00  0.93725449557E+02  0.93725449557E+02  0.00000000000E+00 0. -1.
         21   -1    0    0  502  503 -0.00000000000E+00 -0.00000000000E+00 -0.58792893242E+00  0.58792893242E+00  0.00000000000E+00 0. -1.
          5    1    1    2  501    0  0.55437901295E+00 -0.54413210857E+01  0.35386377913E+02  0.36113723887E+02  0.47000000000E+01 0. -1.
         -5    1    1    2    0  503 -0.55437901295E+00  0.54413210857E+01  0.57751142712E+02  0.58199654602E+02  0.47000000000E+01 0. -1.
<mgrwt>
<rscale>  2 0.72114708E+01</rscale>
<asrwt>0</asrwt>
<pdfrwt beam="1">  1       21 0.14419288E-01 0.72114708E+01</pdfrwt>
<pdfrwt beam="2">  1       21 0.90450679E-04 0.72114708E+01</pdfrwt>
<totfact> 0.19302052E+09</totfact>
</mgrwt>
</event>
<event>
 4    1  0.4043737E+006  0.6940897E+01  0.7546771E-02  0.2306994E+00
         21   -1    0    0  501  502  0.00000000000E+00  0.00000000000E+00  0.67829331086E+02  0.67829331086E+02  0.00000000000E+00 0. -1.
         21   -1    0    0  502  503 -0.00000000000E+00 -0.00000000000E+00 -0.77481882787E+00  0.77481882787E+00  0.00000000000E+00 0. -1.
          5    1    1    2  501    0 -0.11357194085E+01  0.49795772342E+01  0.43429157383E+02  0.43980311039E+02  0.47000000000E+01 0. -1.
         -5    1    1    2    0  503  0.11357194085E+01 -0.49795772342E+01  0.23625354875E+02  0.24623838876E+02  0.47000000000E+01 0. -1.
<mgrwt>
<rscale>  2 0.69408968E+01</rscale>
<asrwt>0</asrwt>
<pdfrwt beam="1">  1       21 0.10435277E-01 0.69408968E+01</pdfrwt>
<pdfrwt beam="2">  1       21 0.11920295E-03 0.69408968E+01</pdfrwt>
<totfact> 0.21463914E+09</totfact>
</mgrwt>
</event>
<event>
 4    1  0.4043737E+006  0.6708262E+01  0.7546771E-02  0.2331450E+00
         21   -1    0    0  501  502  0.00000000000E+00  0.00000000000E+00  0.17871229405E+01  0.17871229405E+01  0.00000000000E+00 0.  1.
         21   -1    0    0  502  503 -0.00000000000E+00 -0.00000000000E+00 -0.34718696363E+02  0.34718696363E+02  0.00000000000E+00 0. -1.
          5    1    1    2  501    0  0.31816173248E+01 -0.35760440835E+01 -0.68986526096E+01  0.96224834589E+01  0.47000000000E+01 0. -1.
         -5    1    1    2    0  503 -0.31816173248E+01  0.35760440835E+01 -0.26032920813E+02  0.26883335845E+02  0.47000000000E+01 0.  1.
<mgrwt>
<rscale>  2 0.67082621E+01</rscale>
<asrwt>0</asrwt>
<pdfrwt beam="1">  1       21 0.27494197E-03 0.67082621E+01</pdfrwt>
<pdfrwt beam="2">  1       21 0.53413382E-02 0.67082621E+01</pdfrwt>
<totfact> 0.18506054E+09</totfact>
</mgrwt>
</event>
<event>
 4    1  0.4043737E+006  0.6710477E+01  0.7546771E-02  0.2331211E+00
         21   -1    0    0  503  502  0.00000000000E+00  0.00000000000E+00  0.46188897313E+01  0.46188897313E+01  0.00000000000E+00 0. -1.
         21   -1    0    0  501  503 -0.00000000000E+00 -0.00000000000E+00 -0.11626971512E+02  0.11626971512E+02  0.00000000000E+00 0. -1.
          5    1    1    2  501    0  0.47894339792E+01  0.42655947079E-01 -0.67684183620E+01  0.95311061527E+01  0.47000000000E+01 0. -1.
         -5    1    1    2    0  502 -0.47894339792E+01 -0.42655947079E-01 -0.23966341851E+00  0.67147550905E+01  0.47000000000E+01 0. -1.
<mgrwt>
<rscale>  2 0.67104767E+01</rscale>
<asrwt>0</asrwt>
<pdfrwt beam="1">  1       21 0.71059843E-03 0.67104767E+01</pdfrwt>
<pdfrwt beam="2">  1       21 0.17887648E-02 0.67104767E+01</pdfrwt>
<totfact> 0.24533023E+09</totfact>
</mgrwt>
</event>
<event>
 4    1  0.4043737E+006  0.5997158E+01  0.7546771E-02  0.2415794E+00
         21   -1    0    0  503  502  0.00000000000E+00  0.00000000000E+00  0.19813712899E+01  0.19813712899E+01  0.00000000000E+00 0. -1.
         21   -1    0    0  501  503 -0.00000000000E+00 -0.00000000000E+00 -0.18152033638E+02  0.18152033638E+02  0.00000000000E+00 0.  1.
          5    1    1    2  501    0 -0.18578810862E+01  0.32286496651E+01 -0.80783067901E+01  0.10061060649E+02  0.47000000000E+01 0. -1.
         -5    1    1    2    0  502  0.18578810862E+01 -0.32286496651E+01 -0.80923555577E+01  0.10072344278E+02  0.47000000000E+01 0.  1.
<mgrwt>
<rscale>  2 0.59971577E+01</rscale>
<asrwt>0</asrwt>
<pdfrwt beam="1">  1       21 0.30482634E-03 0.59971577E+01</pdfrwt>
<pdfrwt beam="2">  1       21 0.27926206E-02 0.59971577E+01</pdfrwt>
<totfact> 0.37988623E+09</totfact>
</mgrwt>
</event>
<event>
 4    1  0.4043737E+006  0.7144785E+01  0.7546771E-02  0.2286640E+00
         21   -1    0    0  501  502  0.00000000000E+00  0.00000000000E+00  0.96624407512E+02  0.96624407512E+02  0.00000000000E+00 0.  1.
         21   -1    0    0  502  503 -0.00000000000E+00 -0.00000000000E+00 -0.53451128163E+00  0.53451128163E+00  0.00000000000E+00 0.  1.
          5    1    1    2  501    0 -0.30083338417E+01 -0.44618253041E+01  0.53276133649E+02  0.53753087112E+02  0.47000000000E+01 0.  1.
         -5    1    1    2    0  503  0.30083338417E+01  0.44618253041E+01  0.42813762582E+02  0.43405831681E+02  0.47000000000E+01 0.  1.
<mgrwt>
<rscale>  2 0.71447853E+01</rscale>
<asrwt>0</asrwt>
<pdfrwt beam="1">  1       21 0.14865280E-01 0.71447853E+01</pdfrwt>
<pdfrwt beam="2">  1       21 0.82232581E-04 0.71447853E+01</pdfrwt>
<totfact> 0.20777925E+09</totfact>
</mgrwt>
</event>
<event>
 4    1  0.4043737E+006  0.6727827E+01  0.7546771E-02  0.2329340E+00
         21   -1    0    0  501  502  0.00000000000E+00  0.00000000000E+00  0.25172493693E+01  0.25172493693E+01  0.00000000000E+00 0. -1.
         21   -1    0    0  502  503 -0.00000000000E+00 -0.00000000000E+00 -0.31237386490E+02  0.31237386490E+02  0.00000000000E+00 0. -1.
          5    1    1    2  501    0 -0.48118537127E+01 -0.14043988978E+00 -0.33656525370E+01  0.75227173624E+01  0.47000000000E+01 0. -1.
         -5    1    1    2    0  503  0.48118537127E+01  0.14043988978E+00 -0.25354484584E+02  0.26231918497E+02  0.47000000000E+01 0. -1.
<mgrwt>
<rscale>  2 0.67278273E+01</rscale>
<asrwt>0</asrwt>
<pdfrwt beam="1">  1       21 0.38726915E-03 0.67278273E+01</pdfrwt>
<pdfrwt beam="2">  1       21 0.48057515E-02 0.67278273E+01</pdfrwt>
<totfact> 0.13515751E+09</totfact>
</mgrwt>
</event>
<event>
 4    1  0.4043737E+006  0.6243748E+01  0.7546771E-02  0.2384739E+00
         21   -1    0    0  501  502  0.00000000000E+00  0.00000000000E+00  0.90000119321E+01  0.90000119321E+01  0.00000000000E+00 0. -1.
         21   -1    0    0  502  503 -0.00000000000E+00 -0.00000000000E+00 -0.50023121933E+01  0.50023121933E+01  0.00000000000E+00 0. -1.
          5    1    1    2  501    0 -0.15801494949E+01  0.37944061164E+01  0.45624781103E+01  0.77330845534E+01  0.47000000000E+01 0. -1.
         -5    1    1    2    0  503  0.15801494949E+01 -0.37944061164E+01 -0.56477837158E+00  0.62692395720E+01  0.47000000000E+01 0. -1.
<mgrwt>
<rscale>  2 0.62437481E+01</rscale>
<asrwt>0</asrwt>
<pdfrwt beam="1">  1       21 0.13846172E-02 0.62437481E+01</pdfrwt>
<pdfrwt beam="2">  1       21 0.76958650E-03 0.62437481E+01</pdfrwt>
<totfact> 0.29797248E+09</totfact>
</mgrwt>
</event>
<event>
 4    1  0.4043737E+006  0.5158222E+01  0.7546771E-02  0.2539828E+00
         21   -1    0    0  503  502  0.00000000000E+00  0.00000000000E+00  0.22387572734E+01  0.22387572734E+01  0.00000000000E+00 0. -1.
         21   -1    0    0  501  503 -0.00000000000E+00 -0.00000000000E+00 -0.11512403486E+03  0.11512403486E+03  0.00000000000E+00 0. -1.
          5    1    1    2  501    0  0.74024577568E+00  0.19923087894E+01 -0.11201255652E+03  0.11213126270E+03  0.47000000000E+01 0. -1.
         -5    1    1    2    0  502 -0.74024577568E+00 -0.19923087894E+01 -0.87272107147E+00  0.52315294312E+01  0.47000000000E+01 0. -1.
<mgrwt>
<rscale>  2 0.51582224E+01</rscale>
<asrwt>0</asrwt>
<pdfrwt beam="1">  1       21 0.34442408E-03 0.51582224E+01</pdfrwt>
<pdfrwt beam="2">  1       21 0.17711396E-01 0.51582224E+01</pdfrwt>
<totfact> 0.17648104E+08</totfact>
</mgrwt>
</event>
<event>
 4    1  0.4043737E+006  0.7167737E+01  0.7546771E-02  0.2284408E+00
         21   -1    0    0  501  502  0.00000000000E+00  0.00000000000E+00  0.16403690108E+00  0.16403690108E+00  0.00000000000E+00 0. -1.
         21   -1    0    0  502  503 -0.00000000000E+00 -0.00000000000E+00 -0.11279631367E+04  0.11279631367E+04  0.00000000000E+00 0. -1.
          5    1    1    2  501    0 -0.36559713275E+01 -0.39900284431E+01 -0.84501634398E+02  0.84805086341E+02  0.47000000000E+01 0. -1.
         -5    1    1    2    0  503  0.36559713275E+01  0.39900284431E+01 -0.10432974654E+04  0.10433220872E+04  0.47000000000E+01 0. -1.
<mgrwt>
<rscale>  2 0.71677370E+01</rscale>
<asrwt>0</asrwt>
<pdfrwt beam="1">  1       21 0.25236992E-04 0.71677370E+01</pdfrwt>
<pdfrwt beam="2">  1       21 0.17352904E+00 0.71677370E+01</pdfrwt>
<totfact> 0.10564210E+08</totfact>
</mgrwt>
</event>
<event>
 4    1  0.4043737E+006  0.6051453E+01  0.7546771E-02  0.2408775E+00
         21   -1    0    0  501  502  0.00000000000E+00  0.00000000000E+00  0.16098162228E+01  0.16098162228E+01  0.00000000000E+00 0.  1.
         21   -1    0    0  502  503 -0.00000000000E+00 -0.00000000000E+00 -0.14145965149E+03  0.14145965149E+03  0.00000000000E+00 0.  1.
          5    1    1    2  501    0 -0.34575984047E+01  0.16047109309E+01 -0.43938316916E+01  0.74783581644E+01  0.47000000000E+01 0.  1.
         -5    1    1    2    0  503  0.34575984047E+01 -0.16047109309E+01 -0.13545600358E+03  0.13559110955E+03  0.47000000000E+01 0.  1.
<mgrwt>
<rscale>  2 0.60514530E+01</rscale>
<asrwt>0</asrwt>
<pdfrwt beam="1">  1       21 0.24766413E-03 0.60514530E+01</pdfrwt>
<pdfrwt beam="2">  1       21 0.21763015E-01 0.60514530E+01</pdfrwt>
<totfact> 0.22327724E+08</totfact>
</mgrwt>
</event>
<event>
 4    1  0.4043737E+006  0.5138720E+01  0.7546771E-02  0.2543118E+00
         21   -1    0    0  501  502  0.00000000000E+00  0.00000000000E+00  0.15135855577E+01  0.15135855577E+01  0.00000000000E+00 0. -1.
         21   -1    0    0  502  503 -0.00000000000E+00 -0.00000000000E+00 -0.20439664770E+02  0.20439664770E+02  0.00000000000E+00 0.  1.
          5    1    1    2  501    0 -0.20773164418E+01  0.34639993868E-01 -0.52624241088E+01  0.73552396990E+01  0.47000000000E+01 0. -1.
         -5    1    1    2    0  503  0.20773164418E+01 -0.34639993868E-01 -0.13663655103E+02  0.14598010628E+02  0.47000000000E+01 0.  1.
<mgrwt>
<rscale>  2 0.51387200E+01</rscale>
<asrwt>0</asrwt>
<pdfrwt beam="1">  1       21 0.23285933E-03 0.51387200E+01</pdfrwt>
<pdfrwt beam="2">  1       21 0.31445636E-02 0.51387200E+01</pdfrwt>
<totfact> 0.39875889E+09</totfact>
</mgrwt>
</event>
<event>
 4    1  0.4043737E+006  0.6903677E+01  0.7546771E-02  0.2310815E+00
         21   -1    0    0  501  502  0.00000000000E+00  0.00000000000E+00  0.76599005494E+00  0.76599005494E+00  0.00000000000E+00 0.  1.
         21   -1    0    0  502  503 -0.00000000000E+00 -0.00000000000E+00 -0.62223026541E+02  0.62223026541E+02  0.00000000000E+00 0.  1.
          5    1    1    2  501    0  0.50469908439E+01 -0.31407337627E+00 -0.30902879998E+02  0.31664629334E+02  0.47000000000E+01 0.  1.
         -5    1    1    2    0  503 -0.50469908439E+01  0.31407337627E+00 -0.30554156487E+02  0.31324387261E+02  0.47000000000E+01 0.  1.
<mgrwt>
<rscale>  2 0.69036772E+01</rscale>
<asrwt>0</asrwt>
<pdfrwt beam="1">  1       21 0.11784460E-03 0.69036772E+01</pdfrwt>
<pdfrwt beam="2">  1       21 0.95727752E-02 0.69036772E+01</pdfrwt>
<totfact> 0.24820336E+09</totfact>
</mgrwt>
</event>
<event>
 4    1  0.4043737E+006  0.5085281E+01  0.7546771E-02  0.2552244E+00
         21   -1    0    0  501  502  0.00000000000E+00  0.00000000000E+00  0.18106058597E+01  0.18106058597E+01  0.00000000000E+00 0. -1.
         21   -1    0    0  502  503 -0.00000000000E+00 -0.00000000000E+00 -0.21252950715E+02  0.21252950715E+02  0.00000000000E+00 0. -1.
          5    1    1    2  501    0 -0.86509481206E+00  0.17383025478E+01 -0.31170477613E+01  0.59645680085E+01  0.47000000000E+01 0. -1.
         -5    1    1    2    0  503  0.86509481206E+00 -0.17383025478E+01 -0.16325297094E+02  0.17098988567E+02  0.47000000000E+01 0. -1.
<mgrwt>
<rscale>  2 0.50852812E+01</rscale>
<asrwt>0</asrwt>
<pdfrwt beam="1">  1       21 0.27855475E-03 0.50852812E+01</pdfrwt>
<pdfrwt beam="2">  1       21 0.32696846E-02 0.50852812E+01</pdfrwt>
<totfact> 0.29258626E+09</totfact>
</mgrwt>
</event>
<event>
 4    1  0.4043737E+006  0.6142809E+01  0.7546771E-02  0.2397199E+00
         21   -1    0    0  503  502  0.00000000000E+00  0.00000000000E+00  0.67685046022E+01  0.67685046022E+01  0.00000000000E+00 0. -1.
         21   -1    0    0  501  503 -0.00000000000E+00 -0.00000000000E+00 -0.69494976188E+01  0.69494976188E+01  0.00000000000E+00 0.  1.
          5    1    1    2  501    0 -0.21841431576E+01  0.32975182339E+01 -0.31409421489E+01  0.68992481778E+01  0.47000000000E+01 0.  1.
         -5    1    1    2    0  502  0.21841431576E+01 -0.32975182339E+01  0.29599491324E+01  0.68187540432E+01  0.47000000000E+01 0. -1.
<mgrwt>
<rscale>  2 0.61428094E+01</rscale>
<asrwt>0</asrwt>
<pdfrwt beam="1">  1       21 0.10413084E-02 0.61428094E+01</pdfrwt>
<pdfrwt beam="2">  1       21 0.10691535E-02 0.61428094E+01</pdfrwt>
<totfact> 0.27689608E+09</totfact>
</mgrwt>
</event>
<event>
 4    1  0.4043737E+006  0.4922008E+01  0.7546771E-02  0.2581178E+00
         21   -1    0    0  501  502  0.00000000000E+00  0.00000000000E+00  0.25936098375E+02  0.25936098375E+02  0.00000000000E+00 0.  1.
         21   -1    0    0  502  503 -0.00000000000E+00 -0.00000000000E+00 -0.38806275001E+01  0.38806275001E+01  0.00000000000E+00 0.  1.
          5    1    1    2  501    0 -0.72475414686E+00 -0.12692114874E+01  0.24018548679E+02  0.24517684373E+02  0.47000000000E+01 0.  1.
         -5    1    1    2    0  503  0.72475414686E+00  0.12692114874E+01 -0.19630778042E+01  0.52990415019E+01  0.47000000000E+01 0.  1.
<mgrwt>
<rscale>  2 0.49220084E+01</rscale>
<asrwt>0</asrwt>
<pdfrwt beam="1">  1       21 0.39901689E-02 0.49220084E+01</pdfrwt>
<pdfrwt beam="2">  1       21 0.59701963E-03 0.49220084E+01</pdfrwt>
<totfact> 0.74973606E+08</totfact>
</mgrwt>
</event>
<event>
 4    1  0.4043737E+006  0.6178302E+01  0.7546771E-02  0.2392779E+00
         21   -1    0    0  503  502  0.00000000000E+00  0.00000000000E+00  0.81558720615E-01  0.81558720615E-01  0.00000000000E+00 0. -1.
         21   -1    0    0  501  503 -0.00000000000E+00 -0.00000000000E+00 -0.48188371593E+03  0.48188371593E+03  0.00000000000E+00 0. -1.
          5    1    1    2  501    0 -0.39764510242E+01 -0.51889176282E+00 -0.28177036233E+03  0.28183808916E+03  0.47000000000E+01 0. -1.
         -5    1    1    2    0  502  0.39764510242E+01  0.51889176282E+00 -0.20003179487E+03  0.20012718549E+03  0.47000000000E+01 0. -1.
<mgrwt>
<rscale>  2 0.61783017E+01</rscale>
<asrwt>0</asrwt>
<pdfrwt beam="1">  1       21 0.12547437E-04 0.61783017E+01</pdfrwt>
<pdfrwt beam="2">  1       21 0.74136305E-01 0.61783017E+01</pdfrwt>
<totfact> 0.14418547E+09</totfact>
</mgrwt>
</event>
<event>
 4    1  0.4043737E+006  0.8479096E+01  0.7546771E-02  0.2173516E+00
         21   -1    0    0  503  502  0.00000000000E+00  0.00000000000E+00  0.51945874093E+00  0.51945874093E+00  0.00000000000E+00 0.  1.
         21   -1    0    0  501  503 -0.00000000000E+00 -0.00000000000E+00 -0.15923735010E+03  0.15923735010E+03  0.00000000000E+00 0.  1.
          5    1    1    2  501    0 -0.64801220414E+01  0.27951904995E+01 -0.10825166324E+03  0.10858322921E+03  0.47000000000E+01 0.  1.
         -5    1    1    2    0  502  0.64801220414E+01 -0.27951904995E+01 -0.50466228117E+02  0.51173579628E+02  0.47000000000E+01 0.  1.
<mgrwt>
<rscale>  2 0.84790962E+01</rscale>
<asrwt>0</asrwt>
<pdfrwt beam="1">  1       21 0.79916835E-04 0.84790962E+01</pdfrwt>
<pdfrwt beam="2">  1       21 0.24498021E-01 0.84790962E+01</pdfrwt>
<totfact> 0.10675307E+09</totfact>
</mgrwt>
</event>
<event>
 4    1  0.4043737E+006  0.5807190E+01  0.7546771E-02  0.2441214E+00
         21   -1    0    0  503  502  0.00000000000E+00  0.00000000000E+00  0.12778930071E+02  0.12778930071E+02  0.00000000000E+00 0. -1.
         21   -1    0    0  501  503 -0.00000000000E+00 -0.00000000000E+00 -0.41045461872E+01  0.41045461872E+01  0.00000000000E+00 0. -1.
          5    1    1    2  501    0 -0.60650185232E-01  0.34102462306E+01 -0.70710524107E+00  0.58500816764E+01  0.47000000000E+01 0. -1.
         -5    1    1    2    0  502  0.60650185232E-01 -0.34102462306E+01  0.93814891246E+01  0.11033394582E+02  0.47000000000E+01 0. -1.
<mgrwt>
<rscale>  2 0.58071902E+01</rscale>
<asrwt>0</asrwt>
<pdfrwt beam="1">  1       21 0.19659892E-02 0.58071902E+01</pdfrwt>
<pdfrwt beam="2">  1       21 0.63146865E-03 0.58071902E+01</pdfrwt>
<totfact> 0.22346872E+09</totfact>
</mgrwt>
</event>
<event>
 4    1  0.4043737E+006  0.5043561E+01  0.7546771E-02  0.2559484E+00
         21   -1    0    0  501  502  0.00000000000E+00  0.00000000000E+00  0.17510122840E+02  0.17510122840E+02  0.00000000000E+00 0.  1.
         21   -1    0    0  502  503 -0.00000000000E+00 -0.00000000000E+00 -0.58795328698E+01  0.58795328698E+01  0.00000000000E+00 0.  1.
          5    1    1    2  501    0 -0.18287823328E+01 -0.55356114294E-01  0.15962990652E+02  0.16740805825E+02  0.47000000000E+01 0.  1.
         -5    1    1    2    0  503  0.18287823328E+01  0.55356114294E-01 -0.43324006819E+01  0.66488498846E+01  0.47000000000E+01 0.  1.
<mgrwt>
<rscale>  2 0.50435612E+01</rscale>
<asrwt>0</asrwt>
<pdfrwt beam="1">  1       21 0.26938650E-02 0.50435612E+01</pdfrwt>
<pdfrwt beam="2">  1       21 0.90454353E-03 0.50435612E+01</pdfrwt>
<totfact> 0.75930636E+08</totfact>
</mgrwt>
</event>
<event>
 4    1  0.4043737E+006  0.8191513E+01  0.7546771E-02  0.2195367E+00
         21   -1    0    0  501  502  0.00000000000E+00  0.00000000000E+00  0.16759316240E+03  0.16759316240E+03  0.00000000000E+00 0.  1.
         21   -1    0    0  502  503 -0.00000000000E+00 -0.00000000000E+00 -0.40146563592E+00  0.40146563592E+00  0.00000000000E+00 0. -1.
          5    1    1    2  501    0  0.54524064901E+01  0.39092396568E+01  0.87964565010E+02  0.88345150340E+02  0.47000000000E+01 0.  1.
         -5    1    1    2    0  503 -0.54524064901E+01 -0.39092396568E+01  0.79227131755E+02  0.79649477696E+02  0.47000000000E+01 0. -1.
<mgrwt>
<rscale>  2 0.81915134E+01</rscale>
<asrwt>0</asrwt>
<pdfrwt beam="1">  1       21 0.25783508E-01 0.81915134E+01</pdfrwt>
<pdfrwt beam="2">  1       21 0.61764078E-04 0.81915134E+01</pdfrwt>
<totfact> 0.13611909E+09</totfact>
</mgrwt>
</event>
<event>
 4    1  0.4043737E+006  0.6436007E+01  0.7546771E-02  0.2361911E+00
         21   -1    0    0  503  502  0.00000000000E+00  0.00000000000E+00  0.15403262876E+02  0.15403262876E+02  0.00000000000E+00 0. -1.
         21   -1    0    0  501  503 -0.00000000000E+00 -0.00000000000E+00 -0.26892742898E+01  0.26892742898E+01  0.00000000000E+00 0.  1.
          5    1    1    2  501    0  0.19795181251E+01  0.39260275002E+01  0.63041245693E+01  0.90091159680E+01  0.47000000000E+01 0. -1.
         -5    1    1    2    0  502 -0.19795181251E+01 -0.39260275002E+01  0.64098640167E+01  0.90834211976E+01  0.47000000000E+01 0.  1.
<mgrwt>
<rscale>  2 0.64360068E+01</rscale>
<asrwt>0</asrwt>
<pdfrwt beam="1">  1       21 0.23697327E-02 0.64360068E+01</pdfrwt>
<pdfrwt beam="2">  1       21 0.41373452E-03 0.64360068E+01</pdfrwt>
<totfact> 0.33632089E+09</totfact>
</mgrwt>
</event>
<event>
 4    1  0.4043737E+006  0.5529318E+01  0.7546771E-02  0.2481030E+00
         21   -1    0    0  501  502  0.00000000000E+00  0.00000000000E+00  0.21211522941E+04  0.21211522941E+04  0.00000000000E+00 0.  1.
         21   -1    0    0  502  503 -0.00000000000E+00 -0.00000000000E+00 -0.17220943178E+00  0.17220943178E+00  0.00000000000E+00 0.  1.
          5    1    1    2  501    0  0.21172440320E+01  0.20001598686E+01  0.20757948922E+04  0.20758022564E+04  0.47000000000E+01 0.  1.
         -5    1    1    2    0  503 -0.21172440320E+01 -0.20001598686E+01  0.45185192445E+02  0.45522247068E+02  0.47000000000E+01 0.  1.
<mgrwt>
<rscale>  2 0.55293184E+01</rscale>
<asrwt>0</asrwt>
<pdfrwt beam="1">  1       21 0.32631020E+00 0.55293184E+01</pdfrwt>
<pdfrwt beam="2">  1       21 0.26495458E-04 0.55293184E+01</pdfrwt>
<totfact> 0.19458894E+07</totfact>
</mgrwt>
</event>
<event>
 4    1  0.4043737E+006  0.5006817E+01  0.7546771E-02  0.2565946E+00
         21   -1    0    0  503  502  0.00000000000E+00  0.00000000000E+00  0.36948462983E+01  0.36948462983E+01  0.00000000000E+00 0.  1.
         21   -1    0    0  501  503 -0.00000000000E+00 -0.00000000000E+00 -0.68682005136E+01  0.68682005136E+01  0.00000000000E+00 0.  1.
          5    1    1    2  501    0 -0.13374594050E+01 -0.10906048299E+01 -0.10041340490E+01  0.51065156167E+01  0.47000000000E+01 0.  1.
         -5    1    1    2    0  502  0.13374594050E+01  0.10906048299E+01 -0.21692201663E+01  0.54565311953E+01  0.47000000000E+01 0.  1.
<mgrwt>
<rscale>  2 0.50068170E+01</rscale>
<asrwt>0</asrwt>
<pdfrwt beam="1">  1       21 0.56843789E-03 0.50068170E+01</pdfrwt>
<pdfrwt beam="2">  1       21 0.10566462E-02 0.50068170E+01</pdfrwt>
<totfact> 0.53809968E+09</totfact>
</mgrwt>
</event>
<event>
 4    1  0.4043737E+006  0.6581722E+01  0.7546771E-02  0.2345349E+00
         21   -1    0    0  503  502  0.00000000000E+00  0.00000000000E+00  0.30925628764E+01  0.30925628764E+01  0.00000000000E+00 0. -1.
         21   -1    0    0  501  503 -0.00000000000E+00 -0.00000000000E+00 -0.36292440534E+02  0.36292440534E+02  0.00000000000E+00 0.  1.
          5    1    1    2  501    0  0.36386765523E+01 -0.28264990414E+01 -0.32031098959E+02  0.32700311381E+02  0.47000000000E+01 0.  1.
         -5    1    1    2    0  502 -0.36386765523E+01  0.28264990414E+01 -0.11687786987E+01  0.66846920296E+01  0.47000000000E+01 0. -1.
<mgrwt>
<rscale>  2 0.65817220E+01</rscale>
<asrwt>0</asrwt>
<pdfrwt beam="1">  1       21 0.47577892E-03 0.65817220E+01</pdfrwt>
<pdfrwt beam="2">  1       21 0.55834522E-02 0.65817220E+01</pdfrwt>
<totfact> 0.79778037E+08</totfact>
</mgrwt>
</event>
<event>
 4    1  0.4043737E+006  0.1096159E+02  0.7546771E-02  0.2024066E+00
         21   -1    0    0  501  502  0.00000000000E+00  0.00000000000E+00  0.28557032215E+03  0.28557032215E+03  0.00000000000E+00 0.  1.
         21   -1    0    0  502  503 -0.00000000000E+00 -0.00000000000E+00 -0.67743185332E+00  0.67743185332E+00  0.00000000000E+00 0. -1.
          5    1    1    2  501    0  0.45419043323E+01  0.87998668957E+01  0.23054493360E+03  0.23080537897E+03  0.47000000000E+01 0.  1.
         -5    1    1    2    0  503 -0.45419043323E+01 -0.87998668957E+01  0.54347956693E+02  0.55442375031E+02  0.47000000000E+01 0. -1.
<mgrwt>
<rscale>  2 0.10961594E+02</rscale>
<asrwt>0</asrwt>
<pdfrwt beam="1">  1       21 0.43933800E-01 0.10961594E+02</pdfrwt>
<pdfrwt beam="2">  1       21 0.10422051E-03 0.10961594E+02</pdfrwt>
<totfact> 0.30366879E+08</totfact>
</mgrwt>
</event>
<event>
 4    1  0.4043737E+006  0.8072705E+01  0.7546771E-02  0.2204757E+00
         21   -1    0    0  503  502  0.00000000000E+00  0.00000000000E+00  0.64616022866E+01  0.64616022866E+01  0.00000000000E+00 0.  1.
         21   -1    0    0  501  503 -0.00000000000E+00 -0.00000000000E+00 -0.13106481340E+02  0.13106481340E+02  0.00000000000E+00 0. -1.
          5    1    1    2  501    0 -0.47286250511E+01  0.45517769533E+01 -0.80197405448E+01  0.11379139102E+02  0.47000000000E+01 0. -1.
         -5    1    1    2    0  502  0.47286250511E+01 -0.45517769533E+01  0.13748614911E+01  0.81889445245E+01  0.47000000000E+01 0.  1.
<mgrwt>
<rscale>  2 0.80727051E+01</rscale>
<asrwt>0</asrwt>
<pdfrwt beam="1">  1       21 0.99409268E-03 0.80727051E+01</pdfrwt>
<pdfrwt beam="2">  1       21 0.20163817E-02 0.80727051E+01</pdfrwt>
<totfact> 0.14688237E+09</totfact>
</mgrwt>
</event>
<event>
 4    1  0.4043737E+006  0.5388457E+01  0.7546771E-02  0.2502535E+00
         21   -1    0    0  503  502  0.00000000000E+00  0.00000000000E+00  0.24058058112E+03  0.24058058112E+03  0.00000000000E+00 0. -1.
         21   -1    0    0  501  503 -0.00000000000E+00 -0.00000000000E+00 -0.12153632334E+00  0.12153632334E+00  0.00000000000E+00 0. -1.
          5    1    1    2  501    0  0.55878856340E-01  0.26348335448E+01  0.11018155296E+03  0.11031323621E+03  0.47000000000E+01 0. -1.
         -5    1    1    2    0  502 -0.55878856340E-01 -0.26348335448E+01  0.13027749184E+03  0.13038888124E+03  0.47000000000E+01 0. -1.
<mgrwt>
<rscale>  2 0.53884571E+01</rscale>
<asrwt>0</asrwt>
<pdfrwt beam="1">  1       21 0.37012016E-01 0.53884571E+01</pdfrwt>
<pdfrwt beam="2">  1       21 0.18698088E-04 0.53884571E+01</pdfrwt>
<totfact> 0.26849209E+09</totfact>
</mgrwt>
</event>
<event>
 4    1  0.4043737E+006  0.7180957E+01  0.7546771E-02  0.2283128E+00
         21   -1    0    0  503  502  0.00000000000E+00  0.00000000000E+00  0.59081367585E-01  0.59081367585E-01  0.00000000000E+00 0.  1.
         21   -1    0    0  501  503 -0.00000000000E+00 -0.00000000000E+00 -0.88599689228E+03  0.88599689228E+03  0.00000000000E+00 0.  1.
          5    1    1    2  501    0 -0.29888797899E+01  0.45324102554E+01 -0.49704073834E+03  0.49709260879E+03  0.47000000000E+01 0.  1.
         -5    1    1    2    0  502  0.29888797899E+01 -0.45324102554E+01 -0.38889707257E+03  0.38896336486E+03  0.47000000000E+01 0.  1.
<mgrwt>
<rscale>  2 0.71809571E+01</rscale>
<asrwt>0</asrwt>
<pdfrwt beam="1">  1       21 0.90892141E-05 0.71809571E+01</pdfrwt>
<pdfrwt beam="2">  1       21 0.13631062E+00 0.71809571E+01</pdfrwt>
<totfact> 0.70512151E+08</totfact>
</mgrwt>
</event>
<event>
 4    1  0.4043737E+006  0.4960129E+01  0.7546771E-02  0.2574276E+00
         21   -1    0    0  503  502  0.00000000000E+00  0.00000000000E+00  0.97829979654E+00  0.97829979654E+00  0.00000000000E+00 0. -1.
         21   -1    0    0  501  503 -0.00000000000E+00 -0.00000000000E+00 -0.27107020770E+02  0.27107020770E+02  0.00000000000E+00 0. -1.
          5    1    1    2  501    0  0.67039871657E-01 -0.15837893532E+01 -0.16838865862E+02  0.17554209939E+02  0.47000000000E+01 0. -1.
         -5    1    1    2    0  502 -0.67039871657E-01  0.15837893532E+01 -0.92898551113E+01  0.10531110628E+02  0.47000000000E+01 0. -1.
<mgrwt>
<rscale>  2 0.49601293E+01</rscale>
<asrwt>0</asrwt>
<pdfrwt beam="1">  1       21 0.15050768E-03 0.49601293E+01</pdfrwt>
<pdfrwt beam="2">  1       21 0.41703103E-02 0.49601293E+01</pdfrwt>
<totfact> 0.45962547E+09</totfact>
</mgrwt>
</event>
<event>
 4    1  0.4043737E+006  0.5201894E+01  0.7546771E-02  0.2532538E+00
         21   -1    0    0  501  502  0.00000000000E+00  0.00000000000E+00  0.18176567873E+02  0.18176567873E+02  0.00000000000E+00 0.  1.
         21   -1    0    0  502  503 -0.00000000000E+00 -0.00000000000E+00 -0.20069346437E+01  0.20069346437E+01  0.00000000000E+00 0.  1.
          5    1    1    2  501    0  0.16784534199E+01 -0.14671370688E+01  0.13212929775E+02  0.14200042616E+02  0.47000000000E+01 0.  1.
         -5    1    1    2    0  503 -0.16784534199E+01  0.14671370688E+01  0.29567034537E+01  0.59834599000E+01  0.47000000000E+01 0.  1.
<mgrwt>
<rscale>  2 0.52018936E+01</rscale>
<asrwt>0</asrwt>
<pdfrwt beam="1">  1       21 0.27963949E-02 0.52018936E+01</pdfrwt>
<pdfrwt beam="2">  1       21 0.30875919E-03 0.52018936E+01</pdfrwt>
<totfact> 0.32587841E+09</totfact>
</mgrwt>
</event>
<event>
 4    1  0.4043737E+006  0.5173755E+01  0.7546771E-02  0.2537223E+00
         21   -1    0    0  503  502  0.00000000000E+00  0.00000000000E+00  0.45703065670E+02  0.45703065670E+02  0.00000000000E+00 0.  1.
         21   -1    0    0  501  503 -0.00000000000E+00 -0.00000000000E+00 -0.99124391610E+00  0.99124391610E+00  0.00000000000E+00 0.  1.
          5    1    1    2  501    0 -0.18292165824E+01 -0.11539985045E+01  0.74221578878E+01  0.90474401664E+01  0.47000000000E+01 0.  1.
         -5    1    1    2    0  502  0.18292165824E+01  0.11539985045E+01  0.37289663866E+02  0.37646869420E+02  0.47000000000E+01 0.  1.
<mgrwt>
<rscale>  2 0.51737555E+01</rscale>
<asrwt>0</asrwt>
<pdfrwt beam="1">  1       21 0.70312392E-02 0.51737555E+01</pdfrwt>
<pdfrwt beam="2">  1       21 0.15249910E-03 0.51737555E+01</pdfrwt>
<totfact> 0.21877189E+09</totfact>
</mgrwt>
</event>
<event>
 4    1  0.4043737E+006  0.5621549E+01  0.7546771E-02  0.2467446E+00
         21   -1    0    0  503  502  0.00000000000E+00  0.00000000000E+00  0.27498278837E+02  0.27498278837E+02  0.00000000000E+00 0.  1.
         21   -1    0    0  501  503 -0.00000000000E+00 -0.00000000000E+00 -0.14255488902E+01  0.14255488902E+01  0.00000000000E+00 0.  1.
          5    1    1    2  501    0  0.24683003120E+01  0.18491357575E+01  0.66692737497E+01  0.87224435698E+01  0.47000000000E+01 0.  1.
         -5    1    1    2    0  502 -0.24683003120E+01 -0.18491357575E+01  0.19403456197E+02  0.20201384157E+02  0.47000000000E+01 0.  1.
<mgrwt>
<rscale>  2 0.56215487E+01</rscale>
<asrwt>0</asrwt>
<pdfrwt beam="1">  1       21 0.42305041E-02 0.56215487E+01</pdfrwt>
<pdfrwt beam="2">  1       21 0.21931523E-03 0.56215487E+01</pdfrwt>
<totfact> 0.30668027E+09</totfact>
</mgrwt>
</event>
<event>
 4    1  0.4043737E+006  0.5280745E+01  0.7546771E-02  0.2519637E+00
         21   -1    0    0  503  502  0.00000000000E+00  0.00000000000E+00  0.36683493064E+01  0.36683493064E+01  0.00000000000E+00 0. -1.
         21   -1    0    0  501  503 -0.00000000000E+00 -0.00000000000E+00 -0.11317530290E+02  0.11317530290E+02  0.00000000000E+00 0. -1.
          5    1    1    2  501    0 -0.10789530451E+01  0.21522370996E+01 -0.81179298034E+01  0.96843713528E+01  0.47000000000E+01 0. -1.
         -5    1    1    2    0  502  0.10789530451E+01 -0.21522370996E+01  0.46874881930E+00  0.53015082441E+01  0.47000000000E+01 0. -1.
<mgrwt>
<rscale>  2 0.52807447E+01</rscale>
<asrwt>0</asrwt>
<pdfrwt beam="1">  1       21 0.56436143E-03 0.52807447E+01</pdfrwt>
<pdfrwt beam="2">  1       21 0.17411585E-02 0.52807447E+01</pdfrwt>
<totfact> 0.28431533E+09</totfact>
</mgrwt>
</event>
<event>
 4    1  0.4043737E+006  0.7213316E+01  0.7546771E-02  0.2280011E+00
         21   -1    0    0  501  502  0.00000000000E+00  0.00000000000E+00  0.19019800193E+01  0.19019800193E+01  0.00000000000E+00 0.  1.
         21   -1    0    0  502  503 -0.00000000000E+00 -0.00000000000E+00 -0.38378002281E+02  0.38378002281E+02  0.00000000000E+00 0.  1.
          5    1    1    2  501    0  0.19851198592E+01 -0.50991392184E+01 -0.74452070630E+01  0.10366437664E+02  0.47000000000E+01 0.  1.
         -5    1    1    2    0  503 -0.19851198592E+01  0.50991392184E+01 -0.29030815198E+02  0.29913544636E+02  0.47000000000E+01 0.  1.
<mgrwt>
<rscale>  2 0.72133156E+01</rscale>
<asrwt>0</asrwt>
<pdfrwt beam="1">  1       21 0.29261235E-03 0.72133156E+01</pdfrwt>
<pdfrwt beam="2">  1       21 0.59043073E-02 0.72133156E+01</pdfrwt>
<totfact> 0.15419299E+09</totfact>
</mgrwt>
</event>
<event>
 4    1  0.4043737E+006  0.4955751E+01  0.7546771E-02  0.2575064E+00
         21   -1    0    0  503  502  0.00000000000E+00  0.00000000000E+00  0.26647769212E+00  0.26647769212E+00  0.00000000000E+00 0.  1.
         21   -1    0    0  501  503 -0.00000000000E+00 -0.00000000000E+00 -0.92973017222E+02  0.92973017222E+02  0.00000000000E+00 0.  1.
          5    1    1    2  501    0  0.15409335429E+01  0.30821428769E+00 -0.50703871587E+02  0.50945481313E+02  0.47000000000E+01 0. -1.
         -5    1    1    2    0  502 -0.15409335429E+01 -0.30821428769E+00 -0.42002667942E+02  0.42294013601E+02  0.47000000000E+01 0. -1.
<mgrwt>
<rscale>  2 0.49557514E+01</rscale>
<asrwt>0</asrwt>
<pdfrwt beam="1">  1       21 0.40996554E-04 0.49557514E+01</pdfrwt>
<pdfrwt beam="2">  1       21 0.14303546E-01 0.49557514E+01</pdfrwt>
<totfact> 0.40965004E+09</totfact>
</mgrwt>
</event>
<event>
 4    1  0.4043737E+006  0.5045743E+01  0.7546771E-02  0.2559103E+00
         21   -1    0    0  503  502  0.00000000000E+00  0.00000000000E+00  0.19661356578E+01  0.19661356578E+01  0.00000000000E+00 0.  1.
         21   -1    0    0  501  503 -0.00000000000E+00 -0.00000000000E+00 -0.68443500404E+02  0.68443500404E+02  0.00000000000E+00 0.  1.
          5    1    1    2  501    0 -0.15349259233E+01  0.10067382212E+01 -0.64938802884E+02  0.65134534922E+02  0.47000000000E+01 0.  1.
         -5    1    1    2    0  502  0.15349259233E+01 -0.10067382212E+01 -0.15385618622E+01  0.52751011402E+01  0.47000000000E+01 0.  1.
<mgrwt>
<rscale>  2 0.50457427E+01</rscale>
<asrwt>0</asrwt>
<pdfrwt beam="1">  1       21 0.30248247E-03 0.50457427E+01</pdfrwt>
<pdfrwt beam="2">  1       21 0.10529767E-01 0.50457427E+01</pdfrwt>
<totfact> 0.46239395E+08</totfact>
</mgrwt>
</event>
<event>
 4    1  0.4043737E+006  0.5921746E+01  0.7546771E-02  0.2425721E+00
         21   -1    0    0  501  502  0.00000000000E+00  0.00000000000E+00  0.44639128858E+01  0.44639128858E+01  0.00000000000E+00 0. -1.
         21   -1    0    0  502  503 -0.00000000000E+00 -0.00000000000E+00 -0.15053980464E+02  0.15053980464E+02  0.00000000000E+00 0. -1.
          5    1    1    2  501    0  0.36019820457E+01  0.52911244890E-01  0.14532328679E+01  0.60974552090E+01  0.47000000000E+01 0. -1.
         -5    1    1    2    0  503 -0.36019820457E+01 -0.52911244890E-01 -0.12043300446E+02  0.13420438141E+02  0.47000000000E+01 0. -1.
<mgrwt>
<rscale>  2 0.59217459E+01</rscale>
<asrwt>0</asrwt>
<pdfrwt beam="1">  1       21 0.68675584E-03 0.59217459E+01</pdfrwt>
<pdfrwt beam="2">  1       21 0.23159970E-02 0.59217459E+01</pdfrwt>
<totfact> 0.15976261E+09</totfact>
</mgrwt>
</event>
<event>
 4    1  0.4043737E+006  0.7618655E+01  0.7546771E-02  0.2242803E+00
         21   -1    0    0  503  502  0.00000000000E+00  0.00000000000E+00  0.45518495503E+01  0.45518495503E+01  0.00000000000E+00 0.  1.
         21   -1    0    0  501  503 -0.00000000000E+00 -0.00000000000E+00 -0.12878142535E+02  0.12878142535E+02  0.00000000000E+00 0. -1.
          5    1    1    2  501    0  0.58331860948E+01 -0.13884695203E+01 -0.32996629156E+01  0.83025106433E+01  0.47000000000E+01 0.  1.
         -5    1    1    2    0  502 -0.58331860948E+01  0.13884695203E+01 -0.50266300695E+01  0.91274814424E+01  0.47000000000E+01 0. -1.
<mgrwt>
<rscale>  2 0.76186552E+01</rscale>
<asrwt>0</asrwt>
<pdfrwt beam="1">  1       21 0.70028456E-03 0.76186552E+01</pdfrwt>
<pdfrwt beam="2">  1       21 0.19812527E-02 0.76186552E+01</pdfrwt>
<totfact> 0.23829423E+09</totfact>
</mgrwt>
</event>
<event>
 4    1  0.4043737E+006  0.7365333E+01  0.7546771E-02  0.2265666E+00
         21   -1    0    0  503  502  0.00000000000E+00  0.00000000000E+00  0.22212844906E+00  0.22212844906E+00  0.00000000000E+00 0.  1.
         21   -1    0    0  501  503 -0.00000000000E+00 -0.00000000000E+00 -0.43441979629E+03  0.43441979629E+03  0.00000000000E+00 0. -1.
          5    1    1    2  501    0 -0.11411801571E+01  0.55548030088E+01 -0.36089663895E+03  0.36097178856E+03  0.47000000000E+01 0. -1.
         -5    1    1    2    0  502  0.11411801571E+01 -0.55548030088E+01 -0.73301028895E+02  0.73670136186E+02  0.47000000000E+01 0.  1.
<mgrwt>
<rscale>  2 0.73653329E+01</rscale>
<asrwt>0</asrwt>
<pdfrwt beam="1">  1       21 0.34174186E-04 0.73653329E+01</pdfrwt>
<pdfrwt beam="2">  1       21 0.66832684E-01 0.73653329E+01</pdfrwt>
<totfact> 0.51518236E+08</totfact>
</mgrwt>
</event>
<event>
 4    1  0.4043737E+006  0.6242826E+01  0.7546771E-02  0.2384852E+00
         21   -1    0    0  503  502  0.00000000000E+00  0.00000000000E+00  0.30411039544E+01  0.30411039544E+01  0.00000000000E+00 0. -1.
         21   -1    0    0  501  503 -0.00000000000E+00 -0.00000000000E+00 -0.24327969535E+02  0.24327969535E+02  0.00000000000E+00 0.  1.
          5    1    1    2  501    0 -0.31801622872E+01  0.26018153907E+01 -0.20057208530E+02  0.21006296425E+02  0.47000000000E+01 0.  1.
         -5    1    1    2    0  502  0.31801622872E+01 -0.26018153907E+01 -0.12296570503E+01  0.63627770636E+01  0.47000000000E+01 0. -1.
<mgrwt>
<rscale>  2 0.62428259E+01</rscale>
<asrwt>0</asrwt>
<pdfrwt beam="1">  1       21 0.46786213E-03 0.62428259E+01</pdfrwt>
<pdfrwt beam="2">  1       21 0.37427647E-02 0.62428259E+01</pdfrwt>
<totfact> 0.14182907E+09</totfact>
</mgrwt>
</event>
<event>
 4    1  0.4043737E+006  0.8429372E+01  0.7546771E-02  0.2177208E+00
         21   -1    0    0  501  502  0.00000000000E+00  0.00000000000E+00  0.57674316846E+02  0.57674316846E+02  0.00000000000E+00 0. -1.
         21   -1    0    0  502  503 -0.00000000000E+00 -0.00000000000E+00 -0.13150417263E+01  0.13150417263E+01  0.00000000000E+00 0.  1.
          5    1    1    2  501    0 -0.18134239487E+01 -0.67583875145E+01  0.35591758624E+02  0.36576325542E+02  0.47000000000E+01 0. -1.
         -5    1    1    2    0  503  0.18134239487E+01  0.67583875145E+01  0.20767516496E+02  0.22413033031E+02  0.47000000000E+01 0.  1.
<mgrwt>
<rscale>  2 0.84293718E+01</rscale>
<asrwt>0</asrwt>
<pdfrwt beam="1">  1       21 0.88729699E-02 0.84293718E+01</pdfrwt>
<pdfrwt beam="2">  1       21 0.20231416E-03 0.84293718E+01</pdfrwt>
<totfact> 0.15331114E+09</totfact>
</mgrwt>
</event>
<event>
 4    1  0.4043737E+006  0.8463205E+01  0.7546771E-02  0.2174692E+00
         21   -1    0    0  501  502  0.00000000000E+00  0.00000000000E+00  0.16416444840E+02  0.16416444840E+02  0.00000000000E+00 0. -1.
         21   -1    0    0  502  503 -0.00000000000E+00 -0.00000000000E+00 -0.43785798674E+01  0.43785798674E+01  0.00000000000E+00 0.  1.
          5    1    1    2  501    0 -0.36948327158E+01 -0.59903293042E+01  0.53997881581E+01  0.10039100862E+02  0.47000000000E+01 0.  1.
         -5    1    1    2    0  503  0.36948327158E+01  0.59903293042E+01  0.66380768148E+01  0.10755923845E+02  0.47000000000E+01 0.  1.
<mgrwt>
<rscale>  2 0.84632047E+01</rscale>
<asrwt>0</asrwt>
<pdfrwt beam="1">  1       21 0.25256069E-02 0.84632047E+01</pdfrwt>
<pdfrwt beam="2">  1       21 0.67362768E-03 0.84632047E+01</pdfrwt>
<totfact> 0.19004264E+09</totfact>
</mgrwt>
</event>
<event>
 4    1  0.4043737E+006  0.4713528E+01  0.7546771E-02  0.2620629E+00
         21   -1    0    0  503  502  0.00000000000E+00  0.00000000000E+00  0.67448241404E+00  0.67448241404E+00  0.00000000000E+00 0. -1.
         21   -1    0    0  501  503 -0.00000000000E+00 -0.00000000000E+00 -0.33324919010E+02  0.33324919010E+02  0.00000000000E+00 0. -1.
          5    1    1    2  501    0 -0.33862173521E+00  0.11262361301E+00 -0.14497847554E+02  0.15244832976E+02  0.47000000000E+01 0. -1.
         -5    1    1    2    0  502  0.33862173521E+00 -0.11262361301E+00 -0.18152589043E+02  0.18754568449E+02  0.47000000000E+01 0. -1.
<mgrwt>
<rscale>  2 0.47135283E+01</rscale>
<asrwt>0</asrwt>
<pdfrwt beam="1">  1       21 0.10376653E-03 0.47135283E+01</pdfrwt>
<pdfrwt beam="2">  1       21 0.51269104E-02 0.47135283E+01</pdfrwt>
<totfact> 0.52869913E+09</totfact>
</mgrwt>
</event>
<event>
 4    1  0.4043737E+006  0.6757856E+01  0.7546771E-02  0.2326120E+00
         21   -1    0    0  503  502  0.00000000000E+00  0.00000000000E+00  0.24265445086E+01  0.24265445086E+01  0.00000000000E+00 0.  1.
         21   -1    0    0  501  503 -0.00000000000E+00 -0.00000000000E+00 -0.36703261935E+02  0.36703261935E+02  0.00000000000E+00 0.  1.
          5    1    1    2  501    0 -0.17718547358E+01 -0.45209675579E+01 -0.30794987070E+02  0.31527763090E+02  0.47000000000E+01 0.  1.
         -5    1    1    2    0  502  0.17718547358E+01  0.45209675579E+01 -0.34817303564E+01  0.76020433529E+01  0.47000000000E+01 0.  1.
<mgrwt>
<rscale>  2 0.67578559E+01</rscale>
<asrwt>0</asrwt>
<pdfrwt beam="1">  1       21 0.37331457E-03 0.67578559E+01</pdfrwt>
<pdfrwt beam="2">  1       21 0.56466552E-02 0.67578559E+01</pdfrwt>
<totfact> 0.11209656E+09</totfact>
</mgrwt>
</event>
<event>
 4    1  0.4043737E+006  0.5272307E+01  0.7546771E-02  0.2521001E+00
         21   -1    0    0  501  502  0.00000000000E+00  0.00000000000E+00  0.78402867614E+03  0.78402867614E+03  0.00000000000E+00 0. -1.
         21   -1    0    0  502  503 -0.00000000000E+00 -0.00000000000E+00 -0.92075255347E-01  0.92075255347E-01  0.00000000000E+00 0. -1.
          5    1    1    2  501    0  0.84015736274E+00  0.22363705131E+01  0.69941507240E+03  0.69943494387E+03  0.47000000000E+01 0. -1.
         -5    1    1    2    0  503 -0.84015736274E+00 -0.22363705131E+01  0.84521528485E+02  0.84685807518E+02  0.47000000000E+01 0. -1.
<mgrwt>
<rscale>  2 0.52723067E+01</rscale>
<asrwt>0</asrwt>
<pdfrwt beam="1">  1       21 0.12061445E+00 0.52723067E+01</pdfrwt>
<pdfrwt beam="2">  1       21 0.14166052E-04 0.52723067E+01</pdfrwt>
<totfact> 0.41536827E+08</totfact>
</mgrwt>
</event>
<event>
 4    1  0.4043737E+006  0.7043483E+01  0.7546771E-02  0.2296632E+00
         21   -1    0    0  501  502  0.00000000000E+00  0.00000000000E+00  0.54471709378E+02  0.54471709378E+02  0.00000000000E+00 0.  1.
         21   -1    0    0  502  503 -0.00000000000E+00 -0.00000000000E+00 -0.18718229091E+01  0.18718229091E+01  0.00000000000E+00 0.  1.
          5    1    1    2  501    0  0.23605205669E+01  0.46849331176E+01  0.46486283847E+02  0.47016861248E+02  0.47000000000E+01 0.  1.
         -5    1    1    2    0  503 -0.23605205669E+01 -0.46849331176E+01  0.61136026220E+01  0.93266710397E+01  0.47000000000E+01 0.  1.
<mgrwt>
<rscale>  2 0.70434832E+01</rscale>
<asrwt>0</asrwt>
<pdfrwt beam="1">  1       21 0.83802618E-02 0.70434832E+01</pdfrwt>
<pdfrwt beam="2">  1       21 0.28797280E-03 0.70434832E+01</pdfrwt>
<totfact> 0.90868231E+08</totfact>
</mgrwt>
</event>
<event>
 4    1  0.4043737E+006  0.7777271E+01  0.7546771E-02  0.2229105E+00
         21   -1    0    0  501  502  0.00000000000E+00  0.00000000000E+00  0.12397182622E+02  0.12397182622E+02  0.00000000000E+00 0. -1.
         21   -1    0    0  502  503 -0.00000000000E+00 -0.00000000000E+00 -0.71116859886E+01  0.71116859886E+01  0.00000000000E+00 0. -1.
          5    1    1    2  501    0  0.57892443006E+01 -0.22092075143E+01  0.81082356567E+01  0.11235187265E+02  0.47000000000E+01 0. -1.
         -5    1    1    2    0  503 -0.57892443006E+01  0.22092075143E+01 -0.28227390235E+01  0.82736813455E+01  0.47000000000E+01 0. -1.
<mgrwt>
<rscale>  2 0.77772712E+01</rscale>
<asrwt>0</asrwt>
<pdfrwt beam="1">  1       21 0.19072589E-02 0.77772712E+01</pdfrwt>
<pdfrwt beam="2">  1       21 0.10941055E-02 0.77772712E+01</pdfrwt>
<totfact> 0.13527749E+09</totfact>
</mgrwt>
</event>
<event>
 4    1  0.4043737E+006  0.5921675E+01  0.7546771E-02  0.2425730E+00
         21   -1    0    0  503  502  0.00000000000E+00  0.00000000000E+00  0.18522958173E+02  0.18522958173E+02  0.00000000000E+00 0. -1.
         21   -1    0    0  501  503 -0.00000000000E+00 -0.00000000000E+00 -0.19949001276E+01  0.19949001276E+01  0.00000000000E+00 0.  1.
          5    1    1    2  501    0 -0.14001320567E+00  0.35995323590E+01  0.59468121095E+01  0.83923066655E+01  0.47000000000E+01 0.  1.
         -5    1    1    2    0  502  0.14001320567E+00 -0.35995323590E+01  0.10581245936E+02  0.12125551635E+02  0.47000000000E+01 0. -1.
<mgrwt>
<rscale>  2 0.59216752E+01</rscale>
<asrwt>0</asrwt>
<pdfrwt beam="1">  1       21 0.28496858E-02 0.59216752E+01</pdfrwt>
<pdfrwt beam="2">  1       21 0.30690772E-03 0.59216752E+01</pdfrwt>
<totfact> 0.36133438E+09</totfact>
</mgrwt>
</event>
<event>
 4    1  0.4043737E+006  0.4899460E+01  0.7546771E-02  0.2585304E+00
         21   -1    0    0  501  502  0.00000000000E+00  0.00000000000E+00  0.46040918170E+00  0.46040918170E+00  0.00000000000E+00 0. -1.
         21   -1    0    0  502  503 -0.00000000000E+00 -0.00000000000E+00 -0.10685087564E+03  0.10685087564E+03  0.00000000000E+00 0. -1.
          5    1    1    2  501    0  0.12076956272E+01  0.67541288093E+00 -0.14800468426E+02  0.15590336010E+02  0.47000000000E+01 0. -1.
         -5    1    1    2    0  503 -0.12076956272E+01 -0.67541288093E+00 -0.91589998034E+02  0.91720948813E+02  0.47000000000E+01 0. -1.
<mgrwt>
<rscale>  2 0.48994603E+01</rscale>
<asrwt>0</asrwt>
<pdfrwt beam="1">  1       21 0.70832179E-04 0.48994603E+01</pdfrwt>
<pdfrwt beam="2">  1       21 0.16438597E-01 0.48994603E+01</pdfrwt>
<totfact> 0.15821718E+09</totfact>
</mgrwt>
</event>
<event>
 4    1  0.4043737E+006  0.4713269E+01  0.7546771E-02  0.2620680E+00
         21   -1    0    0  503  502  0.00000000000E+00  0.00000000000E+00  0.24809183124E+03  0.24809183124E+03  0.00000000000E+00 0. -1.
         21   -1    0    0  501  503 -0.00000000000E+00 -0.00000000000E+00 -0.31470529223E+00  0.31470529223E+00  0.00000000000E+00 0. -1.
          5    1    1    2  501    0  0.29875689650E+00 -0.18880023470E+00  0.18830648422E+02  0.19411548656E+02  0.47000000000E+01 0. -1.
         -5    1    1    2    0  502 -0.29875689650E+00  0.18880023470E+00  0.22894647753E+03  0.22899498788E+03  0.47000000000E+01 0. -1.
<mgrwt>
<rscale>  2 0.47132686E+01</rscale>
<asrwt>0</asrwt>
<pdfrwt beam="1">  1       21 0.38167818E-01 0.47132686E+01</pdfrwt>
<pdfrwt beam="2">  1       21 0.48416397E-04 0.47132686E+01</pdfrwt>
<totfact> 0.64285945E+08</totfact>
</mgrwt>
</event>
<event>
 4    1  0.4043737E+006  0.5025876E+01  0.7546771E-02  0.2562584E+00
         21   -1    0    0  503  502  0.00000000000E+00  0.00000000000E+00  0.24530503597E+02  0.24530503597E+02  0.00000000000E+00 0. -1.
         21   -1    0    0  501  503 -0.00000000000E+00 -0.00000000000E+00 -0.13717902486E+01  0.13717902486E+01  0.00000000000E+00 0. -1.
          5    1    1    2  501    0  0.10553261019E+01  0.14337772524E+01  0.18046688222E+02  0.18733456333E+02  0.47000000000E+01 0. -1.
         -5    1    1    2    0  502 -0.10553261019E+01 -0.14337772524E+01  0.51120251261E+01  0.71688375125E+01  0.47000000000E+01 0. -1.
<mgrwt>
<rscale>  2 0.50258761E+01</rscale>
<asrwt>0</asrwt>
<pdfrwt beam="1">  1       21 0.37739233E-02 0.50258761E+01</pdfrwt>
<pdfrwt beam="2">  1       21 0.21104467E-03 0.50258761E+01</pdfrwt>
<totfact> 0.34209876E+09</totfact>
</mgrwt>
</event>
<event>
 4    1  0.4043737E+006  0.8919209E+01  0.7546771E-02  0.2142275E+00
         21   -1    0    0  501  502  0.00000000000E+00  0.00000000000E+00  0.52865779250E+00  0.52865779250E+00  0.00000000000E+00 0. -1.
         21   -1    0    0  502  503 -0.00000000000E+00 -0.00000000000E+00 -0.20980112370E+03  0.20980112370E+03  0.00000000000E+00 0. -1.
          5    1    1    2  501    0  0.33643514861E+00 -0.75729189504E+01 -0.16055691844E+03  0.16080446619E+03  0.47000000000E+01 0. -1.
         -5    1    1    2    0  503 -0.33643514861E+00  0.75729189504E+01 -0.48715547471E+02  0.49525315299E+02  0.47000000000E+01 0. -1.
<mgrwt>
<rscale>  2 0.89192090E+01</rscale>
<asrwt>0</asrwt>
<pdfrwt beam="1">  1       21 0.81331998E-04 0.89192090E+01</pdfrwt>
<pdfrwt beam="2">  1       21 0.32277084E-01 0.89192090E+01</pdfrwt>
<totfact> 0.66881968E+08</totfact>
</mgrwt>
</event>
<event>
 4    1  0.4043737E+006  0.4922317E+01  0.7546771E-02  0.2581122E+00
         21   -1    0    0  503  502  0.00000000000E+00  0.00000000000E+00  0.44898815189E-01  0.44898815189E-01  0.00000000000E+00 0. -1.
         21   -1    0    0  501  503 -0.00000000000E+00 -0.00000000000E+00 -0.69345266927E+03  0.69345266927E+03  0.00000000000E+00 0. -1.
          5    1    1    2  501    0 -0.61363574143E+00 -0.13276486453E+01 -0.51001001673E+03  0.51003376983E+03  0.47000000000E+01 0. -1.
         -5    1    1    2    0  502  0.61363574143E+00  0.13276486453E+01 -0.18339775373E+03  0.18346379826E+03  0.47000000000E+01 0. -1.
<mgrwt>
<rscale>  2 0.49223165E+01</rscale>
<asrwt>0</asrwt>
<pdfrwt beam="1">  1       21 0.69071388E-05 0.49223165E+01</pdfrwt>
<pdfrwt beam="2">  1       21 0.10669076E+00 0.49223165E+01</pdfrwt>
<totfact> 0.13152879E+09</totfact>
</mgrwt>
</event>
<event>
 4    1  0.4043737E+006  0.7826524E+01  0.7546771E-02  0.2224943E+00
         21   -1    0    0  503  502  0.00000000000E+00  0.00000000000E+00  0.41374416732E+00  0.41374416732E+00  0.00000000000E+00 0. -1.
         21   -1    0    0  501  503 -0.00000000000E+00 -0.00000000000E+00 -0.14891760604E+03  0.14891760604E+03  0.00000000000E+00 0. -1.
          5    1    1    2  501    0 -0.50995444918E+00 -0.62373411497E+01 -0.79953814519E+02  0.80335962895E+02  0.47000000000E+01 0. -1.
         -5    1    1    2    0  502  0.50995444918E+00  0.62373411497E+01 -0.68550047352E+02  0.68995387311E+02  0.47000000000E+01 0. -1.
<mgrwt>
<rscale>  2 0.78265240E+01</rscale>
<asrwt>0</asrwt>
<pdfrwt beam="1">  1       21 0.63652924E-04 0.78265240E+01</pdfrwt>
<pdfrwt beam="2">  1       21 0.22910410E-01 0.78265240E+01</pdfrwt>
<totfact> 0.15473931E+09</totfact>
</mgrwt>
</event>
<event>
 4    1  0.4043737E+006  0.6961442E+01  0.7546771E-02  0.2304899E+00
         21   -1    0    0  501  502  0.00000000000E+00  0.00000000000E+00  0.23177339370E+02  0.23177339370E+02  0.00000000000E+00 0.  1.
         21   -1    0    0  502  503 -0.00000000000E+00 -0.00000000000E+00 -0.20943711023E+01  0.20943711023E+01  0.00000000000E+00 0. -1.
          5    1    1    2  501    0  0.50285763041E+01  0.10416795967E+01  0.10027638246E+02  0.12207178414E+02  0.47000000000E+01 0.  1.
         -5    1    1    2    0  503 -0.50285763041E+01 -0.10416795967E+01  0.11055330022E+02  0.13064532059E+02  0.47000000000E+01 0.  1.
<mgrwt>
<rscale>  2 0.69614421E+01</rscale>
<asrwt>0</asrwt>
<pdfrwt beam="1">  1       21 0.35657443E-02 0.69614421E+01</pdfrwt>
<pdfrwt beam="2">  1       21 0.32221095E-03 0.69614421E+01</pdfrwt>
<totfact> 0.27897880E+09</totfact>
</mgrwt>
</event>
<event>
 4    1  0.4043737E+006  0.5696895E+01  0.7546771E-02  0.2456626E+00
         21   -1    0    0  503  502  0.00000000000E+00  0.00000000000E+00  0.43949026991E+00  0.43949026991E+00  0.00000000000E+00 0. -1.
         21   -1    0    0  501  503 -0.00000000000E+00 -0.00000000000E+00 -0.77957201355E+02  0.77957201355E+02  0.00000000000E+00 0. -1.
          5    1    1    2  501    0 -0.16373708847E+01 -0.27719351370E+01 -0.47760521047E+02  0.48099085007E+02  0.47000000000E+01 0. -1.
         -5    1    1    2    0  502  0.16373708847E+01  0.27719351370E+01 -0.29757190038E+02  0.30297606618E+02  0.47000000000E+01 0. -1.
<mgrwt>
<rscale>  2 0.56968946E+01</rscale>
<asrwt>0</asrwt>
<pdfrwt beam="1">  1       21 0.67613989E-04 0.56968946E+01</pdfrwt>
<pdfrwt beam="2">  1       21 0.11993398E-01 0.56968946E+01</pdfrwt>
<totfact> 0.31560890E+09</totfact>
</mgrwt>
</event>
<event>
 4    1  0.4043737E+006  0.5489277E+01  0.7546771E-02  0.2487048E+00
         21   -1    0    0  501  502  0.00000000000E+00  0.00000000000E+00  0.10116331385E+03  0.10116331385E+03  0.00000000000E+00 0. -1.
         21   -1    0    0  502  503 -0.00000000000E+00 -0.00000000000E+00 -0.35412446999E+00  0.35412446999E+00  0.00000000000E+00 0. -1.
          5    1    1    2  501    0  0.26382333601E+01  0.10401402290E+01  0.70637706673E+02  0.70850672340E+02  0.47000000000E+01 0. -1.
         -5    1    1    2    0  503 -0.26382333601E+01 -0.10401402290E+01  0.30171482711E+02  0.30666765984E+02  0.47000000000E+01 0. -1.
<mgrwt>
<rscale>  2 0.54892775E+01</rscale>
<asrwt>0</asrwt>
<pdfrwt beam="1">  1       21 0.15563564E-01 0.54892775E+01</pdfrwt>
<pdfrwt beam="2">  1       21 0.54480768E-04 0.54892775E+01</pdfrwt>
<totfact> 0.27137120E+09</totfact>
</mgrwt>
</event>
<event>
 4    1  0.4043737E+006  0.6441277E+01  0.7546771E-02  0.2361301E+00
         21   -1    0    0  503  502  0.00000000000E+00  0.00000000000E+00  0.18221969617E+01  0.18221969617E+01  0.00000000000E+00 0.  1.
         21   -1    0    0  501  503 -0.00000000000E+00 -0.00000000000E+00 -0.55645661180E+02  0.55645661180E+02  0.00000000000E+00 0.  1.
          5    1    1    2  501    0  0.16334317000E+00  0.44015195207E+01 -0.48997961310E+02  0.49419533260E+02  0.47000000000E+01 0.  1.
         -5    1    1    2    0  502 -0.16334317000E+00 -0.44015195207E+01 -0.48255029075E+01  0.80483248812E+01  0.47000000000E+01 0.  1.
<mgrwt>
<rscale>  2 0.64412774E+01</rscale>
<asrwt>0</asrwt>
<pdfrwt beam="1">  1       21 0.28033802E-03 0.64412774E+01</pdfrwt>
<pdfrwt beam="2">  1       21 0.85608702E-02 0.64412774E+01</pdfrwt>
<totfact> 0.85556394E+08</totfact>
</mgrwt>
</event>
<event>
 4    1  0.4043737E+006  0.8348936E+01  0.7546771E-02  0.2183256E+00
         21   -1    0    0  503  502  0.00000000000E+00  0.00000000000E+00  0.17390921997E+03  0.17390921997E+03  0.00000000000E+00 0.  1.
         21   -1    0    0  501  503 -0.00000000000E+00 -0.00000000000E+00 -0.10816153863E+01  0.10816153863E+01  0.00000000000E+00 0. -1.
          5    1    1    2  501    0  0.77560135194E+00  0.68566156294E+01  0.16997729451E+02  0.18937463976E+02  0.47000000000E+01 0. -1.
         -5    1    1    2    0  502 -0.77560135194E+00 -0.68566156294E+01  0.15582987513E+03  0.15605337138E+03  0.47000000000E+01 0.  1.
<mgrwt>
<rscale>  2 0.83489362E+01</rscale>
<asrwt>0</asrwt>
<pdfrwt beam="1">  1       21 0.26755242E-01 0.83489362E+01</pdfrwt>
<pdfrwt beam="2">  1       21 0.16640251E-03 0.83489362E+01</pdfrwt>
<totfact> 0.33316639E+08</totfact>
</mgrwt>
</event>
<event>
 4    1  0.4043737E+006  0.1187705E+02  0.7546771E-02  0.1981655E+00
         21   -1    0    0  503  502  0.00000000000E+00  0.00000000000E+00  0.88189644534E+02  0.88189644534E+02  0.00000000000E+00 0. -1.
         21   -1    0    0  501  503 -0.00000000000E+00 -0.00000000000E+00 -0.18331505202E+01  0.18331505202E+01  0.00000000000E+00 0.  1.
          5    1    1    2  501    0 -0.85948469419E+01 -0.67158682135E+01  0.27110510206E+02  0.29598041209E+02  0.47000000000E+01 0.  1.
         -5    1    1    2    0  502  0.85948469419E+01  0.67158682135E+01  0.59245983808E+02  0.60424753845E+02  0.47000000000E+01 0. -1.
<mgrwt>
<rscale>  2 0.11877048E+02</rscale>
<asrwt>0</asrwt>
<pdfrwt beam="1">  1       21 0.13567634E-01 0.11877048E+02</pdfrwt>
<pdfrwt beam="2">  1       21 0.28202323E-03 0.11877048E+02</pdfrwt>
<totfact> 0.59271766E+08</totfact>
</mgrwt>
</event>
<event>
 4    1  0.4043737E+006  0.7861823E+01  0.7546771E-02  0.2221986E+00
         21   -1    0    0  503  502  0.00000000000E+00  0.00000000000E+00  0.13357041142E+03  0.13357041142E+03  0.00000000000E+00 0. -1.
         21   -1    0    0  501  503 -0.00000000000E+00 -0.00000000000E+00 -0.50450534012E+00  0.50450534012E+00  0.00000000000E+00 0. -1.
          5    1    1    2  501    0  0.59620913908E+01  0.20424812230E+01  0.47244521854E+02  0.47894186584E+02  0.47000000000E+01 0. -1.
         -5    1    1    2    0  502 -0.59620913908E+01 -0.20424812230E+01  0.85821384224E+02  0.86180730174E+02  0.47000000000E+01 0. -1.
<mgrwt>
<rscale>  2 0.78618232E+01</rscale>
<asrwt>0</asrwt>
<pdfrwt beam="1">  1       21 0.20549266E-01 0.78618232E+01</pdfrwt>
<pdfrwt beam="2">  1       21 0.77616313E-04 0.78618232E+01</pdfrwt>
<totfact> 0.14202601E+09</totfact>
</mgrwt>
</event>
<event>
 4    1  0.4043737E+006  0.7270223E+01  0.7546771E-02  0.2274584E+00
         21   -1    0    0  503  502  0.00000000000E+00  0.00000000000E+00  0.16361026326E+01  0.16361026326E+01  0.00000000000E+00 0.  1.
         21   -1    0    0  501  503 -0.00000000000E+00 -0.00000000000E+00 -0.61210760221E+02  0.61210760221E+02  0.00000000000E+00 0. -1.
          5    1    1    2  501    0  0.54459459229E+01  0.10525307917E+01 -0.51380847301E+02  0.51892654754E+02  0.47000000000E+01 0. -1.
         -5    1    1    2    0  502 -0.54459459229E+01 -0.10525307917E+01 -0.81938102881E+01  0.10954208100E+02  0.47000000000E+01 0.  1.
<mgrwt>
<rscale>  2 0.72702234E+01</rscale>
<asrwt>0</asrwt>
<pdfrwt beam="1">  1       21 0.25170814E-03 0.72702234E+01</pdfrwt>
<pdfrwt beam="2">  1       21 0.94170385E-02 0.72702234E+01</pdfrwt>
<totfact> 0.93480305E+08</totfact>
</mgrwt>
</event>
<event>
 4    1  0.4043737E+006  0.6344079E+01  0.7546771E-02  0.2372683E+00
         21   -1    0    0  501  502  0.00000000000E+00  0.00000000000E+00  0.13637623930E+02  0.13637623930E+02  0.00000000000E+00 0. -1.
         21   -1    0    0  502  503 -0.00000000000E+00 -0.00000000000E+00 -0.37522024927E+01  0.37522024927E+01  0.00000000000E+00 0. -1.
          5    1    1    2  501    0  0.34475074825E+00  0.42471736133E+01  0.89600584837E+01  0.10978614886E+02  0.47000000000E+01 0. -1.
         -5    1    1    2    0  503 -0.34475074825E+00 -0.42471736133E+01  0.92536295403E+00  0.64112115373E+01  0.47000000000E+01 0. -1.
<mgrwt>
<rscale>  2 0.63440789E+01</rscale>
<asrwt>0</asrwt>
<pdfrwt beam="1">  1       21 0.20980960E-02 0.63440789E+01</pdfrwt>
<pdfrwt beam="2">  1       21 0.57726193E-03 0.63440789E+01</pdfrwt>
<totfact> 0.24907385E+09</totfact>
</mgrwt>
</event>
<event>
 4    1  0.4043737E+006  0.4749637E+01  0.7546771E-02  0.2613581E+00
         21   -1    0    0  501  502  0.00000000000E+00  0.00000000000E+00  0.75818936188E+00  0.75818936188E+00  0.00000000000E+00 0.  1.
         21   -1    0    0  502  503 -0.00000000000E+00 -0.00000000000E+00 -0.63039599308E+02  0.63039599308E+02  0.00000000000E+00 0.  1.
          5    1    1    2  501    0  0.11867488466E+00  0.67451601061E+00 -0.79615258894E+01  0.92706499268E+01  0.47000000000E+01 0.  1.
         -5    1    1    2    0  503 -0.11867488466E+00 -0.67451601061E+00 -0.54319884056E+02  0.54527138743E+02  0.47000000000E+01 0.  1.
<mgrwt>
<rscale>  2 0.47496374E+01</rscale>
<asrwt>0</asrwt>
<pdfrwt beam="1">  1       21 0.11664452E-03 0.47496374E+01</pdfrwt>
<pdfrwt beam="2">  1       21 0.96983995E-02 0.47496374E+01</pdfrwt>
<totfact> 0.17782957E+09</totfact>
</mgrwt>
</event>
<event>
 4    1  0.4043737E+006  0.7052198E+01  0.7546771E-02  0.2295763E+00
         21   -1    0    0  501  502  0.00000000000E+00  0.00000000000E+00  0.22973136135E+02  0.22973136135E+02  0.00000000000E+00 0. -1.
         21   -1    0    0  502  503 -0.00000000000E+00 -0.00000000000E+00 -0.21877757158E+01  0.21877757158E+01  0.00000000000E+00 0.  1.
          5    1    1    2  501    0  0.44409564360E+01 -0.28144979852E+01  0.11680382668E+02  0.13644223402E+02  0.47000000000E+01 0.  1.
         -5    1    1    2    0  503 -0.44409564360E+01  0.28144979852E+01  0.91049777519E+01  0.11516688449E+02  0.47000000000E+01 0.  1.
<mgrwt>
<rscale>  2 0.70521977E+01</rscale>
<asrwt>0</asrwt>
<pdfrwt beam="1">  1       21 0.35343285E-02 0.70521977E+01</pdfrwt>
<pdfrwt beam="2">  1       21 0.33658090E-03 0.70521977E+01</pdfrwt>
<totfact> 0.26874535E+09</totfact>
</mgrwt>
</event>
<event>
 4    1  0.4043737E+006  0.4826296E+01  0.7546771E-02  0.2598923E+00
         21   -1    0    0  503  502  0.00000000000E+00  0.00000000000E+00  0.10990256353E+02  0.10990256353E+02  0.00000000000E+00 0.  1.
         21   -1    0    0  501  503 -0.00000000000E+00 -0.00000000000E+00 -0.23502250519E+01  0.23502250519E+01  0.00000000000E+00 0.  1.
          5    1    1    2  501    0 -0.90897403684E+00 -0.61392167777E+00  0.22297795089E+01  0.53164885295E+01  0.47000000000E+01 0.  1.
         -5    1    1    2    0  502  0.90897403684E+00  0.61392167777E+00  0.64102517923E+01  0.80239928756E+01  0.47000000000E+01 0.  1.
<mgrwt>
<rscale>  2 0.48262961E+01</rscale>
<asrwt>0</asrwt>
<pdfrwt beam="1">  1       21 0.16908086E-02 0.48262961E+01</pdfrwt>
<pdfrwt beam="2">  1       21 0.36157309E-03 0.48262961E+01</pdfrwt>
<totfact> 0.49700630E+09</totfact>
</mgrwt>
</event>
<event>
 4    1  0.4043737E+006  0.5539094E+01  0.7546771E-02  0.2479572E+00
         21   -1    0    0  503  502  0.00000000000E+00  0.00000000000E+00  0.53887047496E+03  0.53887047496E+03  0.00000000000E+00 0.  1.
         21   -1    0    0  501  503 -0.00000000000E+00 -0.00000000000E+00 -0.70201847700E-01  0.70201847700E-01  0.00000000000E+00 0.  1.
          5    1    1    2  501    0  0.19465063246E+01 -0.21915000174E+01  0.15226393343E+03  0.15236465135E+03  0.47000000000E+01 0.  1.
         -5    1    1    2    0  502 -0.19465063246E+01  0.21915000174E+01  0.38653633969E+03  0.38657602546E+03  0.47000000000E+01 0.  1.
<mgrwt>
<rscale>  2 0.55390937E+01</rscale>
<asrwt>0</asrwt>
<pdfrwt beam="1">  1       21 0.82899838E-01 0.55390937E+01</pdfrwt>
<pdfrwt beam="2">  1       21 0.10800716E-04 0.55390937E+01</pdfrwt>
<totfact> 0.13098790E+09</totfact>
</mgrwt>
</event>
<event>
 4    1  0.4043737E+006  0.1014214E+02  0.7546771E-02  0.2066987E+00
         21   -1    0    0  501  502  0.00000000000E+00  0.00000000000E+00  0.54196263732E+01  0.54196263732E+01  0.00000000000E+00 0. -1.
         21   -1    0    0  502  503 -0.00000000000E+00 -0.00000000000E+00 -0.18986239601E+02  0.18986239601E+02  0.00000000000E+00 0. -1.
          5    1    1    2  501    0  0.89604966584E+01 -0.69463351757E+00 -0.65572582134E+01  0.12077278310E+02  0.47000000000E+01 0. -1.
         -5    1    1    2    0  503 -0.89604966584E+01  0.69463351757E+00 -0.70093550146E+01  0.12328587665E+02  0.47000000000E+01 0. -1.
<mgrwt>
<rscale>  2 0.10142141E+02</rscale>
<asrwt>0</asrwt>
<pdfrwt beam="1">  1       21 0.83378866E-03 0.10142141E+02</pdfrwt>
<pdfrwt beam="2">  1       21 0.29209600E-02 0.10142141E+02</pdfrwt>
<totfact> 0.12643396E+09</totfact>
</mgrwt>
</event>
<event>
 4    1  0.4043737E+006  0.1059757E+02  0.7546771E-02  0.2042493E+00
         21   -1    0    0  503  502  0.00000000000E+00  0.00000000000E+00  0.30926787156E+01  0.30926787156E+01  0.00000000000E+00 0. -1.
         21   -1    0    0  501  503 -0.00000000000E+00 -0.00000000000E+00 -0.75836076144E+02  0.75836076144E+02  0.00000000000E+00 0.  1.
          5    1    1    2  501    0  0.60412252415E+01  0.73295374555E+01 -0.64861239633E+02  0.65721297374E+02  0.47000000000E+01 0.  1.
         -5    1    1    2    0  502 -0.60412252415E+01 -0.73295374555E+01 -0.78821577952E+01  0.13207457486E+02  0.47000000000E+01 0. -1.
<mgrwt>
<rscale>  2 0.10597572E+02</rscale>
<asrwt>0</asrwt>
<pdfrwt beam="1">  1       21 0.47579672E-03 0.10597572E+02</pdfrwt>
<pdfrwt beam="2">  1       21 0.11667089E-01 0.10597572E+02</pdfrwt>
<totfact> 0.33987145E+08</totfact>
</mgrwt>
</event>
<event>
 4    1  0.4043737E+006  0.1074324E+02  0.7546771E-02  0.2035002E+00
         21   -1    0    0  503  502  0.00000000000E+00  0.00000000000E+00  0.13272725891E+03  0.13272725891E+03  0.00000000000E+00 0. -1.
         21   -1    0    0  501  503 -0.00000000000E+00 -0.00000000000E+00 -0.11466911739E+01  0.11466911739E+01  0.00000000000E+00 0.  1.
          5    1    1    2  501    0 -0.31158944497E+01 -0.91443143948E+01  0.32884820444E+02  0.34595212090E+02  0.47000000000E+01 0.  1.
         -5    1    1    2    0  502  0.31158944497E+01  0.91443143948E+01  0.98695747297E+02  0.99278737998E+02  0.47000000000E+01 0. -1.
<mgrwt>
<rscale>  2 0.10743244E+02</rscale>
<asrwt>0</asrwt>
<pdfrwt beam="1">  1       21 0.20419566E-01 0.10743244E+02</pdfrwt>
<pdfrwt beam="2">  1       21 0.17641413E-03 0.10743244E+02</pdfrwt>
<totfact> 0.55440112E+08</totfact>
</mgrwt>
</event>
<event>
 4    1  0.4043737E+006  0.5178621E+01  0.7546771E-02  0.2536410E+00
         21   -1    0    0  501  502  0.00000000000E+00  0.00000000000E+00  0.13495317226E+03  0.13495317226E+03  0.00000000000E+00 0. -1.
         21   -1    0    0  502  503 -0.00000000000E+00 -0.00000000000E+00 -0.20483947449E+00  0.20483947449E+00  0.00000000000E+00 0. -1.
          5    1    1    2  501    0 -0.17380274255E+01  0.13066653160E+01  0.79053132432E+02  0.79222571663E+02  0.47000000000E+01 0. -1.
         -5    1    1    2    0  503  0.17380274255E+01 -0.13066653160E+01  0.55695200355E+02  0.55935440073E+02  0.47000000000E+01 0. -1.
<mgrwt>
<rscale>  2 0.51786208E+01</rscale>
<asrwt>0</asrwt>
<pdfrwt beam="1">  1       21 0.20761955E-01 0.51786208E+01</pdfrwt>
<pdfrwt beam="2">  1       21 0.31513873E-04 0.51786208E+01</pdfrwt>
<totfact> 0.33708499E+09</totfact>
</mgrwt>
</event>
<event>
 4    1  0.4043737E+006  0.5598903E+01  0.7546771E-02  0.2470746E+00
         21   -1    0    0  501  502  0.00000000000E+00  0.00000000000E+00  0.58136192547E+00  0.58136192547E+00  0.00000000000E+00 0. -1.
         21   -1    0    0  502  503 -0.00000000000E+00 -0.00000000000E+00 -0.11606404704E+03  0.11606404704E+03  0.00000000000E+00 0.  1.
          5    1    1    2  501    0  0.29645959537E+01  0.68475076754E+00 -0.15065265355E+02  0.16072023301E+02  0.47000000000E+01 0. -1.
         -5    1    1    2    0  503 -0.29645959537E+01 -0.68475076754E+00 -0.10041741976E+03  0.10057338567E+03  0.47000000000E+01 0.  1.
<mgrwt>
<rscale>  2 0.55989028E+01</rscale>
<asrwt>0</asrwt>
<pdfrwt beam="1">  1       21 0.89440319E-04 0.55989028E+01</pdfrwt>
<pdfrwt beam="2">  1       21 0.17856003E-01 0.55989028E+01</pdfrwt>
<totfact> 0.11468488E+09</totfact>
</mgrwt>
</event>
<event>
 4    1  0.4043737E+006  0.8147031E+01  0.7546771E-02  0.2198857E+00
         21   -1    0    0  503  502  0.00000000000E+00  0.00000000000E+00  0.81043463146E+02  0.81043463146E+02  0.00000000000E+00 0. -1.
         21   -1    0    0  501  503 -0.00000000000E+00 -0.00000000000E+00 -0.26159932853E+01  0.26159932853E+01  0.00000000000E+00 0.  1.
          5    1    1    2  501    0  0.56484256640E+01  0.35184376057E+01  0.45447860826E+01  0.93289440026E+01  0.47000000000E+01 0.  1.
         -5    1    1    2    0  502 -0.56484256640E+01 -0.35184376057E+01  0.73882683778E+02  0.74330512429E+02  0.47000000000E+01 0. -1.
<mgrwt>
<rscale>  2 0.81470311E+01</rscale>
<asrwt>0</asrwt>
<pdfrwt beam="1">  1       21 0.12468223E-01 0.81470311E+01</pdfrwt>
<pdfrwt beam="2">  1       21 0.40246057E-03 0.81470311E+01</pdfrwt>
<totfact> 0.33632448E+08</totfact>
</mgrwt>
</event>
<event>
 4    1  0.4043737E+006  0.5129441E+01  0.7546771E-02  0.2544691E+00
         21   -1    0    0  501  502  0.00000000000E+00  0.00000000000E+00  0.34275714843E+00  0.34275714843E+00  0.00000000000E+00 0. -1.
         21   -1    0    0  502  503 -0.00000000000E+00 -0.00000000000E+00 -0.97963890623E+02  0.97963890623E+02  0.00000000000E+00 0. -1.
          5    1    1    2  501    0 -0.12959711964E+01  0.15942454850E+01 -0.25944358617E+02  0.26446566962E+02  0.47000000000E+01 0. -1.
         -5    1    1    2    0  503  0.12959711964E+01 -0.15942454850E+01 -0.71676774858E+02  0.71860080810E+02  0.47000000000E+01 0. -1.
<mgrwt>
<rscale>  2 0.51294405E+01</rscale>
<asrwt>0</asrwt>
<pdfrwt beam="1">  1       21 0.52731863E-04 0.51294405E+01</pdfrwt>
<pdfrwt beam="2">  1       21 0.15071370E-01 0.51294405E+01</pdfrwt>
<totfact> 0.27982803E+09</totfact>
</mgrwt>
</event>
<event>
 4    1  0.4043737E+006  0.1161420E+02  0.7546771E-02  0.1993301E+00
         21   -1    0    0  501  502  0.00000000000E+00  0.00000000000E+00  0.29689982537E+03  0.29689982537E+03  0.00000000000E+00 0.  1.
         21   -1    0    0  502  503 -0.00000000000E+00 -0.00000000000E+00 -0.82235754730E+01  0.82235754730E+01  0.00000000000E+00 0. -1.
          5    1    1    2  501    0  0.79378711550E+01 -0.70561995538E+01  0.29262566863E+03  0.29285605969E+03  0.47000000000E+01 0.  1.
         -5    1    1    2    0  503 -0.79378711550E+01  0.70561995538E+01 -0.39494187405E+01  0.12267341155E+02  0.47000000000E+01 0. -1.
<mgrwt>
<rscale>  2 0.11614205E+02</rscale>
<asrwt>0</asrwt>
<pdfrwt beam="1">  1       21 0.45676888E-01 0.11614205E+02</pdfrwt>
<pdfrwt beam="2">  1       21 0.12651657E-02 0.11614205E+02</pdfrwt>
<totfact> 0.82249500E+06</totfact>
</mgrwt>
</event>
<event>
 4    1  0.4043737E+006  0.5825569E+01  0.7546771E-02  0.2438694E+00
         21   -1    0    0  503  502  0.00000000000E+00  0.00000000000E+00  0.26403638468E+01  0.26403638468E+01  0.00000000000E+00 0. -1.
         21   -1    0    0  501  503 -0.00000000000E+00 -0.00000000000E+00 -0.39716518693E+02  0.39716518693E+02  0.00000000000E+00 0. -1.
          5    1    1    2  501    0 -0.15729956736E+01 -0.30615248588E+01 -0.35955659058E+02  0.36424533877E+02  0.47000000000E+01 0. -1.
         -5    1    1    2    0  502  0.15729956736E+01  0.30615248588E+01 -0.11204957884E+01  0.59323486632E+01  0.47000000000E+01 0. -1.
<mgrwt>
<rscale>  2 0.58255686E+01</rscale>
<asrwt>0</asrwt>
<pdfrwt beam="1">  1       21 0.40620984E-03 0.58255686E+01</pdfrwt>
<pdfrwt beam="2">  1       21 0.61102334E-02 0.58255686E+01</pdfrwt>
<totfact> 0.78943874E+08</totfact>
</mgrwt>
</event>
<event>
 4    1  0.4043737E+006  0.4944007E+01  0.7546771E-02  0.2577184E+00
         21   -1    0    0  503  502  0.00000000000E+00  0.00000000000E+00  0.69303052688E+01  0.69303052688E+01  0.00000000000E+00 0. -1.
         21   -1    0    0  501  503 -0.00000000000E+00 -0.00000000000E+00 -0.35631246001E+01  0.35631246001E+01  0.00000000000E+00 0. -1.
          5    1    1    2  501    0  0.13177459495E+01 -0.78533239333E+00  0.11553144793E+01  0.50771993167E+01  0.47000000000E+01 0. -1.
         -5    1    1    2    0  502 -0.13177459495E+01  0.78533239333E+00  0.22118661894E+01  0.54162305522E+01  0.47000000000E+01 0. -1.
<mgrwt>
<rscale>  2 0.49440066E+01</rscale>
<asrwt>0</asrwt>
<pdfrwt beam="1">  1       21 0.10662008E-02 0.49440066E+01</pdfrwt>
<pdfrwt beam="2">  1       21 0.54817302E-03 0.49440066E+01</pdfrwt>
<totfact> 0.55107749E+09</totfact>
</mgrwt>
</event>
<event>
 4    1  0.4043737E+006  0.1215697E+02  0.7546771E-02  0.1969681E+00
         21   -1    0    0  503  502  0.00000000000E+00  0.00000000000E+00  0.37796959277E+01  0.37796959277E+01  0.00000000000E+00 0.  1.
         21   -1    0    0  501  503 -0.00000000000E+00 -0.00000000000E+00 -0.13352565505E+03  0.13352565505E+03  0.00000000000E+00 0. -1.
          5    1    1    2  501    0 -0.67647304946E+01 -0.89409309986E+01 -0.12260498373E+03  0.12320622492E+03  0.47000000000E+01 0. -1.
         -5    1    1    2    0  502  0.67647304946E+01  0.89409309986E+01 -0.71409753922E+01  0.14099126049E+02  0.47000000000E+01 0.  1.
<mgrwt>
<rscale>  2 0.12156966E+02</rscale>
<asrwt>0</asrwt>
<pdfrwt beam="1">  1       21 0.58149163E-03 0.12156966E+02</pdfrwt>
<pdfrwt beam="2">  1       21 0.20542410E-01 0.12156966E+02</pdfrwt>
<totfact> 0.10651152E+08</totfact>
</mgrwt>
</event>
<event>
 4    1  0.4043737E+006  0.6043772E+01  0.7546771E-02  0.2409761E+00
         21   -1    0    0  503  502  0.00000000000E+00  0.00000000000E+00  0.83202844135E-01  0.83202844135E-01  0.00000000000E+00 0. -1.
         21   -1    0    0  501  503 -0.00000000000E+00 -0.00000000000E+00 -0.45006908376E+03  0.45006908376E+03  0.00000000000E+00 0.  1.
          5    1    1    2  501    0 -0.37278030411E+01 -0.73529615177E+00 -0.26026897333E+03  0.26033913585E+03  0.47000000000E+01 0. -1.
         -5    1    1    2    0  502  0.37278030411E+01  0.73529615177E+00 -0.18971690758E+03  0.18981315075E+03  0.47000000000E+01 0. -1.
<mgrwt>
<rscale>  2 0.60437717E+01</rscale>
<asrwt>0</asrwt>
<pdfrwt beam="1">  1       21 0.12800409E-04 0.60437717E+01</pdfrwt>
<pdfrwt beam="2">  1       21 0.69241550E-01 0.60437717E+01</pdfrwt>
<totfact> 0.15749228E+09</totfact>
</mgrwt>
</event>
<event>
 4    1  0.4043737E+006  0.5720109E+01  0.7546771E-02  0.2453340E+00
         21   -1    0    0  503  502  0.00000000000E+00  0.00000000000E+00  0.74022434029E+01  0.74022434029E+01  0.00000000000E+00 0.  1.
         21   -1    0    0  501  503 -0.00000000000E+00 -0.00000000000E+00 -0.61030349654E+01  0.61030349654E+01  0.00000000000E+00 0. -1.
          5    1    1    2  501    0  0.32574110504E+01 -0.13754192523E+00 -0.28962187718E+01  0.64115308396E+01  0.47000000000E+01 0. -1.
         -5    1    1    2    0  502 -0.32574110504E+01  0.13754192523E+00  0.41954272093E+01  0.70937475287E+01  0.47000000000E+01 0.  1.
<mgrwt>
<rscale>  2 0.57201088E+01</rscale>
<asrwt>0</asrwt>
<pdfrwt beam="1">  1       21 0.11388067E-02 0.57201088E+01</pdfrwt>
<pdfrwt beam="2">  1       21 0.93892845E-03 0.57201088E+01</pdfrwt>
<totfact> 0.27502192E+09</totfact>
</mgrwt>
</event>
<event>
 4    1  0.4043737E+006  0.5214526E+01  0.7546771E-02  0.2530449E+00
         21   -1    0    0  503  502  0.00000000000E+00  0.00000000000E+00  0.10398104984E+01  0.10398104984E+01  0.00000000000E+00 0. -1.
         21   -1    0    0  501  503 -0.00000000000E+00 -0.00000000000E+00 -0.80913308167E+02  0.80913308167E+02  0.00000000000E+00 0. -1.
          5    1    1    2  501    0 -0.21455633716E+01 -0.70557652850E+00 -0.73647579071E+02  0.73831952320E+02  0.47000000000E+01 0. -1.
         -5    1    1    2    0  502  0.21455633716E+01  0.70557652850E+00 -0.62259185978E+01  0.81211663451E+01  0.47000000000E+01 0. -1.
<mgrwt>
<rscale>  2 0.52145259E+01</rscale>
<asrwt>0</asrwt>
<pdfrwt beam="1">  1       21 0.15997082E-03 0.52145259E+01</pdfrwt>
<pdfrwt beam="2">  1       21 0.12448203E-01 0.52145259E+01</pdfrwt>
<totfact> 0.87110404E+08</totfact>
</mgrwt>
</event>
<event>
 4    1  0.4043737E+006  0.4718813E+01  0.7546771E-02  0.2619592E+00
         21   -1    0    0  503  502  0.00000000000E+00  0.00000000000E+00  0.22280418366E+00  0.22280418366E+00  0.00000000000E+00 0. -1.
         21   -1    0    0  501  503 -0.00000000000E+00 -0.00000000000E+00 -0.14844234337E+03  0.14844234337E+03  0.00000000000E+00 0. -1.
          5    1    1    2  501    0  0.41161022701E+00  0.88185524378E-01 -0.11659897658E+03  0.11669442377E+03  0.47000000000E+01 0. -1.
         -5    1    1    2    0  502 -0.41161022701E+00 -0.88185524378E-01 -0.31620562605E+02  0.31970723782E+02  0.47000000000E+01 0. -1.
<mgrwt>
<rscale>  2 0.47188134E+01</rscale>
<asrwt>0</asrwt>
<pdfrwt beam="1">  1       21 0.34277598E-04 0.47188134E+01</pdfrwt>
<pdfrwt beam="2">  1       21 0.22837263E-01 0.47188134E+01</pdfrwt>
<totfact> 0.23680066E+09</totfact>
</mgrwt>
</event>
<event>
 4    1  0.4043737E+006  0.5722945E+01  0.7546771E-02  0.2452941E+00
         21   -1    0    0  501  502  0.00000000000E+00  0.00000000000E+00  0.57848207197E+01  0.57848207197E+01  0.00000000000E+00 0. -1.
         21   -1    0    0  502  503 -0.00000000000E+00 -0.00000000000E+00 -0.63167508495E+01  0.63167508495E+01  0.00000000000E+00 0. -1.
          5    1    1    2  501    0 -0.18462351367E+01  0.26932340420E+01  0.16824990957E+01  0.59651401486E+01  0.47000000000E+01 0. -1.
         -5    1    1    2    0  503  0.18462351367E+01 -0.26932340420E+01 -0.22144292255E+01  0.61364314206E+01  0.47000000000E+01 0. -1.
<mgrwt>
<rscale>  2 0.57229445E+01</rscale>
<asrwt>0</asrwt>
<pdfrwt beam="1">  1       21 0.88997243E-03 0.57229445E+01</pdfrwt>
<pdfrwt beam="2">  1       21 0.97180781E-03 0.57229445E+01</pdfrwt>
<totfact> 0.37087417E+09</totfact>
</mgrwt>
</event>
<event>
 4    1  0.4043737E+006  0.5996036E+01  0.7546771E-02  0.2415940E+00
         21   -1    0    0  503  502  0.00000000000E+00  0.00000000000E+00  0.86028718765E+03  0.86028718765E+03  0.00000000000E+00 0.  1.
         21   -1    0    0  501  503 -0.00000000000E+00 -0.00000000000E+00 -0.41842853899E-01  0.41842853899E-01  0.00000000000E+00 0.  1.
          5    1    1    2  501    0 -0.36750314177E+01 -0.59715180701E+00  0.44523444627E+03  0.44527481918E+03  0.47000000000E+01 0.  1.
         -5    1    1    2    0  502  0.36750314177E+01  0.59715180701E+00  0.41501089852E+03  0.41505421132E+03  0.47000000000E+01 0.  1.
<mgrwt>
<rscale>  2 0.59960359E+01</rscale>
<asrwt>0</asrwt>
<pdfrwt beam="1">  1       21 0.13233771E+00 0.59960359E+01</pdfrwt>
<pdfrwt beam="2">  1       21 0.64380511E-05 0.59960359E+01</pdfrwt>
<totfact> 0.10677840E+09</totfact>
</mgrwt>
</event>
<event>
 4    1  0.4043737E+006  0.5763816E+01  0.7546771E-02  0.2447216E+00
         21   -1    0    0  503  502  0.00000000000E+00  0.00000000000E+00  0.28278624235E+04  0.28278624235E+04  0.00000000000E+00 0.  1.
         21   -1    0    0  501  503 -0.00000000000E+00 -0.00000000000E+00 -0.22862694449E-01  0.22862694449E-01  0.00000000000E+00 0.  1.
          5    1    1    2  501    0  0.32929095611E+01  0.53695534283E+00  0.42805373343E+03  0.42809253705E+03  0.47000000000E+01 0.  1.
         -5    1    1    2    0  502 -0.32929095611E+01 -0.53695534283E+00  0.23997858274E+04  0.23997927492E+04  0.47000000000E+01 0.  1.
<mgrwt>
<rscale>  2 0.57638160E+01</rscale>
<asrwt>0</asrwt>
<pdfrwt beam="1">  1       21 0.43477579E+00 0.57638160E+01</pdfrwt>
<pdfrwt beam="2">  1       21 0.35196026E-05 0.57638160E+01</pdfrwt>
<totfact> 0.10082194E+08</totfact>
</mgrwt>
</event>
<event>
 4    1  0.4043737E+006  0.5931569E+01  0.7546771E-02  0.2424416E+00
         21   -1    0    0  503  502  0.00000000000E+00  0.00000000000E+00  0.13216662709E+01  0.13216662709E+01  0.00000000000E+00 0.  1.
         21   -1    0    0  501  503 -0.00000000000E+00 -0.00000000000E+00 -0.43480033446E+02  0.43480033446E+02  0.00000000000E+00 0. -1.
          5    1    1    2  501    0  0.56792923895E+00 -0.35736492209E+01 -0.35028130030E+02  0.35526798418E+02  0.47000000000E+01 0.  1.
         -5    1    1    2    0  502 -0.56792923895E+00  0.35736492209E+01 -0.71302371451E+01  0.92749012998E+01  0.47000000000E+01 0.  1.
<mgrwt>
<rscale>  2 0.59315691E+01</rscale>
<asrwt>0</asrwt>
<pdfrwt beam="1">  1       21 0.20333327E-03 0.59315691E+01</pdfrwt>
<pdfrwt beam="2">  1       21 0.66892360E-02 0.59315691E+01</pdfrwt>
<totfact> 0.18063551E+09</totfact>
</mgrwt>
</event>
<event>
 4    1  0.4043737E+006  0.1017785E+02  0.7546771E-02  0.2065005E+00
         21   -1    0    0  501  502  0.00000000000E+00  0.00000000000E+00  0.87353901393E+01  0.87353901393E+01  0.00000000000E+00 0.  1.
         21   -1    0    0  502  503 -0.00000000000E+00 -0.00000000000E+00 -0.18297656851E+02  0.18297656851E+02  0.00000000000E+00 0. -1.
          5    1    1    2  501    0 -0.64217812842E+01 -0.63450295641E+01  0.32371531326E+01  0.10680254465E+02  0.47000000000E+01 0.  1.
         -5    1    1    2    0  503  0.64217812842E+01  0.63450295641E+01 -0.12799419845E+02  0.16352792526E+02  0.47000000000E+01 0. -1.
<mgrwt>
<rscale>  2 0.10177852E+02</rscale>
<asrwt>0</asrwt>
<pdfrwt beam="1">  1       21 0.13439062E-02 0.10177852E+02</pdfrwt>
<pdfrwt beam="2">  1       21 0.28150241E-02 0.10177852E+02</pdfrwt>
<totfact> 0.66873241E+08</totfact>
</mgrwt>
</event>
<event>
 4    1  0.4043737E+006  0.5385359E+01  0.7546771E-02  0.2503019E+00
         21   -1    0    0  501  502  0.00000000000E+00  0.00000000000E+00  0.23100080120E+02  0.23100080120E+02  0.00000000000E+00 0. -1.
         21   -1    0    0  502  503 -0.00000000000E+00 -0.00000000000E+00 -0.28921747794E+01  0.28921747794E+01  0.00000000000E+00 0. -1.
          5    1    1    2  501    0  0.40204664107E+00 -0.25981619795E+01  0.19880449273E+02  0.20596950028E+02  0.47000000000E+01 0. -1.
         -5    1    1    2    0  503 -0.40204664107E+00  0.25981619795E+01  0.32745606739E+00  0.53953048708E+01  0.47000000000E+01 0. -1.
<mgrwt>
<rscale>  2 0.53853586E+01</rscale>
<asrwt>0</asrwt>
<pdfrwt beam="1">  1       21 0.35538584E-02 0.53853586E+01</pdfrwt>
<pdfrwt beam="2">  1       21 0.44494998E-03 0.53853586E+01</pdfrwt>
<totfact> 0.14456295E+09</totfact>
</mgrwt>
</event>
<event>
 4    1  0.4043737E+006  0.1219735E+02  0.7546771E-02  0.1967988E+00
         21   -1    0    0  501  502  0.00000000000E+00  0.00000000000E+00  0.43375770596E+01  0.43375770596E+01  0.00000000000E+00 0. -1.
         21   -1    0    0  502  503 -0.00000000000E+00 -0.00000000000E+00 -0.50704034791E+02  0.50704034791E+02  0.00000000000E+00 0.  1.
          5    1    1    2  501    0  0.40098074568E+01 -0.10516977207E+02 -0.75292049022E+01  0.14334025669E+02  0.47000000000E+01 0. -1.
         -5    1    1    2    0  503 -0.40098074568E+01  0.10516977207E+02 -0.38837252829E+02  0.40707586181E+02  0.47000000000E+01 0.  1.
<mgrwt>
<rscale>  2 0.12197351E+02</rscale>
<asrwt>0</asrwt>
<pdfrwt beam="1">  1       21 0.66731954E-03 0.12197351E+02</pdfrwt>
<pdfrwt beam="2">  1       21 0.78006208E-02 0.12197351E+02</pdfrwt>
<totfact> 0.42498818E+08</totfact>
</mgrwt>
</event>
<event>
 4    1  0.4043737E+006  0.7721518E+01  0.7546771E-02  0.2233867E+00
         21   -1    0    0  501  502  0.00000000000E+00  0.00000000000E+00  0.19110267092E+02  0.19110267092E+02  0.00000000000E+00 0.  1.
         21   -1    0    0  502  503 -0.00000000000E+00 -0.00000000000E+00 -0.31506034076E+01  0.31506034076E+01  0.00000000000E+00 0.  1.
          5    1    1    2  501    0 -0.18005580900E+01 -0.58557523027E+01  0.68807972424E+01  0.10342495596E+02  0.47000000000E+01 0.  1.
         -5    1    1    2    0  503  0.18005580900E+01  0.58557523027E+01  0.90788664425E+01  0.11918374904E+02  0.47000000000E+01 0.  1.
<mgrwt>
<rscale>  2 0.77215183E+01</rscale>
<asrwt>0</asrwt>
<pdfrwt beam="1">  1       21 0.29400410E-02 0.77215183E+01</pdfrwt>
<pdfrwt beam="2">  1       21 0.48470823E-03 0.77215183E+01</pdfrwt>
<totfact> 0.22691268E+09</totfact>
</mgrwt>
</event>
<event>
 4    1  0.4043737E+006  0.5851380E+01  0.7546771E-02  0.2435177E+00
         21   -1    0    0  501  502  0.00000000000E+00  0.00000000000E+00  0.29788625181E+02  0.29788625181E+02  0.00000000000E+00 0. -1.
         21   -1    0    0  502  503 -0.00000000000E+00 -0.00000000000E+00 -0.30030469187E+01  0.30030469187E+01  0.00000000000E+00 0. -1.
          5    1    1    2  501    0  0.24732825340E+01  0.24559145532E+01  0.26274323595E+02  0.26917999984E+02  0.47000000000E+01 0. -1.
         -5    1    1    2    0  503 -0.24732825340E+01 -0.24559145532E+01  0.51125466757E+00  0.58736721155E+01  0.47000000000E+01 0. -1.
<mgrwt>
<rscale>  2 0.58513796E+01</rscale>
<asrwt>0</asrwt>
<pdfrwt beam="1">  1       21 0.45828652E-02 0.58513796E+01</pdfrwt>
<pdfrwt beam="2">  1       21 0.46200724E-03 0.58513796E+01</pdfrwt>
<totfact> 0.10159231E+09</totfact>
</mgrwt>
</event>
<event>
 4    1  0.4043737E+006  0.7951089E+01  0.7546771E-02  0.2214603E+00
         21   -1    0    0  501  502  0.00000000000E+00  0.00000000000E+00  0.58394746758E+01  0.58394746758E+01  0.00000000000E+00 0.  1.
         21   -1    0    0  502  503 -0.00000000000E+00 -0.00000000000E+00 -0.23701672338E+02  0.23701672338E+02  0.00000000000E+00 0. -1.
          5    1    1    2  501    0 -0.41140323915E+01 -0.49198125551E+01  0.19553945265E+01  0.81880025556E+01  0.47000000000E+01 0.  1.
         -5    1    1    2    0  503  0.41140323915E+01  0.49198125551E+01 -0.19817592188E+02  0.21353144458E+02  0.47000000000E+01 0. -1.
<mgrwt>
<rscale>  2 0.79510891E+01</rscale>
<asrwt>0</asrwt>
<pdfrwt beam="1">  1       21 0.89838074E-03 0.79510891E+01</pdfrwt>
<pdfrwt beam="2">  1       21 0.36464111E-02 0.79510891E+01</pdfrwt>
<totfact> 0.70106402E+08</totfact>
</mgrwt>
</event>
<event>
 4    1  0.4043737E+006  0.4910524E+01  0.7546771E-02  0.2583276E+00
         21   -1    0    0  501  502  0.00000000000E+00  0.00000000000E+00  0.14161500827E+02  0.14161500827E+02  0.00000000000E+00 0. -1.
         21   -1    0    0  502  503 -0.00000000000E+00 -0.00000000000E+00 -0.17110366564E+01  0.17110366564E+01  0.00000000000E+00 0. -1.
          5    1    1    2  501    0 -0.10475793596E+01  0.96219467546E+00  0.56723320068E+01  0.75025723257E+01  0.47000000000E+01 0. -1.
         -5    1    1    2    0  503  0.10475793596E+01 -0.96219467546E+00  0.67781321635E+01  0.83699651573E+01  0.47000000000E+01 0. -1.
<mgrwt>
<rscale>  2 0.49105235E+01</rscale>
<asrwt>0</asrwt>
<pdfrwt beam="1">  1       21 0.21786924E-02 0.49105235E+01</pdfrwt>
<pdfrwt beam="2">  1       21 0.26323642E-03 0.49105235E+01</pdfrwt>
<totfact> 0.54425450E+09</totfact>
</mgrwt>
</event>
<event>
 4    1  0.4043737E+006  0.7134856E+01  0.7546771E-02  0.2287609E+00
         21   -1    0    0  503  502  0.00000000000E+00  0.00000000000E+00  0.89079235129E+01  0.89079235129E+01  0.00000000000E+00 0. -1.
         21   -1    0    0  501  503 -0.00000000000E+00 -0.00000000000E+00 -0.10921055215E+02  0.10921055215E+02  0.00000000000E+00 0. -1.
          5    1    1    2  501    0  0.43024022255E+01  0.32102194731E+01 -0.78520575840E+01  0.10609476060E+02  0.47000000000E+01 0. -1.
         -5    1    1    2    0  502 -0.43024022255E+01 -0.32102194731E+01  0.58389258821E+01  0.92195026673E+01  0.47000000000E+01 0. -1.
<mgrwt>
<rscale>  2 0.71348563E+01</rscale>
<asrwt>0</asrwt>
<pdfrwt beam="1">  1       21 0.13704498E-02 0.71348563E+01</pdfrwt>
<pdfrwt beam="2">  1       21 0.16801623E-02 0.71348563E+01</pdfrwt>
<totfact> 0.11054286E+09</totfact>
</mgrwt>
</event>
<event>
 4    1  0.4043737E+006  0.1447864E+02  0.7546771E-02  0.1884408E+00
         21   -1    0    0  503  502  0.00000000000E+00  0.00000000000E+00  0.17006884399E+02  0.17006884399E+02  0.00000000000E+00 0.  1.
         21   -1    0    0  501  503 -0.00000000000E+00 -0.00000000000E+00 -0.13218465169E+02  0.13218465169E+02  0.00000000000E+00 0. -1.
          5    1    1    2  501    0  0.13461751886E+02 -0.25144211009E+01 -0.20321138303E+01  0.14620552792E+02  0.47000000000E+01 0. -1.
         -5    1    1    2    0  502 -0.13461751886E+02  0.25144211009E+01  0.58205330603E+01  0.15604796776E+02  0.47000000000E+01 0.  1.
<mgrwt>
<rscale>  2 0.14478642E+02</rscale>
<asrwt>0</asrwt>
<pdfrwt beam="1">  1       21 0.26164437E-02 0.14478642E+02</pdfrwt>
<pdfrwt beam="2">  1       21 0.20336100E-02 0.14478642E+02</pdfrwt>
<totfact> 0.48124375E+08</totfact>
</mgrwt>
</event>
<event>
 4    1  0.4043737E+006  0.9220269E+01  0.7546771E-02  0.2122283E+00
         21   -1    0    0  501  502  0.00000000000E+00  0.00000000000E+00  0.14708788075E+03  0.14708788075E+03  0.00000000000E+00 0.  1.
         21   -1    0    0  502  503 -0.00000000000E+00 -0.00000000000E+00 -0.63116535181E+00  0.63116535181E+00  0.00000000000E+00 0. -1.
          5    1    1    2  501    0 -0.77429886075E-01 -0.79320466677E+01  0.94669338242E+02  0.95117280044E+02  0.47000000000E+01 0.  1.
         -5    1    1    2    0  503  0.77429886075E-01  0.79320466677E+01  0.51787377160E+02  0.52601766062E+02  0.47000000000E+01 0. -1.
<mgrwt>
<rscale>  2 0.92202690E+01</rscale>
<asrwt>0</asrwt>
<pdfrwt beam="1">  1       21 0.22628878E-01 0.92202690E+01</pdfrwt>
<pdfrwt beam="2">  1       21 0.97102478E-04 0.92202690E+01</pdfrwt>
<totfact> 0.98243029E+08</totfact>
</mgrwt>
</event>
<event>
 4    1  0.4043737E+006  0.4783197E+01  0.7546771E-02  0.2607114E+00
         21   -1    0    0  501  502  0.00000000000E+00  0.00000000000E+00  0.74710300057E+01  0.74710300057E+01  0.00000000000E+00 0. -1.
         21   -1    0    0  502  503 -0.00000000000E+00 -0.00000000000E+00 -0.67625558834E+01  0.67625558834E+01  0.00000000000E+00 0. -1.
          5    1    1    2  501    0  0.60072790907E+00 -0.65429006097E+00  0.56185459560E+01  0.73788229525E+01  0.47000000000E+01 0. -1.
         -5    1    1    2    0  503 -0.60072790907E+00  0.65429006097E+00 -0.49100718337E+01  0.68547629366E+01  0.47000000000E+01 0. -1.
<mgrwt>
<rscale>  2 0.47831966E+01</rscale>
<asrwt>0</asrwt>
<pdfrwt beam="1">  1       21 0.11493892E-02 0.47831966E+01</pdfrwt>
<pdfrwt beam="2">  1       21 0.10403932E-02 0.47831966E+01</pdfrwt>
<totfact> 0.19751713E+09</totfact>
</mgrwt>
</event>
<event>
 4    1  0.4043737E+006  0.7641432E+01  0.7546771E-02  0.2240807E+00
         21   -1    0    0  503  502  0.00000000000E+00  0.00000000000E+00  0.66703437451E+02  0.66703437451E+02  0.00000000000E+00 0. -1.
         21   -1    0    0  501  503 -0.00000000000E+00 -0.00000000000E+00 -0.96480729895E+00  0.96480729895E+00  0.00000000000E+00 0. -1.
          5    1    1    2  501    0  0.75122812557E+00  0.59780550639E+01  0.22569090064E+02  0.23827616590E+02  0.47000000000E+01 0. -1.
         -5    1    1    2    0  502 -0.75122812557E+00 -0.59780550639E+01  0.43169540088E+02  0.43840628160E+02  0.47000000000E+01 0. -1.
<mgrwt>
<rscale>  2 0.76414322E+01</rscale>
<asrwt>0</asrwt>
<pdfrwt beam="1">  1       21 0.10262064E-01 0.76414322E+01</pdfrwt>
<pdfrwt beam="2">  1       21 0.14843194E-03 0.76414322E+01</pdfrwt>
<totfact> 0.17520493E+09</totfact>
</mgrwt>
</event>
<event>
 4    1  0.4043737E+006  0.7322349E+01  0.7546771E-02  0.2269673E+00
         21   -1    0    0  503  502  0.00000000000E+00  0.00000000000E+00  0.50771548557E+00  0.50771548557E+00  0.00000000000E+00 0. -1.
         21   -1    0    0  501  503 -0.00000000000E+00 -0.00000000000E+00 -0.26145651906E+03  0.26145651906E+03  0.00000000000E+00 0.  1.
          5    1    1    2  501    0 -0.55311709823E+01  0.96589149245E+00 -0.23160187296E+03  0.23171759613E+03  0.47000000000E+01 0.  1.
         -5    1    1    2    0  502  0.55311709823E+01 -0.96589149245E+00 -0.29346930616E+02  0.30246638415E+02  0.47000000000E+01 0. -1.
<mgrwt>
<rscale>  2 0.73223493E+01</rscale>
<asrwt>0</asrwt>
<pdfrwt beam="1">  1       21 0.78109972E-04 0.73223493E+01</pdfrwt>
<pdfrwt beam="2">  1       21 0.40224133E-01 0.73223493E+01</pdfrwt>
<totfact> 0.42769269E+08</totfact>
</mgrwt>
</event>
<event>
 4    1  0.4043737E+006  0.5950258E+01  0.7546771E-02  0.2421943E+00
         21   -1    0    0  501  502  0.00000000000E+00  0.00000000000E+00  0.39393016725E+00  0.39393016725E+00  0.00000000000E+00 0. -1.
         21   -1    0    0  502  503 -0.00000000000E+00 -0.00000000000E+00 -0.10614636846E+03  0.10614636846E+03  0.00000000000E+00 0.  1.
          5    1    1    2  501    0 -0.88722051952E+00 -0.35395499103E+01 -0.32021415074E+02  0.32569565505E+02  0.47000000000E+01 0. -1.
         -5    1    1    2    0  503  0.88722051952E+00  0.35395499103E+01 -0.73731023219E+02  0.73970733123E+02  0.47000000000E+01 0.  1.
<mgrwt>
<rscale>  2 0.59502583E+01</rscale>
<asrwt>0</asrwt>
<pdfrwt beam="1">  1       21 0.60604541E-04 0.59502583E+01</pdfrwt>
<pdfrwt beam="2">  1       21 0.16330237E-01 0.59502583E+01</pdfrwt>
<totfact> 0.23384909E+09</totfact>
</mgrwt>
</event>
<event>
 4    1  0.4043737E+006  0.4918716E+01  0.7546771E-02  0.2581779E+00
         21   -1    0    0  501  502  0.00000000000E+00  0.00000000000E+00  0.99855264646E+01  0.99855264646E+01  0.00000000000E+00 0. -1.
         21   -1    0    0  502  503 -0.00000000000E+00 -0.00000000000E+00 -0.24311482311E+01  0.24311482311E+01  0.00000000000E+00 0.  1.
          5    1    1    2  501    0 -0.71207817976E+00  0.12636101459E+01  0.41391716114E+01  0.64285696359E+01  0.47000000000E+01 0.  1.
         -5    1    1    2    0  503  0.71207817976E+00 -0.12636101459E+01  0.34152066221E+01  0.59881050598E+01  0.47000000000E+01 0. -1.
<mgrwt>
<rscale>  2 0.49187159E+01</rscale>
<asrwt>0</asrwt>
<pdfrwt beam="1">  1       21 0.15362348E-02 0.49187159E+01</pdfrwt>
<pdfrwt beam="2">  1       21 0.37402281E-03 0.49187159E+01</pdfrwt>
<totfact> 0.55446226E+09</totfact>
</mgrwt>
</event>
<event>
 4    1  0.4043737E+006  0.9162054E+01  0.7546771E-02  0.2126067E+00
         21   -1    0    0  501  502  0.00000000000E+00  0.00000000000E+00  0.35556066869E+01  0.35556066869E+01  0.00000000000E+00 0.  1.
         21   -1    0    0  502  503 -0.00000000000E+00 -0.00000000000E+00 -0.48130423237E+02  0.48130423237E+02  0.00000000000E+00 0. -1.
          5    1    1    2  501    0  0.77643705027E+01 -0.12521129152E+01 -0.38411251316E+01  0.99346604538E+01  0.47000000000E+01 0.  1.
         -5    1    1    2    0  503 -0.77643705027E+01  0.12521129152E+01 -0.40733691418E+02  0.41751369470E+02  0.47000000000E+01 0. -1.
<mgrwt>
<rscale>  2 0.91620541E+01</rscale>
<asrwt>0</asrwt>
<pdfrwt beam="1">  1       21 0.54701645E-03 0.91620541E+01</pdfrwt>
<pdfrwt beam="2">  1       21 0.74046800E-02 0.91620541E+01</pdfrwt>
<totfact> 0.52859108E+08</totfact>
</mgrwt>
</event>
<event>
 4    1  0.4043737E+006  0.6391550E+01  0.7546771E-02  0.2367088E+00
         21   -1    0    0  503  502  0.00000000000E+00  0.00000000000E+00  0.18705289580E+02  0.18705289580E+02  0.00000000000E+00 0.  1.
         21   -1    0    0  501  503 -0.00000000000E+00 -0.00000000000E+00 -0.21884112691E+01  0.21884112691E+01  0.00000000000E+00 0.  1.
          5    1    1    2  501    0  0.16017768508E+01  0.40244534868E+01  0.77881651548E+01  0.10075089649E+02  0.47000000000E+01 0.  1.
         -5    1    1    2    0  502 -0.16017768508E+01 -0.40244534868E+01  0.87287131558E+01  0.10818611200E+02  0.47000000000E+01 0.  1.
<mgrwt>
<rscale>  2 0.63915503E+01</rscale>
<asrwt>0</asrwt>
<pdfrwt beam="1">  1       21 0.28777368E-02 0.63915503E+01</pdfrwt>
<pdfrwt beam="2">  1       21 0.33667867E-03 0.63915503E+01</pdfrwt>
<totfact> 0.33536233E+09</totfact>
</mgrwt>
</event>
<event>
 4    1  0.4043737E+006  0.7062103E+01  0.7546771E-02  0.2294778E+00
         21   -1    0    0  503  502  0.00000000000E+00  0.00000000000E+00  0.65430416556E+01  0.65430416556E+01  0.00000000000E+00 0. -1.
         21   -1    0    0  501  503 -0.00000000000E+00 -0.00000000000E+00 -0.46015881002E+02  0.46015881002E+02  0.00000000000E+00 0. -1.
          5    1    1    2  501    0 -0.50972262526E+01 -0.13422293017E+01 -0.43740864530E+02  0.44307296519E+02  0.47000000000E+01 0. -1.
         -5    1    1    2    0  502  0.50972262526E+01  0.13422293017E+01  0.42680251836E+01  0.82516261389E+01  0.47000000000E+01 0. -1.
<mgrwt>
<rscale>  2 0.70621027E+01</rscale>
<asrwt>0</asrwt>
<pdfrwt beam="1">  1       21 0.10066218E-02 0.70621027E+01</pdfrwt>
<pdfrwt beam="2">  1       21 0.70793664E-02 0.70621027E+01</pdfrwt>
<totfact> 0.20318601E+08</totfact>
</mgrwt>
</event>
<event>
 4    1  0.4043737E+006  0.9961190E+01  0.7546771E-02  0.2077203E+00
         21   -1    0    0  503  502  0.00000000000E+00  0.00000000000E+00  0.17783493191E+01  0.17783493191E+01  0.00000000000E+00 0.  1.
         21   -1    0    0  501  503 -0.00000000000E+00 -0.00000000000E+00 -0.61366115945E+02  0.61366115945E+02  0.00000000000E+00 0. -1.
          5    1    1    2  501    0  0.87358536064E+01  0.90563071984E+00 -0.20282108743E+02  0.22596221815E+02  0.47000000000E+01 0. -1.
         -5    1    1    2    0  502 -0.87358536064E+01 -0.90563071984E+00 -0.39305657883E+02  0.40548243450E+02  0.47000000000E+01 0.  1.
<mgrwt>
<rscale>  2 0.99611900E+01</rscale>
<asrwt>0</asrwt>
<pdfrwt beam="1">  1       21 0.27359217E-03 0.99611900E+01</pdfrwt>
<pdfrwt beam="2">  1       21 0.94409420E-02 0.99611900E+01</pdfrwt>
<totfact> 0.10104298E+09</totfact>
</mgrwt>
</event>
<event>
 4    1  0.4043737E+006  0.7763004E+01  0.7546771E-02  0.2230318E+00
         21   -1    0    0  503  502  0.00000000000E+00  0.00000000000E+00  0.71665785147E+01  0.71665785147E+01  0.00000000000E+00 0. -1.
         21   -1    0    0  501  503 -0.00000000000E+00 -0.00000000000E+00 -0.18449228571E+02  0.18449228571E+02  0.00000000000E+00 0.  1.
          5    1    1    2  501    0  0.52043035729E+01 -0.33300843277E+01 -0.15089747376E+02  0.16969523069E+02  0.47000000000E+01 0.  1.
         -5    1    1    2    0  502 -0.52043035729E+01  0.33300843277E+01  0.38070973194E+01  0.86462840173E+01  0.47000000000E+01 0. -1.
<mgrwt>
<rscale>  2 0.77630044E+01</rscale>
<asrwt>0</asrwt>
<pdfrwt beam="1">  1       21 0.11025506E-02 0.77630044E+01</pdfrwt>
<pdfrwt beam="2">  1       21 0.28383428E-02 0.77630044E+01</pdfrwt>
<totfact> 0.74597627E+08</totfact>
</mgrwt>
</event>
<event>
 4    1  0.4043737E+006  0.4776924E+01  0.7546771E-02  0.2608317E+00
         21   -1    0    0  501  502  0.00000000000E+00  0.00000000000E+00  0.18691081368E+03  0.18691081368E+03  0.00000000000E+00 0.  1.
         21   -1    0    0  502  503 -0.00000000000E+00 -0.00000000000E+00 -0.29031106925E+00  0.29031106925E+00  0.00000000000E+00 0.  1.
          5    1    1    2  501    0 -0.50974012824E+00  0.68495851013E+00  0.16456164004E+03  0.16463095814E+03  0.47000000000E+01 0.  1.
         -5    1    1    2    0  503  0.50974012824E+00 -0.68495851013E+00  0.22058862563E+02  0.22570166608E+02  0.47000000000E+01 0.  1.
<mgrwt>
<rscale>  2 0.47769240E+01</rscale>
<asrwt>0</asrwt>
<pdfrwt beam="1">  1       21 0.28755414E-01 0.47769240E+01</pdfrwt>
<pdfrwt beam="2">  1       21 0.44663391E-04 0.47769240E+01</pdfrwt>
<totfact> 0.11618815E+09</totfact>
</mgrwt>
</event>
<event>
 4    1  0.4043737E+006  0.8126854E+01  0.7546771E-02  0.2200450E+00
         21   -1    0    0  503  502  0.00000000000E+00  0.00000000000E+00  0.82210532137E+02  0.82210532137E+02  0.00000000000E+00 0. -1.
         21   -1    0    0  501  503 -0.00000000000E+00 -0.00000000000E+00 -0.24000886805E+02  0.24000886805E+02  0.00000000000E+00 0. -1.
          5    1    1    2  501    0  0.40871794988E+01 -0.52202223634E+01 -0.23104527499E+02  0.24492140550E+02  0.47000000000E+01 0. -1.
         -5    1    1    2    0  502 -0.40871794988E+01  0.52202223634E+01  0.81314172831E+02  0.81719278392E+02  0.47000000000E+01 0. -1.
<mgrwt>
<rscale>  2 0.81268541E+01</rscale>
<asrwt>0</asrwt>
<pdfrwt beam="1">  1       21 0.12647774E-01 0.81268541E+01</pdfrwt>
<pdfrwt beam="2">  1       21 0.36924442E-02 0.81268541E+01</pdfrwt>
<totfact> 0.13338514E+07</totfact>
</mgrwt>
</event>
<event>
 4    1  0.4043737E+006  0.1486719E+02  0.7546771E-02  0.1872149E+00
         21   -1    0    0  503  502  0.00000000000E+00  0.00000000000E+00  0.30830383673E+00  0.30830383673E+00  0.00000000000E+00 0. -1.
         21   -1    0    0  501  503 -0.00000000000E+00 -0.00000000000E+00 -0.74074122589E+03  0.74074122589E+03  0.00000000000E+00 0.  1.
          5    1    1    2  501    0 -0.12725395396E+02  0.60833898177E+01 -0.30378958949E+03  0.30415316537E+03  0.47000000000E+01 0.  1.
         -5    1    1    2    0  502  0.12725395396E+02 -0.60833898177E+01 -0.43664333257E+03  0.43689636436E+03  0.47000000000E+01 0. -1.
<mgrwt>
<rscale>  2 0.14867189E+02</rscale>
<asrwt>0</asrwt>
<pdfrwt beam="1">  1       21 0.47432186E-04 0.14867189E+02</pdfrwt>
<pdfrwt beam="2">  1       21 0.11395820E+00 0.14867189E+02</pdfrwt>
<totfact> 0.15095994E+08</totfact>
</mgrwt>
</event>
<event>
 4    1  0.4043737E+006  0.4765524E+01  0.7546771E-02  0.2610510E+00
         21   -1    0    0  501  502  0.00000000000E+00  0.00000000000E+00  0.11796632847E+02  0.11796632847E+02  0.00000000000E+00 0.  1.
         21   -1    0    0  502  503 -0.00000000000E+00 -0.00000000000E+00 -0.44440837904E+01  0.44440837904E+01  0.00000000000E+00 0.  1.
          5    1    1    2  501    0 -0.72379062115E+00  0.31040153234E+00  0.97898169572E+01  0.10888100754E+02  0.47000000000E+01 0.  1.
         -5    1    1    2    0  503  0.72379062115E+00 -0.31040153234E+00 -0.24372679007E+01  0.53526158833E+01  0.47000000000E+01 0.  1.
<mgrwt>
<rscale>  2 0.47655243E+01</rscale>
<asrwt>0</asrwt>
<pdfrwt beam="1">  1       21 0.18148666E-02 0.47655243E+01</pdfrwt>
<pdfrwt beam="2">  1       21 0.68370520E-03 0.47655243E+01</pdfrwt>
<totfact> 0.18550457E+09</totfact>
</mgrwt>
</event>
<event>
 4    1  0.4043737E+006  0.5906665E+01  0.7546771E-02  0.2427732E+00
         21   -1    0    0  501  502  0.00000000000E+00  0.00000000000E+00  0.26870635979E+01  0.26870635979E+01  0.00000000000E+00 0. -1.
         21   -1    0    0  502  503 -0.00000000000E+00 -0.00000000000E+00 -0.19165110799E+02  0.19165110799E+02  0.00000000000E+00 0. -1.
          5    1    1    2  501    0 -0.24000298037E+01  0.26530269346E+01 -0.20339909124E+01  0.62470644311E+01  0.47000000000E+01 0. -1.
         -5    1    1    2    0  503  0.24000298037E+01 -0.26530269346E+01 -0.14444056289E+02  0.15605109966E+02  0.47000000000E+01 0. -1.
<mgrwt>
<rscale>  2 0.59066653E+01</rscale>
<asrwt>0</asrwt>
<pdfrwt beam="1">  1       21 0.41339441E-03 0.59066653E+01</pdfrwt>
<pdfrwt beam="2">  1       21 0.29484785E-02 0.59066653E+01</pdfrwt>
<totfact> 0.22764529E+09</totfact>
</mgrwt>
</event>
<event>
 4    1  0.4043737E+006  0.6484287E+01  0.7546771E-02  0.2356355E+00
         21   -1    0    0  503  502  0.00000000000E+00  0.00000000000E+00  0.59697190144E+00  0.59697190144E+00  0.00000000000E+00 0. -1.
         21   -1    0    0  501  503 -0.00000000000E+00 -0.00000000000E+00 -0.55946739157E+03  0.55946739157E+03  0.00000000000E+00 0.  1.
          5    1    1    2  501    0 -0.46795024296E+00  0.44426343826E+01 -0.54124788031E+03  0.54128672062E+03  0.47000000000E+01 0.  1.
         -5    1    1    2    0  502  0.46795024296E+00 -0.44426343826E+01 -0.17622539364E+02  0.18777642859E+02  0.47000000000E+01 0. -1.
<mgrwt>
<rscale>  2 0.64842870E+01</rscale>
<asrwt>0</asrwt>
<pdfrwt beam="1">  1       21 0.91842325E-04 0.64842870E+01</pdfrwt>
<pdfrwt beam="2">  1       21 0.86071443E-01 0.64842870E+01</pdfrwt>
<totfact> 0.77290493E+07</totfact>
</mgrwt>
</event>
<event>
 4    1  0.4043737E+006  0.5142728E+01  0.7546771E-02  0.2542440E+00
         21   -1    0    0  501  502  0.00000000000E+00  0.00000000000E+00  0.36703335053E+00  0.36703335053E+00  0.00000000000E+00 0. -1.
         21   -1    0    0  502  503 -0.00000000000E+00 -0.00000000000E+00 -0.32258505156E+03  0.32258505156E+03  0.00000000000E+00 0.  1.
          5    1    1    2  501    0 -0.20171414280E+01  0.53739078874E+00 -0.18806228081E+02  0.19496714160E+02  0.47000000000E+01 0. -1.
         -5    1    1    2    0  503  0.20171414280E+01 -0.53739078874E+00 -0.30341179013E+03  0.30345537075E+03  0.47000000000E+01 0.  1.
<mgrwt>
<rscale>  2 0.51427277E+01</rscale>
<asrwt>0</asrwt>
<pdfrwt beam="1">  1       21 0.56466234E-04 0.51427277E+01</pdfrwt>
<pdfrwt beam="2">  1       21 0.49628852E-01 0.51427277E+01</pdfrwt>
<totfact> 0.35726837E+08</totfact>
</mgrwt>
</event>
<event>
 4    1  0.4043737E+006  0.5976199E+01  0.7546771E-02  0.2418532E+00
         21   -1    0    0  503  502  0.00000000000E+00  0.00000000000E+00  0.30563601151E+00  0.30563601151E+00  0.00000000000E+00 0. -1.
         21   -1    0    0  501  503 -0.00000000000E+00 -0.00000000000E+00 -0.12717571018E+03  0.12717571018E+03  0.00000000000E+00 0.  1.
          5    1    1    2  501    0 -0.35590134875E+01  0.97896678643E+00 -0.45276569078E+02  0.45669274796E+02  0.47000000000E+01 0. -1.
         -5    1    1    2    0  502  0.35590134875E+01 -0.97896678643E+00 -0.81593505091E+02  0.81812071395E+02  0.47000000000E+01 0.  1.
<mgrwt>
<rscale>  2 0.59761989E+01</rscale>
<asrwt>0</asrwt>
<pdfrwt beam="1">  1       21 0.47021010E-04 0.59761989E+01</pdfrwt>
<pdfrwt beam="2">  1       21 0.19565458E-01 0.59761989E+01</pdfrwt>
<totfact> 0.24679483E+09</totfact>
</mgrwt>
</event>
<event>
 4    1  0.4043737E+006  0.7936341E+01  0.7546771E-02  0.2215814E+00
         21   -1    0    0  501  502  0.00000000000E+00  0.00000000000E+00  0.18958910247E+02  0.18958910247E+02  0.00000000000E+00 0. -1.
         21   -1    0    0  502  503 -0.00000000000E+00 -0.00000000000E+00 -0.34863497816E+01  0.34863497816E+01  0.00000000000E+00 0.  1.
          5    1    1    2  501    0 -0.61808119893E+01 -0.16410578437E+01  0.10171365900E+02  0.12901247690E+02  0.47000000000E+01 0. -1.
         -5    1    1    2    0  503  0.61808119893E+01  0.16410578437E+01  0.53011945653E+01  0.95440123382E+01  0.47000000000E+01 0.  1.
<mgrwt>
<rscale>  2 0.79363410E+01</rscale>
<asrwt>0</asrwt>
<pdfrwt beam="1">  1       21 0.29167554E-02 0.79363410E+01</pdfrwt>
<pdfrwt beam="2">  1       21 0.53636152E-03 0.79363410E+01</pdfrwt>
<totfact> 0.20306847E+09</totfact>
</mgrwt>
</event>
<event>
 4    1  0.4043737E+006  0.4705141E+01  0.7546771E-02  0.2622279E+00
         21   -1    0    0  501  502  0.00000000000E+00  0.00000000000E+00  0.43384451571E+01  0.43384451571E+01  0.00000000000E+00 0.  1.
         21   -1    0    0  502  503 -0.00000000000E+00 -0.00000000000E+00 -0.74686468604E+01  0.74686468604E+01  0.00000000000E+00 0.  1.
          5    1    1    2  501    0  0.15475298954E+00  0.15622244757E+00  0.17575325556E+01  0.50226760422E+01  0.47000000000E+01 0.  1.
         -5    1    1    2    0  503 -0.15475298954E+00 -0.15622244757E+00 -0.48877342589E+01  0.67844159753E+01  0.47000000000E+01 0.  1.
<mgrwt>
<rscale>  2 0.47051412E+01</rscale>
<asrwt>0</asrwt>
<pdfrwt beam="1">  1       21 0.66745311E-03 0.47051412E+01</pdfrwt>
<pdfrwt beam="2">  1       21 0.11490226E-02 0.47051412E+01</pdfrwt>
<totfact> 0.35895016E+09</totfact>
</mgrwt>
</event>
<event>
 4    1  0.4043737E+006  0.6500761E+01  0.7546771E-02  0.2354475E+00
         21   -1    0    0  503  502  0.00000000000E+00  0.00000000000E+00  0.19143851697E+01  0.19143851697E+01  0.00000000000E+00 0. -1.
         21   -1    0    0  501  503 -0.00000000000E+00 -0.00000000000E+00 -0.28297572276E+02  0.28297572276E+02  0.00000000000E+00 0. -1.
          5    1    1    2  501    0  0.44818737767E+01  0.28757463584E+00 -0.20275326620E+02  0.21291988195E+02  0.47000000000E+01 0. -1.
         -5    1    1    2    0  502 -0.44818737767E+01 -0.28757463584E+00 -0.61078604860E+01  0.89199692510E+01  0.47000000000E+01 0. -1.
<mgrwt>
<rscale>  2 0.65007609E+01</rscale>
<asrwt>0</asrwt>
<pdfrwt beam="1">  1       21 0.29452081E-03 0.65007609E+01</pdfrwt>
<pdfrwt beam="2">  1       21 0.43534724E-02 0.65007609E+01</pdfrwt>
<totfact> 0.22267298E+09</totfact>
</mgrwt>
</event>
<event>
 4    1  0.4043737E+006  0.7581283E+01  0.7546771E-02  0.2246098E+00
         21   -1    0    0  501  502  0.00000000000E+00  0.00000000000E+00  0.64643321760E+01  0.64643321760E+01  0.00000000000E+00 0.  1.
         21   -1    0    0  502  503 -0.00000000000E+00 -0.00000000000E+00 -0.56755256170E+02  0.56755256170E+02  0.00000000000E+00 0. -1.
          5    1    1    2  501    0 -0.57587313649E+01 -0.14909251777E+01  0.38829481754E+01  0.85178125920E+01  0.47000000000E+01 0.  1.
         -5    1    1    2    0  503  0.57587313649E+01  0.14909251777E+01 -0.54173872170E+02  0.54701775755E+02  0.47000000000E+01 0. -1.
<mgrwt>
<rscale>  2 0.75812825E+01</rscale>
<asrwt>0</asrwt>
<pdfrwt beam="1">  1       21 0.99451268E-03 0.75812825E+01</pdfrwt>
<pdfrwt beam="2">  1       21 0.87315776E-02 0.75812825E+01</pdfrwt>
<totfact> 0.15637528E+08</totfact>
</mgrwt>
</event>
<event>
 4    1  0.4043737E+006  0.8750220E+01  0.7546771E-02  0.2153974E+00
         21   -1    0    0  501  502  0.00000000000E+00  0.00000000000E+00  0.85185798488E+03  0.85185798488E+03  0.00000000000E+00 0. -1.
         21   -1    0    0  502  503 -0.00000000000E+00 -0.00000000000E+00 -0.11546382205E+00  0.11546382205E+00  0.00000000000E+00 0.  1.
          5    1    1    2  501    0  0.58544157246E+01 -0.44946823244E+01  0.62638414836E+03  0.62644526311E+03  0.47000000000E+01 0. -1.
         -5    1    1    2    0  503 -0.58544157246E+01  0.44946823244E+01  0.22535837270E+03  0.22552818559E+03  0.47000000000E+01 0.  1.
<mgrwt>
<rscale>  2 0.87502202E+01</rscale>
<asrwt>0</asrwt>
<pdfrwt beam="1">  1       21 0.13105004E+00 0.87502202E+01</pdfrwt>
<pdfrwt beam="2">  1       21 0.17764347E-04 0.87502202E+01</pdfrwt>
<totfact> 0.34583446E+08</totfact>
</mgrwt>
</event>
<event>
 4    1  0.4043737E+006  0.1200857E+02  0.7546771E-02  0.1975975E+00
         21   -1    0    0  501  502  0.00000000000E+00  0.00000000000E+00  0.15118818148E+03  0.15118818148E+03  0.00000000000E+00 0. -1.
         21   -1    0    0  502  503 -0.00000000000E+00 -0.00000000000E+00 -0.22619986295E+01  0.22619986295E+01  0.00000000000E+00 0.  1.
          5    1    1    2  501    0 -0.49128589502E+01 -0.98984668582E+01  0.13281099982E+03  0.13335279338E+03  0.47000000000E+01 0. -1.
         -5    1    1    2    0  503  0.49128589502E+01  0.98984668582E+01  0.16115183029E+02  0.20097386727E+02  0.47000000000E+01 0.  1.
<mgrwt>
<rscale>  2 0.12008573E+02</rscale>
<asrwt>0</asrwt>
<pdfrwt beam="1">  1       21 0.23259712E-01 0.12008573E+02</pdfrwt>
<pdfrwt beam="2">  1       21 0.34799991E-03 0.12008573E+02</pdfrwt>
<totfact> 0.17919347E+08</totfact>
</mgrwt>
</event>
<event>
 4    1  0.4043737E+006  0.1066107E+02  0.7546771E-02  0.2039209E+00
         21   -1    0    0  501  502  0.00000000000E+00  0.00000000000E+00  0.41538144073E+02  0.41538144073E+02  0.00000000000E+00 0. -1.
         21   -1    0    0  502  503 -0.00000000000E+00 -0.00000000000E+00 -0.52094392499E+01  0.52094392499E+01  0.00000000000E+00 0.  1.
          5    1    1    2  501    0 -0.73641136620E+01 -0.61105023606E+01  0.34269439159E+02  0.35889453456E+02  0.47000000000E+01 0. -1.
         -5    1    1    2    0  503  0.73641136620E+01  0.61105023606E+01  0.20592656642E+01  0.10858129867E+02  0.47000000000E+01 0.  1.
<mgrwt>
<rscale>  2 0.10661070E+02</rscale>
<asrwt>0</asrwt>
<pdfrwt beam="1">  1       21 0.63904835E-02 0.10661070E+02</pdfrwt>
<pdfrwt beam="2">  1       21 0.80145222E-03 0.10661070E+02</pdfrwt>
<totfact> 0.41692937E+08</totfact>
</mgrwt>
</event>
<event>
 4    1  0.4043737E+006  0.5345923E+01  0.7546771E-02  0.2509218E+00
         21   -1    0    0  501  502  0.00000000000E+00  0.00000000000E+00  0.18852061568E+02  0.18852061568E+02  0.00000000000E+00 0. -1.
         21   -1    0    0  502  503 -0.00000000000E+00 -0.00000000000E+00 -0.76382705532E+01  0.76382705532E+01  0.00000000000E+00 0.  1.
          5    1    1    2  501    0  0.19877823207E+01 -0.15929895162E+01  0.17465066586E+02  0.18264923898E+02  0.47000000000E+01 0. -1.
         -5    1    1    2    0  503 -0.19877823207E+01  0.15929895162E+01 -0.62512755717E+01  0.82254082225E+01  0.47000000000E+01 0.  1.
<mgrwt>
<rscale>  2 0.53459231E+01</rscale>
<asrwt>0</asrwt>
<pdfrwt beam="1">  1       21 0.29003171E-02 0.53459231E+01</pdfrwt>
<pdfrwt beam="2">  1       21 0.11751186E-02 0.53459231E+01</pdfrwt>
<totfact> 0.49903864E+08</totfact>
</mgrwt>
</event>
<event>
 4    1  0.4043737E+006  0.5240221E+01  0.7546771E-02  0.2526225E+00
         21   -1    0    0  503  502  0.00000000000E+00  0.00000000000E+00  0.66814893693E+02  0.66814893693E+02  0.00000000000E+00 0. -1.
         21   -1    0    0  501  503 -0.00000000000E+00 -0.00000000000E+00 -0.50709543942E+01  0.50709543942E+01  0.00000000000E+00 0. -1.
          5    1    1    2  501    0  0.14400960933E+00 -0.23128282674E+01 -0.35836519234E+01  0.63484229908E+01  0.47000000000E+01 0. -1.
         -5    1    1    2    0  502 -0.14400960933E+00  0.23128282674E+01  0.65327591223E+02  0.65537425097E+02  0.47000000000E+01 0. -1.
<mgrwt>
<rscale>  2 0.52402207E+01</rscale>
<asrwt>0</asrwt>
<pdfrwt beam="1">  1       21 0.10279214E-01 0.52402207E+01</pdfrwt>
<pdfrwt beam="2">  1       21 0.78014688E-03 0.52402207E+01</pdfrwt>
<totfact> 0.13444959E+08</totfact>
</mgrwt>
</event>
<event>
 4    1  0.4043737E+006  0.5327223E+01  0.7546771E-02  0.2512185E+00
         21   -1    0    0  501  502  0.00000000000E+00  0.00000000000E+00  0.11531517687E+00  0.11531517687E+00  0.00000000000E+00 0.  1.
         21   -1    0    0  502  503 -0.00000000000E+00 -0.00000000000E+00 -0.16771311498E+04  0.16771311498E+04  0.00000000000E+00 0.  1.
          5    1    1    2  501    0 -0.25074300674E+00  0.24952821362E+01 -0.63854207950E+02  0.64076042152E+02  0.47000000000E+01 0.  1.
         -5    1    1    2    0  503  0.25074300674E+00 -0.24952821362E+01 -0.16131616267E+04  0.16131704228E+04  0.47000000000E+01 0.  1.
<mgrwt>
<rscale>  2 0.53272230E+01</rscale>
<asrwt>0</asrwt>
<pdfrwt beam="1">  1       21 0.17740955E-04 0.53272230E+01</pdfrwt>
<pdfrwt beam="2">  1       21 0.25801787E+00 0.53272230E+01</pdfrwt>
<totfact> 0.59441452E+07</totfact>
</mgrwt>
</event>
<event>
 4    1  0.4043737E+006  0.1133649E+02  0.7546771E-02  0.2006058E+00
         21   -1    0    0  501  502  0.00000000000E+00  0.00000000000E+00  0.59975676600E+02  0.59975676600E+02  0.00000000000E+00 0.  1.
         21   -1    0    0  502  503 -0.00000000000E+00 -0.00000000000E+00 -0.15441646450E+02  0.15441646450E+02  0.00000000000E+00 0. -1.
          5    1    1    2  501    0 -0.91101618593E+01 -0.48405514094E+01  0.57261634242E+02  0.58373030957E+02  0.47000000000E+01 0.  1.
         -5    1    1    2    0  503  0.91101618593E+01  0.48405514094E+01 -0.12727604092E+02  0.17044292094E+02  0.47000000000E+01 0. -1.
<mgrwt>
<rscale>  2 0.11336489E+02</rscale>
<asrwt>0</asrwt>
<pdfrwt beam="1">  1       21 0.92270270E-02 0.11336489E+02</pdfrwt>
<pdfrwt beam="2">  1       21 0.23756379E-02 0.11336489E+02</pdfrwt>
<totfact> 0.48678042E+07</totfact>
</mgrwt>
</event>
<event>
 4    1  0.4043737E+006  0.5563030E+01  0.7546771E-02  0.2476021E+00
         21   -1    0    0  503  502  0.00000000000E+00  0.00000000000E+00  0.93310191148E+00  0.93310191148E+00  0.00000000000E+00 0. -1.
         21   -1    0    0  501  503 -0.00000000000E+00 -0.00000000000E+00 -0.33181158389E+02  0.33181158389E+02  0.00000000000E+00 0. -1.
          5    1    1    2  501    0 -0.28974463682E+01 -0.67978863075E+00 -0.15760098893E+02  0.16713109380E+02  0.47000000000E+01 0. -1.
         -5    1    1    2    0  502  0.28974463682E+01  0.67978863075E+00 -0.16487957585E+02  0.17401150920E+02  0.47000000000E+01 0. -1.
<mgrwt>
<rscale>  2 0.55630305E+01</rscale>
<asrwt>0</asrwt>
<pdfrwt beam="1">  1       21 0.14355414E-03 0.55630305E+01</pdfrwt>
<pdfrwt beam="2">  1       21 0.51047935E-02 0.55630305E+01</pdfrwt>
<totfact> 0.40861685E+09</totfact>
</mgrwt>
</event>
<event>
 4    1  0.4043737E+006  0.5298556E+01  0.7546771E-02  0.2516768E+00
         21   -1    0    0  501  502  0.00000000000E+00  0.00000000000E+00  0.12145088609E+00  0.12145088609E+00  0.00000000000E+00 0.  1.
         21   -1    0    0  502  503 -0.00000000000E+00 -0.00000000000E+00 -0.24441945500E+03  0.24441945500E+03  0.00000000000E+00 0.  1.
          5    1    1    2  501    0  0.14268516681E+01 -0.19871552843E+01 -0.93671472187E+02  0.93821209721E+02  0.47000000000E+01 0.  1.
         -5    1    1    2    0  503 -0.14268516681E+01  0.19871552843E+01 -0.15062653193E+03  0.15071969616E+03  0.47000000000E+01 0.  1.
<mgrwt>
<rscale>  2 0.52985556E+01</rscale>
<asrwt>0</asrwt>
<pdfrwt beam="1">  1       21 0.18684699E-04 0.52985556E+01</pdfrwt>
<pdfrwt beam="2">  1       21 0.37603099E-01 0.52985556E+01</pdfrwt>
<totfact> 0.25778879E+09</totfact>
</mgrwt>
</event>
<event>
 4    1  0.4043737E+006  0.7570437E+01  0.7546771E-02  0.2247059E+00
         21   -1    0    0  501  502  0.00000000000E+00  0.00000000000E+00  0.19848742788E+01  0.19848742788E+01  0.00000000000E+00 0. -1.
         21   -1    0    0  502  503 -0.00000000000E+00 -0.00000000000E+00 -0.48706635131E+03  0.48706635131E+03  0.00000000000E+00 0.  1.
          5    1    1    2  501    0 -0.56934735212E+01  0.16750748467E+01 -0.53737994829E+01  0.92838158836E+01  0.47000000000E+01 0. -1.
         -5    1    1    2    0  503  0.56934735212E+01 -0.16750748467E+01 -0.47970767755E+03  0.47976740970E+03  0.47000000000E+01 0.  1.
<mgrwt>
<rscale>  2 0.75704370E+01</rscale>
<asrwt>0</asrwt>
<pdfrwt beam="1">  1       21 0.30536499E-03 0.75704370E+01</pdfrwt>
<pdfrwt beam="2">  1       21 0.74933354E-01 0.75704370E+01</pdfrwt>
<totfact> 0.21121783E+07</totfact>
</mgrwt>
</event>
<event>
 4    1  0.4043737E+006  0.1415536E+02  0.7546771E-02  0.1894993E+00
         21   -1    0    0  503  502  0.00000000000E+00  0.00000000000E+00  0.30264730620E+02  0.30264730620E+02  0.00000000000E+00 0.  1.
         21   -1    0    0  501  503 -0.00000000000E+00 -0.00000000000E+00 -0.66667114427E+01  0.66667114427E+01  0.00000000000E+00 0. -1.
          5    1    1    2  501    0 -0.67278574528E+01  0.11533442005E+02  0.10265303157E+02  0.17485731305E+02  0.47000000000E+01 0. -1.
         -5    1    1    2    0  502  0.67278574528E+01 -0.11533442005E+02  0.13332716021E+02  0.19445710758E+02  0.47000000000E+01 0.  1.
<mgrwt>
<rscale>  2 0.14155365E+02</rscale>
<asrwt>0</asrwt>
<pdfrwt beam="1">  1       21 0.46561123E-02 0.14155365E+02</pdfrwt>
<pdfrwt beam="2">  1       21 0.10256479E-02 0.14155365E+02</pdfrwt>
<totfact> 0.54528781E+08</totfact>
</mgrwt>
</event>
<event>
 4    1  0.4043737E+006  0.4838135E+01  0.7546771E-02  0.2596695E+00
         21   -1    0    0  503  502  0.00000000000E+00  0.00000000000E+00  0.15976782169E+01  0.15976782169E+01  0.00000000000E+00 0. -1.
         21   -1    0    0  501  503 -0.00000000000E+00 -0.00000000000E+00 -0.17919832926E+02  0.17919832926E+02  0.00000000000E+00 0. -1.
          5    1    1    2  501    0  0.17281141119E+00  0.11347621420E+01 -0.12329053886E+02  0.13244361767E+02  0.47000000000E+01 0. -1.
         -5    1    1    2    0  502 -0.17281141119E+00 -0.11347621420E+01 -0.39931008230E+01  0.62731493754E+01  0.47000000000E+01 0. -1.
<mgrwt>
<rscale>  2 0.48381349E+01</rscale>
<asrwt>0</asrwt>
<pdfrwt beam="1">  1       21 0.24579665E-03 0.48381349E+01</pdfrwt>
<pdfrwt beam="2">  1       21 0.27568973E-02 0.48381349E+01</pdfrwt>
<totfact> 0.42032021E+09</totfact>
</mgrwt>
</event>
<event>
 4    1  0.4043737E+006  0.5651420E+01  0.7546771E-02  0.2463127E+00
         21   -1    0    0  501  502  0.00000000000E+00  0.00000000000E+00  0.17433708330E+02  0.17433708330E+02  0.00000000000E+00 0. -1.
         21   -1    0    0  502  503 -0.00000000000E+00 -0.00000000000E+00 -0.19490249673E+01  0.19490249673E+01  0.00000000000E+00 0.  1.
          5    1    1    2  501    0  0.30924389081E+01 -0.53420378471E+00  0.53676033903E+01  0.77942105591E+01  0.47000000000E+01 0. -1.
         -5    1    1    2    0  503 -0.30924389081E+01  0.53420378471E+00  0.10117079972E+02  0.11588522738E+02  0.47000000000E+01 0.  1.
<mgrwt>
<rscale>  2 0.56514204E+01</rscale>
<asrwt>0</asrwt>
<pdfrwt beam="1">  1       21 0.26821089E-02 0.56514204E+01</pdfrwt>
<pdfrwt beam="2">  1       21 0.29985001E-03 0.56514204E+01</pdfrwt>
<totfact> 0.39020356E+09</totfact>
</mgrwt>
</event>
<event>
 4    1  0.4043737E+006  0.6829861E+01  0.7546771E-02  0.2318496E+00
         21   -1    0    0  501  502  0.00000000000E+00  0.00000000000E+00  0.18867940177E+00  0.18867940177E+00  0.00000000000E+00 0. -1.
         21   -1    0    0  502  503 -0.00000000000E+00 -0.00000000000E+00 -0.53640755718E+03  0.53640755718E+03  0.00000000000E+00 0.  1.
          5    1    1    2  501    0 -0.47955447583E+01  0.12489013628E+01 -0.71115307435E+02  0.71442522042E+02  0.47000000000E+01 0. -1.
         -5    1    1    2    0  503  0.47955447583E+01 -0.12489013628E+01 -0.46510357034E+03  0.46515371454E+03  0.47000000000E+01 0.  1.
<mgrwt>
<rscale>  2 0.68298612E+01</rscale>
<asrwt>0</asrwt>
<pdfrwt beam="1">  1       21 0.29027533E-04 0.68298612E+01</pdfrwt>
<pdfrwt beam="2">  1       21 0.82524431E-01 0.68298612E+01</pdfrwt>
<totfact> 0.40709925E+08</totfact>
</mgrwt>
</event>
<event>
 4    1  0.4043737E+006  0.5192277E+01  0.7546771E-02  0.2534134E+00
         21   -1    0    0  501  502  0.00000000000E+00  0.00000000000E+00  0.40501774006E+01  0.40501774006E+01  0.00000000000E+00 0.  1.
         21   -1    0    0  502  503 -0.00000000000E+00 -0.00000000000E+00 -0.71129076316E+01  0.71129076316E+01  0.00000000000E+00 0.  1.
          5    1    1    2  501    0 -0.79021105557E+00  0.20604143364E+01 -0.11740147240E+00  0.51936041297E+01  0.47000000000E+01 0.  1.
         -5    1    1    2    0  503  0.79021105557E+00 -0.20604143364E+01 -0.29453287586E+01  0.59694809026E+01  0.47000000000E+01 0.  1.
<mgrwt>
<rscale>  2 0.51922770E+01</rscale>
<asrwt>0</asrwt>
<pdfrwt beam="1">  1       21 0.62310422E-03 0.51922770E+01</pdfrwt>
<pdfrwt beam="2">  1       21 0.10942935E-02 0.51922770E+01</pdfrwt>
<totfact> 0.46901917E+09</totfact>
</mgrwt>
</event>
<event>
 4    1  0.4043737E+006  0.5503649E+01  0.7546771E-02  0.2484879E+00
         21   -1    0    0  503  502  0.00000000000E+00  0.00000000000E+00  0.15901467543E+02  0.15901467543E+02  0.00000000000E+00 0. -1.
         21   -1    0    0  501  503 -0.00000000000E+00 -0.00000000000E+00 -0.11974625402E+02  0.11974625402E+02  0.00000000000E+00 0. -1.
          5    1    1    2  501    0  0.28379671664E+01  0.38223049934E+00 -0.10818039854E+02  0.12137550992E+02  0.47000000000E+01 0. -1.
         -5    1    1    2    0  502 -0.28379671664E+01 -0.38223049934E+00  0.14744881995E+02  0.15738541954E+02  0.47000000000E+01 0. -1.
<mgrwt>
<rscale>  2 0.55036495E+01</rscale>
<asrwt>0</asrwt>
<pdfrwt beam="1">  1       21 0.24463796E-02 0.55036495E+01</pdfrwt>
<pdfrwt beam="2">  1       21 0.18422501E-02 0.55036495E+01</pdfrwt>
<totfact> 0.34562896E+08</totfact>
</mgrwt>
</event>
<event>
 4    1  0.4043737E+006  0.5384068E+01  0.7546771E-02  0.2503221E+00
         21   -1    0    0  503  502  0.00000000000E+00  0.00000000000E+00  0.27980619902E+03  0.27980619902E+03  0.00000000000E+00 0.  1.
         21   -1    0    0  501  503 -0.00000000000E+00 -0.00000000000E+00 -0.15626084400E+00  0.15626084400E+00  0.00000000000E+00 0.  1.
          5    1    1    2  501    0 -0.26001097024E+01  0.37097384178E+00  0.58563503034E+02  0.58810475935E+02  0.47000000000E+01 0.  1.
         -5    1    1    2    0  502  0.26001097024E+01 -0.37097384178E+00  0.22108643514E+03  0.22115198393E+03  0.47000000000E+01 0.  1.
<mgrwt>
<rscale>  2 0.53840684E+01</rscale>
<asrwt>0</asrwt>
<pdfrwt beam="1">  1       21 0.43046707E-01 0.53840684E+01</pdfrwt>
<pdfrwt beam="2">  1       21 0.24040354E-04 0.53840684E+01</pdfrwt>
<totfact> 0.14800023E+09</totfact>
</mgrwt>
</event>
<event>
 4    1  0.4043737E+006  0.7125269E+01  0.7546771E-02  0.2288547E+00
         21   -1    0    0  503  502  0.00000000000E+00  0.00000000000E+00  0.93227217183E+01  0.93227217183E+01  0.00000000000E+00 0. -1.
         21   -1    0    0  501  503 -0.00000000000E+00 -0.00000000000E+00 -0.57327094303E+01  0.57327094303E+01  0.00000000000E+00 0. -1.
          5    1    1    2  501    0 -0.12378356945E+01  0.52102995421E+01  0.34791277976E+01  0.79292993862E+01  0.47000000000E+01 0. -1.
         -5    1    1    2    0  502  0.12378356945E+01 -0.52102995421E+01  0.11088449043E+00  0.71261317624E+01  0.47000000000E+01 0. -1.
<mgrwt>
<rscale>  2 0.71252690E+01</rscale>
<asrwt>0</asrwt>
<pdfrwt beam="1">  1       21 0.14342649E-02 0.71252690E+01</pdfrwt>
<pdfrwt beam="2">  1       21 0.88195530E-03 0.71252690E+01</pdfrwt>
<totfact> 0.26043779E+09</totfact>
</mgrwt>
</event>
<event>
 4    1  0.4043737E+006  0.5166166E+01  0.7546771E-02  0.2538494E+00
         21   -1    0    0  503  502  0.00000000000E+00  0.00000000000E+00  0.18152924846E+01  0.18152924846E+01  0.00000000000E+00 0. -1.
         21   -1    0    0  501  503 -0.00000000000E+00 -0.00000000000E+00 -0.14715980889E+02  0.14715980889E+02  0.00000000000E+00 0.  1.
          5    1    1    2  501    0  0.20973086324E+01  0.44784323182E+00 -0.61998097986E+01  0.80701244476E+01  0.47000000000E+01 0. -1.
         -5    1    1    2    0  502 -0.20973086324E+01 -0.44784323182E+00 -0.67008786055E+01  0.84611489259E+01  0.47000000000E+01 0. -1.
<mgrwt>
<rscale>  2 0.51661656E+01</rscale>
<asrwt>0</asrwt>
<pdfrwt beam="1">  1       21 0.27927579E-03 0.51661656E+01</pdfrwt>
<pdfrwt beam="2">  1       21 0.22639969E-02 0.51661656E+01</pdfrwt>
<totfact> 0.50183735E+09</totfact>
</mgrwt>
</event>
<event>
 4    1  0.4043737E+006  0.5496964E+01  0.7546771E-02  0.2485887E+00
         21   -1    0    0  501  502  0.00000000000E+00  0.00000000000E+00  0.18383855922E+02  0.18383855922E+02  0.00000000000E+00 0.  1.
         21   -1    0    0  502  503 -0.00000000000E+00 -0.00000000000E+00 -0.48539696083E+01  0.48539696083E+01  0.00000000000E+00 0. -1.
          5    1    1    2  501    0  0.16252138411E+01 -0.23420712859E+01  0.16214057960E+02  0.17120522582E+02  0.47000000000E+01 0.  1.
         -5    1    1    2    0  503 -0.16252138411E+01  0.23420712859E+01 -0.26841716464E+01  0.61173029486E+01  0.47000000000E+01 0. -1.
<mgrwt>
<rscale>  2 0.54969644E+01</rscale>
<asrwt>0</asrwt>
<pdfrwt beam="1">  1       21 0.28282855E-02 0.54969644E+01</pdfrwt>
<pdfrwt beam="2">  1       21 0.74676457E-03 0.54969644E+01</pdfrwt>
<totfact> 0.99996007E+08</totfact>
</mgrwt>
</event>
<event>
 4    1  0.4043737E+006  0.4863000E+01  0.7546771E-02  0.2592047E+00
         21   -1    0    0  501  502  0.00000000000E+00  0.00000000000E+00  0.83380014748E-01  0.83380014748E-01  0.00000000000E+00 0.  1.
         21   -1    0    0  502  503 -0.00000000000E+00 -0.00000000000E+00 -0.36512250799E+03  0.36512250799E+03  0.00000000000E+00 0.  1.
          5    1    1    2  501    0  0.11582317248E+01 -0.46611764250E+00 -0.96250093743E+02  0.96372866057E+02  0.47000000000E+01 0.  1.
         -5    1    1    2    0  503 -0.11582317248E+01  0.46611764250E+00 -0.26878903423E+03  0.26883302195E+03  0.47000000000E+01 0.  1.
<mgrwt>
<rscale>  2 0.48629997E+01</rscale>
<asrwt>0</asrwt>
<pdfrwt beam="1">  1       21 0.12827924E-04 0.48629997E+01</pdfrwt>
<pdfrwt beam="2">  1       21 0.56171689E-01 0.48629997E+01</pdfrwt>
<totfact> 0.19442547E+09</totfact>
</mgrwt>
</event>
<event>
 4    1  0.4043737E+006  0.4714501E+01  0.7546771E-02  0.2620438E+00
         21   -1    0    0  501  502  0.00000000000E+00  0.00000000000E+00  0.65513937387E+02  0.65513937387E+02  0.00000000000E+00 0. -1.
         21   -1    0    0  502  503 -0.00000000000E+00 -0.00000000000E+00 -0.52190338802E+00  0.52190338802E+00  0.00000000000E+00 0. -1.
          5    1    1    2  501    0 -0.49204667814E-01  0.36618881975E+00  0.52028253411E+02  0.52241417174E+02  0.47000000000E+01 0. -1.
         -5    1    1    2    0  503  0.49204667814E-01 -0.36618881975E+00  0.12963780589E+02  0.13794423602E+02  0.47000000000E+01 0. -1.
<mgrwt>
<rscale>  2 0.47145005E+01</rscale>
<asrwt>0</asrwt>
<pdfrwt beam="1">  1       21 0.10079061E-01 0.47145005E+01</pdfrwt>
<pdfrwt beam="2">  1       21 0.80292881E-04 0.47145005E+01</pdfrwt>
<totfact> 0.27309384E+09</totfact>
</mgrwt>
</event>
<event>
 4    1  0.4043737E+006  0.5079717E+01  0.7546771E-02  0.2553203E+00
         21   -1    0    0  503  502  0.00000000000E+00  0.00000000000E+00  0.77059056268E+02  0.77059056268E+02  0.00000000000E+00 0.  1.
         21   -1    0    0  501  503 -0.00000000000E+00 -0.00000000000E+00 -0.33546489645E+00  0.33546489645E+00  0.00000000000E+00 0.  1.
          5    1    1    2  501    0  0.17488121390E+01 -0.80943232516E+00  0.40013302378E+02  0.40334450433E+02  0.47000000000E+01 0.  1.
         -5    1    1    2    0  502 -0.17488121390E+01  0.80943232516E+00  0.36710288993E+02  0.37060070731E+02  0.47000000000E+01 0.  1.
<mgrwt>
<rscale>  2 0.50797170E+01</rscale>
<asrwt>0</asrwt>
<pdfrwt beam="1">  1       21 0.11855225E-01 0.50797170E+01</pdfrwt>
<pdfrwt beam="2">  1       21 0.51610045E-04 0.50797170E+01</pdfrwt>
<totfact> 0.41316026E+09</totfact>
</mgrwt>
</event>
<event>
 4    1  0.4043737E+006  0.2513896E+02  0.7546771E-02  0.1659014E+00
         21   -1    0    0  503  502  0.00000000000E+00  0.00000000000E+00  0.14193189926E+02  0.14193189926E+02  0.00000000000E+00 0. -1.
         21   -1    0    0  501  503 -0.00000000000E+00 -0.00000000000E+00 -0.13925152379E+03  0.13925152379E+03  0.00000000000E+00 0. -1.
          5    1    1    2  501    0 -0.21816166173E+02 -0.11572915853E+02 -0.12580752778E+03  0.12829458887E+03  0.47000000000E+01 0. -1.
         -5    1    1    2    0  502  0.21816166173E+02  0.11572915853E+02  0.74919392220E+00  0.25150124838E+02  0.47000000000E+01 0. -1.
<mgrwt>
<rscale>  2 0.25138964E+02</rscale>
<asrwt>0</asrwt>
<pdfrwt beam="1">  1       21 0.21835677E-02 0.25138964E+02</pdfrwt>
<pdfrwt beam="2">  1       21 0.21423311E-01 0.25138964E+02</pdfrwt>
<totfact> 0.16972643E+07</totfact>
</mgrwt>
</event>
<event>
 4    1  0.4043737E+006  0.9407796E+01  0.7546771E-02  0.2110345E+00
         21   -1    0    0  501  502  0.00000000000E+00  0.00000000000E+00  0.11061070405E+02  0.11061070405E+02  0.00000000000E+00 0.  1.
         21   -1    0    0  502  503 -0.00000000000E+00 -0.00000000000E+00 -0.87257484245E+01  0.87257484245E+01  0.00000000000E+00 0.  1.
          5    1    1    2  501    0  0.65848278778E+01  0.48017356316E+01  0.40176856032E+01  0.10229781076E+02  0.47000000000E+01 0.  1.
         -5    1    1    2    0  503 -0.65848278778E+01 -0.48017356316E+01 -0.16823636230E+01  0.95570377532E+01  0.47000000000E+01 0.  1.
<mgrwt>
<rscale>  2 0.94077959E+01</rscale>
<asrwt>0</asrwt>
<pdfrwt beam="1">  1       21 0.17017031E-02 0.94077959E+01</pdfrwt>
<pdfrwt beam="2">  1       21 0.13424228E-02 0.94077959E+01</pdfrwt>
<totfact> 0.13487792E+09</totfact>
</mgrwt>
</event>
<event>
 4    1  0.4043737E+006  0.6203921E+01  0.7546771E-02  0.2389615E+00
         21   -1    0    0  503  502  0.00000000000E+00  0.00000000000E+00  0.64606811752E+03  0.64606811752E+03  0.00000000000E+00 0. -1.
         21   -1    0    0  501  503 -0.00000000000E+00 -0.00000000000E+00 -0.45448290293E+01  0.45448290293E+01  0.00000000000E+00 0. -1.
          5    1    1    2  501    0  0.21817839919E+01  0.34115172871E+01 -0.24057365986E+01  0.66540363818E+01  0.47000000000E+01 0. -1.
         -5    1    1    2    0  502 -0.21817839919E+01 -0.34115172871E+01  0.64392902509E+03  0.64395891016E+03  0.47000000000E+01 0. -1.
<mgrwt>
<rscale>  2 0.62039207E+01</rscale>
<asrwt>0</asrwt>
<pdfrwt beam="1">  1       21 0.99395022E-01 0.62039207E+01</pdfrwt>
<pdfrwt beam="2">  1       21 0.69920498E-03 0.62039207E+01</pdfrwt>
<totfact> 0.34944495E+06</totfact>
</mgrwt>
</event>
<event>
 4    1  0.4043737E+006  0.4833759E+01  0.7546771E-02  0.2597517E+00
         21   -1    0    0  503  502  0.00000000000E+00  0.00000000000E+00  0.43611682088E+02  0.43611682088E+02  0.00000000000E+00 0.  1.
         21   -1    0    0  501  503 -0.00000000000E+00 -0.00000000000E+00 -0.11156829739E+01  0.11156829739E+01  0.00000000000E+00 0.  1.
          5    1    1    2  501    0 -0.97106592958E+00  0.57642029513E+00  0.51244932150E+01  0.70445482543E+01  0.47000000000E+01 0.  1.
         -5    1    1    2    0  502  0.97106592958E+00 -0.57642029513E+00  0.37371505899E+02  0.37682816808E+02  0.47000000000E+01 0.  1.
<mgrwt>
<rscale>  2 0.48337593E+01</rscale>
<asrwt>0</asrwt>
<pdfrwt beam="1">  1       21 0.67094883E-02 0.48337593E+01</pdfrwt>
<pdfrwt beam="2">  1       21 0.17164357E-03 0.48337593E+01</pdfrwt>
<totfact> 0.18725962E+09</totfact>
</mgrwt>
</event>
<event>
 4    1  0.4043737E+006  0.6839105E+01  0.7546771E-02  0.2317526E+00
         21   -1    0    0  501  502  0.00000000000E+00  0.00000000000E+00  0.11241691643E+02  0.11241691643E+02  0.00000000000E+00 0. -1.
         21   -1    0    0  502  503 -0.00000000000E+00 -0.00000000000E+00 -0.72876661273E+02  0.72876661273E+02  0.00000000000E+00 0. -1.
          5    1    1    2  501    0 -0.44388728268E+01 -0.22315394566E+01  0.10023417515E+02  0.12134342133E+02  0.47000000000E+01 0. -1.
         -5    1    1    2    0  503  0.44388728268E+01  0.22315394566E+01 -0.71658387145E+02  0.71984010784E+02  0.47000000000E+01 0. -1.
<mgrwt>
<rscale>  2 0.68391052E+01</rscale>
<asrwt>0</asrwt>
<pdfrwt beam="1">  1       21 0.17294909E-02 0.68391052E+01</pdfrwt>
<pdfrwt beam="2">  1       21 0.11211795E-01 0.68391052E+01</pdfrwt>
<totfact> 0.45194306E+07</totfact>
</mgrwt>
</event>
<event>
 4    1  0.4043737E+006  0.6765733E+01  0.7546771E-02  0.2325280E+00
         21   -1    0    0  501  502  0.00000000000E+00  0.00000000000E+00  0.39581294211E+00  0.39581294211E+00  0.00000000000E+00 0.  1.
         21   -1    0    0  502  503 -0.00000000000E+00 -0.00000000000E+00 -0.21840013867E+04  0.21840013867E+04  0.00000000000E+00 0.  1.
          5    1    1    2  501    0 -0.38325049135E+01  0.29995078792E+01 -0.28914827444E+02  0.29695831147E+02  0.47000000000E+01 0.  1.
         -5    1    1    2    0  503  0.38325049135E+01 -0.29995078792E+01 -0.21546907463E+04  0.21547013685E+04  0.47000000000E+01 0.  1.
<mgrwt>
<rscale>  2 0.67657329E+01</rscale>
<asrwt>0</asrwt>
<pdfrwt beam="1">  1       21 0.60894655E-04 0.67657329E+01</pdfrwt>
<pdfrwt beam="2">  1       21 0.33599825E+00 0.67657329E+01</pdfrwt>
<totfact> 0.61406576E+06</totfact>
</mgrwt>
</event>
<event>
 4    1  0.4043737E+006  0.5886086E+01  0.7546771E-02  0.2430490E+00
         21   -1    0    0  503  502  0.00000000000E+00  0.00000000000E+00  0.40357744786E+01  0.40357744786E+01  0.00000000000E+00 0. -1.
         21   -1    0    0  501  503 -0.00000000000E+00 -0.00000000000E+00 -0.86110945977E+01  0.86110945977E+01  0.00000000000E+00 0. -1.
          5    1    1    2  501    0  0.32500128665E+01  0.14118889876E+01 -0.26375854252E+01  0.64500287613E+01  0.47000000000E+01 0. -1.
         -5    1    1    2    0  502 -0.32500128665E+01 -0.14118889876E+01 -0.19377346939E+01  0.61968403150E+01  0.47000000000E+01 0. -1.
<mgrwt>
<rscale>  2 0.58860865E+01</rscale>
<asrwt>0</asrwt>
<pdfrwt beam="1">  1       21 0.62088838E-03 0.58860865E+01</pdfrwt>
<pdfrwt beam="2">  1       21 0.13247838E-02 0.58860865E+01</pdfrwt>
<totfact> 0.40655307E+09</totfact>
</mgrwt>
</event>
<event>
 4    1  0.4043737E+006  0.5242544E+01  0.7546771E-02  0.2525845E+00
         21   -1    0    0  501  502  0.00000000000E+00  0.00000000000E+00  0.77299861919E+02  0.77299861919E+02  0.00000000000E+00 0. -1.
         21   -1    0    0  502  503 -0.00000000000E+00 -0.00000000000E+00 -0.73600315108E+00  0.73600315108E+00  0.00000000000E+00 0. -1.
          5    1    1    2  501    0  0.11634383713E+01  0.20101426744E+01  0.66334510058E+02  0.66541351707E+02  0.47000000000E+01 0. -1.
         -5    1    1    2    0  503 -0.11634383713E+01 -0.20101426744E+01  0.10229348710E+02  0.11494513363E+02  0.47000000000E+01 0. -1.
<mgrwt>
<rscale>  2 0.52425435E+01</rscale>
<asrwt>0</asrwt>
<pdfrwt beam="1">  1       21 0.11892280E-01 0.52425435E+01</pdfrwt>
<pdfrwt beam="2">  1       21 0.11323131E-03 0.52425435E+01</pdfrwt>
<totfact> 0.14913697E+09</totfact>
</mgrwt>
</event>
<event>
 4    1  0.4043737E+006  0.5519730E+01  0.7546771E-02  0.2482464E+00
         21   -1    0    0  501  502  0.00000000000E+00  0.00000000000E+00  0.32063186655E+01  0.32063186655E+01  0.00000000000E+00 0. -1.
         21   -1    0    0  502  503 -0.00000000000E+00 -0.00000000000E+00 -0.95096388503E+01  0.95096388503E+01  0.00000000000E+00 0.  1.
          5    1    1    2  501    0 -0.14681755662E+01  0.24943688274E+01 -0.29750861577E+01  0.62704507801E+01  0.47000000000E+01 0.  1.
         -5    1    1    2    0  503  0.14681755662E+01 -0.24943688274E+01 -0.33282340271E+01  0.64455067357E+01  0.47000000000E+01 0.  1.
<mgrwt>
<rscale>  2 0.55197296E+01</rscale>
<asrwt>0</asrwt>
<pdfrwt beam="1">  1       21 0.49327978E-03 0.55197296E+01</pdfrwt>
<pdfrwt beam="2">  1       21 0.14630214E-02 0.55197296E+01</pdfrwt>
<totfact> 0.45767324E+09</totfact>
</mgrwt>
</event>
<event>
 4    1  0.4043737E+006  0.1370750E+02  0.7546771E-02  0.1910278E+00
         21   -1    0    0  501  502  0.00000000000E+00  0.00000000000E+00  0.13380520810E+03  0.13380520810E+03  0.00000000000E+00 0. -1.
         21   -1    0    0  502  503 -0.00000000000E+00 -0.00000000000E+00 -0.22268014811E+01  0.22268014811E+01  0.00000000000E+00 0.  1.
          5    1    1    2  501    0 -0.65526721540E+01 -0.11084584342E+02  0.10712751943E+03  0.10800093028E+03  0.47000000000E+01 0. -1.
         -5    1    1    2    0  503  0.65526721540E+01  0.11084584342E+02  0.24450887188E+02  0.28031079299E+02  0.47000000000E+01 0.  1.
<mgrwt>
<rscale>  2 0.13707499E+02</rscale>
<asrwt>0</asrwt>
<pdfrwt beam="1">  1       21 0.20585410E-01 0.13707499E+02</pdfrwt>
<pdfrwt beam="2">  1       21 0.34258495E-03 0.13707499E+02</pdfrwt>
<totfact> 0.23850671E+08</totfact>
</mgrwt>
</event>
<event>
 4    1  0.4043737E+006  0.6448644E+01  0.7546771E-02  0.2360450E+00
         21   -1    0    0  501  502  0.00000000000E+00  0.00000000000E+00  0.12989632129E+02  0.12989632129E+02  0.00000000000E+00 0. -1.
         21   -1    0    0  502  503 -0.00000000000E+00 -0.00000000000E+00 -0.60899921098E+01  0.60899921098E+01  0.00000000000E+00 0. -1.
          5    1    1    2  501    0  0.21069208559E+01 -0.38801917008E+01 -0.31203195828E+01  0.71638954087E+01  0.47000000000E+01 0. -1.
         -5    1    1    2    0  503 -0.21069208559E+01  0.38801917008E+01  0.10019959602E+02  0.11915728831E+02  0.47000000000E+01 0. -1.
<mgrwt>
<rscale>  2 0.64486435E+01</rscale>
<asrwt>0</asrwt>
<pdfrwt beam="1">  1       21 0.19984049E-02 0.64486435E+01</pdfrwt>
<pdfrwt beam="2">  1       21 0.93692187E-03 0.64486435E+01</pdfrwt>
<totfact> 0.13705912E+09</totfact>
</mgrwt>
</event>
<event>
 4    1  0.4043737E+006  0.1229595E+02  0.7546771E-02  0.1963891E+00
         21   -1    0    0  501  502  0.00000000000E+00  0.00000000000E+00  0.47690548725E+01  0.47690548725E+01  0.00000000000E+00 0. -1.
         21   -1    0    0  502  503 -0.00000000000E+00 -0.00000000000E+00 -0.46064922444E+02  0.46064922444E+02  0.00000000000E+00 0.  1.
          5    1    1    2  501    0 -0.10498074577E+02 -0.43463697193E+01 -0.64555862445E+01  0.13887587743E+02  0.47000000000E+01 0. -1.
         -5    1    1    2    0  503  0.10498074577E+02  0.43463697193E+01 -0.34840281327E+02  0.36946389573E+02  0.47000000000E+01 0. -1.
<mgrwt>
<rscale>  2 0.12295955E+02</rscale>
<asrwt>0</asrwt>
<pdfrwt beam="1">  1       21 0.73370072E-03 0.12295955E+02</pdfrwt>
<pdfrwt beam="2">  1       21 0.70869114E-02 0.12295955E+02</pdfrwt>
<totfact> 0.43251757E+08</totfact>
</mgrwt>
</event>
<event>
 4    1  0.4043737E+006  0.6948517E+01  0.7546771E-02  0.2306215E+00
         21   -1    0    0  501  502  0.00000000000E+00  0.00000000000E+00  0.13340846651E+03  0.13340846651E+03  0.00000000000E+00 0.  1.
         21   -1    0    0  502  503 -0.00000000000E+00 -0.00000000000E+00 -0.38360784737E+00  0.38360784737E+00  0.00000000000E+00 0. -1.
          5    1    1    2  501    0  0.27788895285E+01 -0.42976345162E+01  0.82422152569E+02  0.82714527887E+02  0.47000000000E+01 0.  1.
         -5    1    1    2    0  503 -0.27788895285E+01  0.42976345162E+01  0.50602706097E+02  0.51077546474E+02  0.47000000000E+01 0.  1.
<mgrwt>
<rscale>  2 0.69485171E+01</rscale>
<asrwt>0</asrwt>
<pdfrwt beam="1">  1       21 0.20524343E-01 0.69485171E+01</pdfrwt>
<pdfrwt beam="2">  1       21 0.59016698E-04 0.69485171E+01</pdfrwt>
<totfact> 0.18920708E+09</totfact>
</mgrwt>
</event>
<event>
 4    1  0.4043737E+006  0.4840888E+01  0.7546771E-02  0.2596178E+00
         21   -1    0    0  501  502  0.00000000000E+00  0.00000000000E+00  0.38497293976E+00  0.38497293976E+00  0.00000000000E+00 0.  1.
         21   -1    0    0  502  503 -0.00000000000E+00 -0.00000000000E+00 -0.89493836048E+02  0.89493836048E+02  0.00000000000E+00 0.  1.
          5    1    1    2  501    0  0.10053715632E+01  0.57742795937E+00 -0.19140193890E+02  0.19742877632E+02  0.47000000000E+01 0.  1.
         -5    1    1    2    0  503 -0.10053715632E+01 -0.57742795937E+00 -0.69968669218E+02  0.70135931356E+02  0.47000000000E+01 0.  1.
<mgrwt>
<rscale>  2 0.48408878E+01</rscale>
<asrwt>0</asrwt>
<pdfrwt beam="1">  1       21 0.59226562E-04 0.48408878E+01</pdfrwt>
<pdfrwt beam="2">  1       21 0.13768293E-01 0.48408878E+01</pdfrwt>
<totfact> 0.26085667E+09</totfact>
</mgrwt>
</event>
<event>
 4    1  0.4043737E+006  0.1161800E+02  0.7546771E-02  0.1993130E+00
         21   -1    0    0  501  502  0.00000000000E+00  0.00000000000E+00  0.12985725653E+02  0.12985725653E+02  0.00000000000E+00 0. -1.
         21   -1    0    0  502  503 -0.00000000000E+00 -0.00000000000E+00 -0.20171800576E+02  0.20171800576E+02  0.00000000000E+00 0.  1.
          5    1    1    2  501    0  0.53949287927E+01 -0.91532826783E+01  0.79492844952E+01  0.14077249890E+02  0.47000000000E+01 0. -1.
         -5    1    1    2    0  503 -0.53949287927E+01  0.91532826783E+01 -0.15135359418E+02  0.19080276339E+02  0.47000000000E+01 0.  1.
<mgrwt>
<rscale>  2 0.11617996E+02</rscale>
<asrwt>0</asrwt>
<pdfrwt beam="1">  1       21 0.19978040E-02 0.11617996E+02</pdfrwt>
<pdfrwt beam="2">  1       21 0.31033539E-02 0.11617996E+02</pdfrwt>
<totfact> 0.34465342E+08</totfact>
</mgrwt>
</event>
<event>
 4    1  0.4043737E+006  0.5269777E+01  0.7546771E-02  0.2521411E+00
         21   -1    0    0  503  502  0.00000000000E+00  0.00000000000E+00  0.73365804404E+01  0.73365804404E+01  0.00000000000E+00 0.  1.
         21   -1    0    0  501  503 -0.00000000000E+00 -0.00000000000E+00 -0.52253732974E+01  0.52253732974E+01  0.00000000000E+00 0.  1.
          5    1    1    2  501    0  0.20370360036E+01  0.12373482320E+01 -0.22418098563E+01  0.57268017042E+01  0.47000000000E+01 0.  1.
         -5    1    1    2    0  502 -0.20370360036E+01 -0.12373482320E+01  0.43530169993E+01  0.68351520337E+01  0.47000000000E+01 0.  1.
<mgrwt>
<rscale>  2 0.52697767E+01</rscale>
<asrwt>0</asrwt>
<pdfrwt beam="1">  1       21 0.11287047E-02 0.52697767E+01</pdfrwt>
<pdfrwt beam="2">  1       21 0.80390358E-03 0.52697767E+01</pdfrwt>
<totfact> 0.32013982E+09</totfact>
</mgrwt>
</event>
<event>
 4    1  0.4043737E+006  0.7190865E+01  0.7546771E-02  0.2282171E+00
         21   -1    0    0  501  502  0.00000000000E+00  0.00000000000E+00  0.10357820022E+03  0.10357820022E+03  0.00000000000E+00 0.  1.
         21   -1    0    0  502  503 -0.00000000000E+00 -0.00000000000E+00 -0.71758321600E+00  0.71758321600E+00  0.00000000000E+00 0. -1.
          5    1    1    2  501    0  0.22867123296E+01  0.49385705738E+01  0.80196887299E+02  0.80518626820E+02  0.47000000000E+01 0.  1.
         -5    1    1    2    0  503 -0.22867123296E+01 -0.49385705738E+01  0.22663729709E+02  0.23777156619E+02  0.47000000000E+01 0. -1.
<mgrwt>
<rscale>  2 0.71908645E+01</rscale>
<asrwt>0</asrwt>
<pdfrwt beam="1">  1       21 0.15935096E-01 0.71908645E+01</pdfrwt>
<pdfrwt beam="2">  1       21 0.11039750E-03 0.71908645E+01</pdfrwt>
<totfact> 0.12524459E+09</totfact>
</mgrwt>
</event>
<event>
 4    1  0.4043737E+006  0.5476201E+01  0.7546771E-02  0.2489029E+00
         21   -1    0    0  503  502  0.00000000000E+00  0.00000000000E+00  0.45623187028E+03  0.45623187028E+03  0.00000000000E+00 0.  1.
         21   -1    0    0  501  503 -0.00000000000E+00 -0.00000000000E+00 -0.18390147554E+00  0.18390147554E+00  0.00000000000E+00 0.  1.
          5    1    1    2  501    0 -0.27792106031E+01  0.41805238204E+00  0.45091127230E+02  0.45422445270E+02  0.47000000000E+01 0.  1.
         -5    1    1    2    0  502  0.27792106031E+01 -0.41805238204E+00  0.41095684157E+03  0.41099332648E+03  0.47000000000E+01 0.  1.
<mgrwt>
<rscale>  2 0.54762012E+01</rscale>
<asrwt>0</asrwt>
<pdfrwt beam="1">  1       21 0.70188612E-01 0.54762012E+01</pdfrwt>
<pdfrwt beam="2">  1       21 0.28292900E-04 0.54762012E+01</pdfrwt>
<totfact> 0.49724938E+08</totfact>
</mgrwt>
</event>
<event>
 4    1  0.4043737E+006  0.8199230E+01  0.7546771E-02  0.2194765E+00
         21   -1    0    0  501  502  0.00000000000E+00  0.00000000000E+00  0.40422095077E+01  0.40422095077E+01  0.00000000000E+00 0. -1.
         21   -1    0    0  502  503 -0.00000000000E+00 -0.00000000000E+00 -0.17737906929E+02  0.17737906929E+02  0.00000000000E+00 0. -1.
          5    1    1    2  501    0  0.16126224380E+01  0.65220260481E+01 -0.41278595811E+01  0.91796840697E+01  0.47000000000E+01 0. -1.
         -5    1    1    2    0  503 -0.16126224380E+01 -0.65220260481E+01 -0.95678378405E+01  0.12600432367E+02  0.47000000000E+01 0. -1.
<mgrwt>
<rscale>  2 0.81992301E+01</rscale>
<asrwt>0</asrwt>
<pdfrwt beam="1">  1       21 0.62187839E-03 0.81992301E+01</pdfrwt>
<pdfrwt beam="2">  1       21 0.27289087E-02 0.81992301E+01</pdfrwt>
<totfact> 0.18585279E+09</totfact>
</mgrwt>
</event>
<event>
 4    1  0.4043737E+006  0.5429341E+01  0.7546771E-02  0.2496196E+00
         21   -1    0    0  503  502  0.00000000000E+00  0.00000000000E+00  0.41042099837E+00  0.41042099837E+00  0.00000000000E+00 0.  1.
         21   -1    0    0  501  503 -0.00000000000E+00 -0.00000000000E+00 -0.12303097479E+03  0.12303097479E+03  0.00000000000E+00 0.  1.
          5    1    1    2  501    0 -0.18299367856E+01 -0.20097451997E+01 -0.10112939157E+03  0.10127502942E+03  0.47000000000E+01 0.  1.
         -5    1    1    2    0  502  0.18299367856E+01  0.20097451997E+01 -0.21491162223E+02  0.22166366371E+02  0.47000000000E+01 0.  1.
<mgrwt>
<rscale>  2 0.54293411E+01</rscale>
<asrwt>0</asrwt>
<pdfrwt beam="1">  1       21 0.63141696E-04 0.54293411E+01</pdfrwt>
<pdfrwt beam="2">  1       21 0.18927841E-01 0.54293411E+01</pdfrwt>
<totfact> 0.16204712E+09</totfact>
</mgrwt>
</event>
<event>
 4    1  0.4043737E+006  0.7656802E+01  0.7546771E-02  0.2239466E+00
         21   -1    0    0  503  502  0.00000000000E+00  0.00000000000E+00  0.32401289730E+03  0.32401289730E+03  0.00000000000E+00 0.  1.
         21   -1    0    0  501  503 -0.00000000000E+00 -0.00000000000E+00 -0.11397490350E+01  0.11397490350E+01  0.00000000000E+00 0.  1.
          5    1    1    2  501    0 -0.60432720749E+01 -0.12441314363E+00  0.12322397884E+02  0.14507518934E+02  0.47000000000E+01 0.  1.
         -5    1    1    2    0  502  0.60432720749E+01  0.12441314363E+00  0.31055075038E+03  0.31064512740E+03  0.47000000000E+01 0.  1.
<mgrwt>
<rscale>  2 0.76568019E+01</rscale>
<asrwt>0</asrwt>
<pdfrwt beam="1">  1       21 0.49848065E-01 0.76568019E+01</pdfrwt>
<pdfrwt beam="2">  1       21 0.17534626E-03 0.76568019E+01</pdfrwt>
<totfact> 0.98880866E+07</totfact>
</mgrwt>
</event>
<event>
 4    1  0.4043737E+006  0.8213579E+01  0.7546771E-02  0.2193647E+00
         21   -1    0    0  501  502  0.00000000000E+00  0.00000000000E+00  0.22779566329E+02  0.22779566329E+02  0.00000000000E+00 0.  1.
         21   -1    0    0  502  503 -0.00000000000E+00 -0.00000000000E+00 -0.69867903408E+01  0.69867903408E+01  0.00000000000E+00 0.  1.
          5    1    1    2  501    0 -0.54720381569E+01  0.39280619508E+01  0.19193114785E+02  0.20876746093E+02  0.47000000000E+01 0.  1.
         -5    1    1    2    0  503  0.54720381569E+01 -0.39280619508E+01 -0.34003387966E+01  0.88896105771E+01  0.47000000000E+01 0.  1.
<mgrwt>
<rscale>  2 0.82135785E+01</rscale>
<asrwt>0</asrwt>
<pdfrwt beam="1">  1       21 0.35045486E-02 0.82135785E+01</pdfrwt>
<pdfrwt beam="2">  1       21 0.10748908E-02 0.82135785E+01</pdfrwt>
<totfact> 0.58690462E+08</totfact>
</mgrwt>
</event>
<event>
 4    1  0.4043737E+006  0.6123487E+01  0.7546771E-02  0.2399623E+00
         21   -1    0    0  503  502  0.00000000000E+00  0.00000000000E+00  0.71448571472E+01  0.71448571472E+01  0.00000000000E+00 0.  1.
         21   -1    0    0  501  503 -0.00000000000E+00 -0.00000000000E+00 -0.13273308395E+02  0.13273308395E+02  0.00000000000E+00 0. -1.
          5    1    1    2  501    0 -0.73235622676E-01 -0.39245037556E+01 -0.11002473468E+02  0.12591724092E+02  0.47000000000E+01 0. -1.
         -5    1    1    2    0  502  0.73235622676E-01  0.39245037556E+01  0.48740222199E+01  0.78264414509E+01  0.47000000000E+01 0.  1.
<mgrwt>
<rscale>  2 0.61234870E+01</rscale>
<asrwt>0</asrwt>
<pdfrwt beam="1">  1       21 0.10992088E-02 0.61234870E+01</pdfrwt>
<pdfrwt beam="2">  1       21 0.20420474E-02 0.61234870E+01</pdfrwt>
<totfact> 0.10160709E+09</totfact>
</mgrwt>
</event>
<event>
 4    1  0.4043737E+006  0.5001490E+01  0.7546771E-02  0.2566890E+00
         21   -1    0    0  503  502  0.00000000000E+00  0.00000000000E+00  0.66561676890E+02  0.66561676890E+02  0.00000000000E+00 0. -1.
         21   -1    0    0  501  503 -0.00000000000E+00 -0.00000000000E+00 -0.26327165601E+01  0.26327165601E+01  0.00000000000E+00 0. -1.
          5    1    1    2  501    0  0.41605146800E+00 -0.16588555124E+01 -0.68336812658E-01  0.50019566526E+01  0.47000000000E+01 0. -1.
         -5    1    1    2    0  502 -0.41605146800E+00  0.16588555124E+01  0.63997297143E+02  0.64192436798E+02  0.47000000000E+01 0. -1.
<mgrwt>
<rscale>  2 0.50014898E+01</rscale>
<asrwt>0</asrwt>
<pdfrwt beam="1">  1       21 0.10240257E-01 0.50014898E+01</pdfrwt>
<pdfrwt beam="2">  1       21 0.40503337E-03 0.50014898E+01</pdfrwt>
<totfact> 0.32157093E+08</totfact>
</mgrwt>
</event>
<event>
 4    1  0.4043737E+006  0.5254893E+01  0.7546771E-02  0.2523830E+00
         21   -1    0    0  503  502  0.00000000000E+00  0.00000000000E+00  0.13051513577E+02  0.13051513577E+02  0.00000000000E+00 0.  1.
         21   -1    0    0  501  503 -0.00000000000E+00 -0.00000000000E+00 -0.35563048477E+01  0.35563048477E+01  0.00000000000E+00 0.  1.
          5    1    1    2  501    0  0.62699044696E+00 -0.22651235709E+01 -0.53740948804E+00  0.52823016546E+01  0.47000000000E+01 0.  1.
         -5    1    1    2    0  502 -0.62699044696E+00  0.22651235709E+01  0.10032618217E+02  0.11325516770E+02  0.47000000000E+01 0.  1.
<mgrwt>
<rscale>  2 0.52548931E+01</rscale>
<asrwt>0</asrwt>
<pdfrwt beam="1">  1       21 0.20079251E-02 0.52548931E+01</pdfrwt>
<pdfrwt beam="2">  1       21 0.54712383E-03 0.52548931E+01</pdfrwt>
<totfact> 0.24117648E+09</totfact>
</mgrwt>
</event>
<event>
 4    1  0.4043737E+006  0.5152256E+01  0.7546771E-02  0.2540832E+00
         21   -1    0    0  501  502  0.00000000000E+00  0.00000000000E+00  0.48186394404E+00  0.48186394404E+00  0.00000000000E+00 0.  1.
         21   -1    0    0  502  503 -0.00000000000E+00 -0.00000000000E+00 -0.11845918931E+03  0.11845918931E+03  0.00000000000E+00 0.  1.
          5    1    1    2  501    0  0.12152155860E+01  0.17259746727E+01 -0.15491840567E+02  0.16326140439E+02  0.47000000000E+01 0.  1.
         -5    1    1    2    0  503 -0.12152155860E+01 -0.17259746727E+01 -0.10248548480E+03  0.10261491282E+03  0.47000000000E+01 0.  1.
<mgrwt>
<rscale>  2 0.51522556E+01</rscale>
<asrwt>0</asrwt>
<pdfrwt beam="1">  1       21 0.74132863E-04 0.51522556E+01</pdfrwt>
<pdfrwt beam="2">  1       21 0.18224503E-01 0.51522556E+01</pdfrwt>
<totfact> 0.13268745E+09</totfact>
</mgrwt>
</event>
<event>
 4    1  0.4043737E+006  0.7964341E+01  0.7546771E-02  0.2213519E+00
         21   -1    0    0  503  502  0.00000000000E+00  0.00000000000E+00  0.96644110378E+00  0.96644110378E+00  0.00000000000E+00 0. -1.
         21   -1    0    0  501  503 -0.00000000000E+00 -0.00000000000E+00 -0.74670364048E+02  0.74670364048E+02  0.00000000000E+00 0.  1.
          5    1    1    2  501    0  0.12632175161E+01 -0.63043644926E+01 -0.50008524380E+02  0.50638752362E+02  0.47000000000E+01 0.  1.
         -5    1    1    2    0  502 -0.12632175161E+01  0.63043644926E+01 -0.23695398565E+02  0.24998052790E+02  0.47000000000E+01 0. -1.
<mgrwt>
<rscale>  2 0.79643412E+01</rscale>
<asrwt>0</asrwt>
<pdfrwt beam="1">  1       21 0.14868324E-03 0.79643412E+01</pdfrwt>
<pdfrwt beam="2">  1       21 0.11487749E-01 0.79643412E+01</pdfrwt>
<totfact> 0.15064376E+09</totfact>
</mgrwt>
</event>
<event>
 4    1  0.4043737E+006  0.5017795E+01  0.7546771E-02  0.2564007E+00
         21   -1    0    0  501  502  0.00000000000E+00  0.00000000000E+00  0.45521776678E+00  0.45521776678E+00  0.00000000000E+00 0.  1.
         21   -1    0    0  502  503 -0.00000000000E+00 -0.00000000000E+00 -0.62929446577E+02  0.62929446577E+02  0.00000000000E+00 0.  1.
          5    1    1    2  501    0 -0.15475591393E+01  0.83266330412E+00 -0.20209587158E+02  0.20823200536E+02  0.47000000000E+01 0.  1.
         -5    1    1    2    0  503  0.15475591393E+01 -0.83266330412E+00 -0.42264641651E+02  0.42561463807E+02  0.47000000000E+01 0.  1.
<mgrwt>
<rscale>  2 0.50177951E+01</rscale>
<asrwt>0</asrwt>
<pdfrwt beam="1">  1       21 0.70033527E-04 0.50177951E+01</pdfrwt>
<pdfrwt beam="2">  1       21 0.96814499E-02 0.50177951E+01</pdfrwt>
<totfact> 0.37051431E+09</totfact>
</mgrwt>
</event>
<event>
 4    1  0.4043737E+006  0.5268761E+01  0.7546771E-02  0.2521576E+00
         21   -1    0    0  501  502  0.00000000000E+00  0.00000000000E+00  0.10732345488E+00  0.10732345488E+00  0.00000000000E+00 0. -1.
         21   -1    0    0  502  503 -0.00000000000E+00 -0.00000000000E+00 -0.27772331744E+03  0.27772331744E+03  0.00000000000E+00 0. -1.
          5    1    1    2  501    0 -0.10010002022E+01 -0.21605189453E+01 -0.10240894709E+03  0.10254439179E+03  0.47000000000E+01 0. -1.
         -5    1    1    2    0  503  0.10010002022E+01  0.21605189453E+01 -0.17520704689E+03  0.17528624910E+03  0.47000000000E+01 0. -1.
<mgrwt>
<rscale>  2 0.52687611E+01</rscale>
<asrwt>0</asrwt>
<pdfrwt beam="1">  1       21 0.16511500E-04 0.52687611E+01</pdfrwt>
<pdfrwt beam="2">  1       21 0.42726149E-01 0.52687611E+01</pdfrwt>
<totfact> 0.24238662E+09</totfact>
</mgrwt>
</event>
<event>
 4    1  0.4043737E+006  0.6006997E+01  0.7546771E-02  0.2414514E+00
         21   -1    0    0  501  502  0.00000000000E+00  0.00000000000E+00  0.32595911610E+01  0.32595911610E+01  0.00000000000E+00 0. -1.
         21   -1    0    0  502  503 -0.00000000000E+00 -0.00000000000E+00 -0.11649365875E+02  0.11649365875E+02  0.00000000000E+00 0.  1.
          5    1    1    2  501    0 -0.36584862066E+01 -0.78069897794E+00 -0.25326091746E+01  0.65190583254E+01  0.47000000000E+01 0. -1.
         -5    1    1    2    0  503  0.36584862066E+01  0.78069897794E+00 -0.58571655391E+01  0.83898987104E+01  0.47000000000E+01 0.  1.
<mgrwt>
<rscale>  2 0.60069969E+01</rscale>
<asrwt>0</asrwt>
<pdfrwt beam="1">  1       21 0.50147556E-03 0.60069969E+01</pdfrwt>
<pdfrwt beam="2">  1       21 0.17922102E-02 0.60069969E+01</pdfrwt>
<totfact> 0.36238273E+09</totfact>
</mgrwt>
</event>
<event>
 4    1  0.4043737E+006  0.6312929E+01  0.7546771E-02  0.2376392E+00
         21   -1    0    0  503  502  0.00000000000E+00  0.00000000000E+00  0.28546021782E+01  0.28546021782E+01  0.00000000000E+00 0. -1.
         21   -1    0    0  501  503 -0.00000000000E+00 -0.00000000000E+00 -0.28469954280E+02  0.28469954280E+02  0.00000000000E+00 0.  1.
          5    1    1    2  501    0 -0.20881436130E+01  0.36609732750E+01 -0.23988653546E+02  0.24805414086E+02  0.47000000000E+01 0.  1.
         -5    1    1    2    0  502  0.20881436130E+01 -0.36609732750E+01 -0.16266985561E+01  0.65191423716E+01  0.47000000000E+01 0. -1.
<mgrwt>
<rscale>  2 0.63129287E+01</rscale>
<asrwt>0</asrwt>
<pdfrwt beam="1">  1       21 0.43916956E-03 0.63129287E+01</pdfrwt>
<pdfrwt beam="2">  1       21 0.43799930E-02 0.63129287E+01</pdfrwt>
<totfact> 0.12394250E+09</totfact>
</mgrwt>
</event>
<event>
 4    1  0.4043737E+006  0.6436524E+01  0.7546771E-02  0.2361851E+00
         21   -1    0    0  501  502  0.00000000000E+00  0.00000000000E+00  0.93675133418E+00  0.93675133418E+00  0.00000000000E+00 0. -1.
         21   -1    0    0  502  503 -0.00000000000E+00 -0.00000000000E+00 -0.59234861422E+02  0.59234861422E+02  0.00000000000E+00 0. -1.
          5    1    1    2  501    0 -0.41627351356E+01 -0.14179152825E+01 -0.14004882155E+02  0.15413162289E+02  0.47000000000E+01 0. -1.
         -5    1    1    2    0  503  0.41627351356E+01  0.14179152825E+01 -0.44293227932E+02  0.44758450467E+02  0.47000000000E+01 0. -1.
<mgrwt>
<rscale>  2 0.64365245E+01</rscale>
<asrwt>0</asrwt>
<pdfrwt beam="1">  1       21 0.14411565E-03 0.64365245E+01</pdfrwt>
<pdfrwt beam="2">  1       21 0.91130518E-02 0.64365245E+01</pdfrwt>
<totfact> 0.19292602E+09</totfact>
</mgrwt>
</event>
<event>
 4    1  0.4043737E+006  0.4709348E+01  0.7546771E-02  0.2621451E+00
         21   -1    0    0  501  502  0.00000000000E+00  0.00000000000E+00  0.29897888698E+02  0.29897888698E+02  0.00000000000E+00 0.  1.
         21   -1    0    0  502  503 -0.00000000000E+00 -0.00000000000E+00 -0.11597585008E+02  0.11597585008E+02  0.00000000000E+00 0.  1.
          5    1    1    2  501    0  0.29657240941E+00  0.17829378282E-02  0.29223405079E+02  0.29600428422E+02  0.47000000000E+01 0.  1.
         -5    1    1    2    0  503 -0.29657240941E+00 -0.17829378282E-02 -0.10923101389E+02  0.11895045285E+02  0.47000000000E+01 0.  1.
<mgrwt>
<rscale>  2 0.47093480E+01</rscale>
<asrwt>0</asrwt>
<pdfrwt beam="1">  1       21 0.45996751E-02 0.47093480E+01</pdfrwt>
<pdfrwt beam="2">  1       21 0.17842439E-02 0.47093480E+01</pdfrwt>
<totfact> 0.12784558E+08</totfact>
</mgrwt>
</event>
<event>
 4    1  0.4043737E+006  0.1129921E+02  0.7546771E-02  0.2007807E+00
         21   -1    0    0  503  502  0.00000000000E+00  0.00000000000E+00  0.82736034399E+01  0.82736034399E+01  0.00000000000E+00 0.  1.
         21   -1    0    0  501  503 -0.00000000000E+00 -0.00000000000E+00 -0.16873804841E+02  0.16873804841E+02  0.00000000000E+00 0. -1.
          5    1    1    2  501    0  0.75951371170E+01  0.69207006938E+01 -0.79764767647E+01  0.13830993728E+02  0.47000000000E+01 0. -1.
         -5    1    1    2    0  502 -0.75951371170E+01 -0.69207006938E+01 -0.62372463657E+00  0.11316414553E+02  0.47000000000E+01 0.  1.
<mgrwt>
<rscale>  2 0.11299213E+02</rscale>
<asrwt>0</asrwt>
<pdfrwt beam="1">  1       21 0.12728621E-02 0.11299213E+02</pdfrwt>
<pdfrwt beam="2">  1       21 0.25959700E-02 0.11299213E+02</pdfrwt>
<totfact> 0.86627208E+08</totfact>
</mgrwt>
</event>
<event>
 4    1  0.4043737E+006  0.1914630E+02  0.7546771E-02  0.1762858E+00
         21   -1    0    0  501  502  0.00000000000E+00  0.00000000000E+00  0.24968891781E+02  0.24968891781E+02  0.00000000000E+00 0.  1.
         21   -1    0    0  502  503 -0.00000000000E+00 -0.00000000000E+00 -0.14769771647E+02  0.14769771647E+02  0.00000000000E+00 0. -1.
          5    1    1    2  501    0  0.18636120399E+00  0.18559532500E+02  0.66355487824E+01  0.20263550646E+02  0.47000000000E+01 0.  1.
         -5    1    1    2    0  503 -0.18636120399E+00 -0.18559532500E+02  0.35635713517E+01  0.19475112783E+02  0.47000000000E+01 0. -1.
<mgrwt>
<rscale>  2 0.19146305E+02</rscale>
<asrwt>0</asrwt>
<pdfrwt beam="1">  1       21 0.38413680E-02 0.19146305E+02</pdfrwt>
<pdfrwt beam="2">  1       21 0.22722726E-02 0.19146305E+02</pdfrwt>
<totfact> 0.25141294E+08</totfact>
</mgrwt>
</event>
<event>
 4    1  0.4043737E+006  0.5161214E+01  0.7546771E-02  0.2539325E+00
         21   -1    0    0  503  502  0.00000000000E+00  0.00000000000E+00  0.14473601671E+01  0.14473601671E+01  0.00000000000E+00 0.  1.
         21   -1    0    0  501  503 -0.00000000000E+00 -0.00000000000E+00 -0.26486514954E+02  0.26486514954E+02  0.00000000000E+00 0.  1.
          5    1    1    2  501    0  0.14216825038E+01  0.15896372174E+01 -0.20234740785E+02  0.20882597114E+02  0.47000000000E+01 0.  1.
         -5    1    1    2    0  502 -0.14216825038E+01 -0.15896372174E+01 -0.48044140029E+01  0.70512780073E+01  0.47000000000E+01 0.  1.
<mgrwt>
<rscale>  2 0.51612138E+01</rscale>
<asrwt>0</asrwt>
<pdfrwt beam="1">  1       21 0.22267079E-03 0.51612138E+01</pdfrwt>
<pdfrwt beam="2">  1       21 0.40748485E-02 0.51612138E+01</pdfrwt>
<totfact> 0.29245099E+09</totfact>
</mgrwt>
</event>
<event>
 4    1  0.4043737E+006  0.5490130E+01  0.7546771E-02  0.2486919E+00
         21   -1    0    0  503  502  0.00000000000E+00  0.00000000000E+00  0.19749619181E+02  0.19749619181E+02  0.00000000000E+00 0.  1.
         21   -1    0    0  501  503 -0.00000000000E+00 -0.00000000000E+00 -0.15615771261E+01  0.15615771261E+01  0.00000000000E+00 0.  1.
          5    1    1    2  501    0  0.26008885334E+01  0.11344191471E+01  0.74898033717E+01  0.92864784774E+01  0.47000000000E+01 0.  1.
         -5    1    1    2    0  502 -0.26008885334E+01 -0.11344191471E+01  0.10698238684E+02  0.12024717830E+02  0.47000000000E+01 0.  1.
<mgrwt>
<rscale>  2 0.54901300E+01</rscale>
<asrwt>0</asrwt>
<pdfrwt beam="1">  1       21 0.30384028E-02 0.54901300E+01</pdfrwt>
<pdfrwt beam="2">  1       21 0.24024265E-03 0.54901300E+01</pdfrwt>
<totfact> 0.42907653E+09</totfact>
</mgrwt>
</event>
<event>
 4    1  0.4043737E+006  0.6012614E+01  0.7546771E-02  0.2413785E+00
         21   -1    0    0  503  502  0.00000000000E+00  0.00000000000E+00  0.15510648153E+01  0.15510648153E+01  0.00000000000E+00 0. -1.
         21   -1    0    0  501  503 -0.00000000000E+00 -0.00000000000E+00 -0.24759614300E+02  0.24759614300E+02  0.00000000000E+00 0. -1.
          5    1    1    2  501    0 -0.18004451397E+01  0.32893658401E+01 -0.14790101265E+02  0.15965544957E+02  0.47000000000E+01 0. -1.
         -5    1    1    2    0  502  0.18004451397E+01 -0.32893658401E+01 -0.84184482191E+01  0.10345134158E+02  0.47000000000E+01 0. -1.
<mgrwt>
<rscale>  2 0.60126143E+01</rscale>
<asrwt>0</asrwt>
<pdfrwt beam="1">  1       21 0.23862536E-03 0.60126143E+01</pdfrwt>
<pdfrwt beam="2">  1       21 0.38091713E-02 0.60126143E+01</pdfrwt>
<totfact> 0.33863708E+09</totfact>
</mgrwt>
</event>
<event>
 4    1  0.4043737E+006  0.6696809E+01  0.7546771E-02  0.2332690E+00
         21   -1    0    0  501  502  0.00000000000E+00  0.00000000000E+00  0.22882058627E+00  0.22882058627E+00  0.00000000000E+00 0. -1.
         21   -1    0    0  502  503 -0.00000000000E+00 -0.00000000000E+00 -0.33738779505E+03  0.33738779505E+03  0.00000000000E+00 0. -1.
          5    1    1    2  501    0 -0.43051793322E+01 -0.20549173794E+01 -0.59298225539E+02  0.59675177475E+02  0.47000000000E+01 0. -1.
         -5    1    1    2    0  503  0.43051793322E+01  0.20549173794E+01 -0.27786074892E+03  0.27794143816E+03  0.47000000000E+01 0. -1.
<mgrwt>
<rscale>  2 0.66968093E+01</rscale>
<asrwt>0</asrwt>
<pdfrwt beam="1">  1       21 0.35203001E-04 0.66968093E+01</pdfrwt>
<pdfrwt beam="2">  1       21 0.51906060E-01 0.66968093E+01</pdfrwt>
<totfact> 0.74783457E+08</totfact>
</mgrwt>
</event>
<event>
 4    1  0.4043737E+006  0.6935642E+01  0.7546771E-02  0.2307531E+00
         21   -1    0    0  501  502  0.00000000000E+00  0.00000000000E+00  0.67946474189E+00  0.67946474189E+00  0.00000000000E+00 0. -1.
         21   -1    0    0  502  503 -0.00000000000E+00 -0.00000000000E+00 -0.14411501261E+03  0.14411501261E+03  0.00000000000E+00 0.  1.
          5    1    1    2  501    0  0.44569434252E+01 -0.24796755564E+01 -0.20078897435E+02  0.21243004914E+02  0.47000000000E+01 0. -1.
         -5    1    1    2    0  503 -0.44569434252E+01  0.24796755564E+01 -0.12335665043E+03  0.12355147243E+03  0.47000000000E+01 0.  1.
<mgrwt>
<rscale>  2 0.69356424E+01</rscale>
<asrwt>0</asrwt>
<pdfrwt beam="1">  1       21 0.10453299E-03 0.69356424E+01</pdfrwt>
<pdfrwt beam="2">  1       21 0.22171549E-01 0.69356424E+01</pdfrwt>
<totfact> 0.76881949E+08</totfact>
</mgrwt>
</event>
<event>
 4    1  0.4043737E+006  0.6257655E+01  0.7546771E-02  0.2383049E+00
         21   -1    0    0  503  502  0.00000000000E+00  0.00000000000E+00  0.52380052260E+00  0.52380052260E+00  0.00000000000E+00 0. -1.
         21   -1    0    0  501  503 -0.00000000000E+00 -0.00000000000E+00 -0.74984636182E+02  0.74984636182E+02  0.00000000000E+00 0. -1.
          5    1    1    2  501    0  0.63228695648E+00  0.40827023267E+01 -0.39306319837E+02  0.39801319377E+02  0.47000000000E+01 0. -1.
         -5    1    1    2    0  502 -0.63228695648E+00 -0.40827023267E+01 -0.35154515823E+02  0.35707117327E+02  0.47000000000E+01 0. -1.
<mgrwt>
<rscale>  2 0.62576549E+01</rscale>
<asrwt>0</asrwt>
<pdfrwt beam="1">  1       21 0.80584725E-04 0.62576549E+01</pdfrwt>
<pdfrwt beam="2">  1       21 0.11536094E-01 0.62576549E+01</pdfrwt>
<totfact> 0.28715898E+09</totfact>
</mgrwt>
</event>
<event>
 4    1  0.4043737E+006  0.7853176E+01  0.7546771E-02  0.2222708E+00
         21   -1    0    0  501  502  0.00000000000E+00  0.00000000000E+00  0.16440494718E+02  0.16440494718E+02  0.00000000000E+00 0. -1.
         21   -1    0    0  502  503 -0.00000000000E+00 -0.00000000000E+00 -0.57340852868E+01  0.57340852868E+01  0.00000000000E+00 0.  1.
          5    1    1    2  501    0 -0.62796546669E+01 -0.38511002275E+00  0.11873043766E+02  0.14235221836E+02  0.47000000000E+01 0. -1.
         -5    1    1    2    0  503  0.62796546669E+01  0.38511002275E+00 -0.11666343340E+01  0.79393581690E+01  0.47000000000E+01 0.  1.
<mgrwt>
<rscale>  2 0.78531759E+01</rscale>
<asrwt>0</asrwt>
<pdfrwt beam="1">  1       21 0.25293069E-02 0.78531759E+01</pdfrwt>
<pdfrwt beam="2">  1       21 0.88216697E-03 0.78531759E+01</pdfrwt>
<totfact> 0.12265183E+09</totfact>
</mgrwt>
</event>
<event>
 4    1  0.4043737E+006  0.4963944E+01  0.7546771E-02  0.2573590E+00
         21   -1    0    0  501  502  0.00000000000E+00  0.00000000000E+00  0.10450460782E+02  0.10450460782E+02  0.00000000000E+00 0. -1.
         21   -1    0    0  502  503 -0.00000000000E+00 -0.00000000000E+00 -0.23824012806E+01  0.23824012806E+01  0.00000000000E+00 0. -1.
          5    1    1    2  501    0 -0.97443464663E+00 -0.12653904737E+01  0.46852443434E+01  0.68258516310E+01  0.47000000000E+01 0. -1.
         -5    1    1    2    0  503  0.97443464663E+00  0.12653904737E+01  0.33828151580E+01  0.60070104316E+01  0.47000000000E+01 0. -1.
<mgrwt>
<rscale>  2 0.49639436E+01</rscale>
<asrwt>0</asrwt>
<pdfrwt beam="1">  1       21 0.16077632E-02 0.49639436E+01</pdfrwt>
<pdfrwt beam="2">  1       21 0.36652328E-03 0.49639436E+01</pdfrwt>
<totfact> 0.53989910E+09</totfact>
</mgrwt>
</event>
<event>
 4    1  0.4043737E+006  0.6045832E+01  0.7546771E-02  0.2409496E+00
         21   -1    0    0  503  502  0.00000000000E+00  0.00000000000E+00  0.87653516880E+02  0.87653516880E+02  0.00000000000E+00 0. -1.
         21   -1    0    0  501  503 -0.00000000000E+00 -0.00000000000E+00 -0.43416688662E+01  0.43416688662E+01  0.00000000000E+00 0.  1.
          5    1    1    2  501    0  0.29290090531E+01  0.24254870129E+01 -0.20769390209E+01  0.63926330240E+01  0.47000000000E+01 0.  1.
         -5    1    1    2    0  502 -0.29290090531E+01 -0.24254870129E+01  0.85388787035E+02  0.85602552722E+02  0.47000000000E+01 0. -1.
<mgrwt>
<rscale>  2 0.60458317E+01</rscale>
<asrwt>0</asrwt>
<pdfrwt beam="1">  1       21 0.13485155E-01 0.60458317E+01</pdfrwt>
<pdfrwt beam="2">  1       21 0.66794912E-03 0.60458317E+01</pdfrwt>
<totfact> 0.12138634E+08</totfact>
</mgrwt>
</event>
<event>
 4    1  0.4043737E+006  0.6477648E+01  0.7546771E-02  0.2357115E+00
         21   -1    0    0  503  502  0.00000000000E+00  0.00000000000E+00  0.30308767041E+01  0.30308767041E+01  0.00000000000E+00 0. -1.
         21   -1    0    0  501  503 -0.00000000000E+00 -0.00000000000E+00 -0.11226272479E+03  0.11226272479E+03  0.00000000000E+00 0. -1.
          5    1    1    2  501    0 -0.31320041671E+01  0.31718256429E+01 -0.10859133337E+03  0.10878436289E+03  0.47000000000E+01 0. -1.
         -5    1    1    2    0  502  0.31320041671E+01 -0.31718256429E+01 -0.64051471670E+00  0.65092385971E+01  0.47000000000E+01 0. -1.
<mgrwt>
<rscale>  2 0.64776483E+01</rscale>
<asrwt>0</asrwt>
<pdfrwt beam="1">  1       21 0.46628877E-03 0.64776483E+01</pdfrwt>
<pdfrwt beam="2">  1       21 0.17271187E-01 0.64776483E+01</pdfrwt>
<totfact> 0.14163484E+08</totfact>
</mgrwt>
</event>
<event>
 4    1  0.4043737E+006  0.1433469E+02  0.7546771E-02  0.1889077E+00
         21   -1    0    0  503  502  0.00000000000E+00  0.00000000000E+00  0.77458369539E+02  0.77458369539E+02  0.00000000000E+00 0.  1.
         21   -1    0    0  501  503 -0.00000000000E+00 -0.00000000000E+00 -0.52368495757E+01  0.52368495757E+01  0.00000000000E+00 0. -1.
          5    1    1    2  501    0  0.28806658360E+01  0.13232345772E+02  0.70662542491E+01  0.15981713281E+02  0.47000000000E+01 0. -1.
         -5    1    1    2    0  502 -0.28806658360E+01 -0.13232345772E+02  0.65155265714E+02  0.66713505833E+02  0.47000000000E+01 0.  1.
<mgrwt>
<rscale>  2 0.14334686E+02</rscale>
<asrwt>0</asrwt>
<pdfrwt beam="1">  1       21 0.11916671E-01 0.14334686E+02</pdfrwt>
<pdfrwt beam="2">  1       21 0.80566922E-03 0.14334686E+02</pdfrwt>
<totfact> 0.17507266E+08</totfact>
</mgrwt>
</event>
<event>
 4    1  0.4043737E+006  0.5936548E+01  0.7546771E-02  0.2423756E+00
         21   -1    0    0  503  502  0.00000000000E+00  0.00000000000E+00  0.15160576706E+02  0.15160576706E+02  0.00000000000E+00 0. -1.
         21   -1    0    0  501  503 -0.00000000000E+00 -0.00000000000E+00 -0.23285408741E+01  0.23285408741E+01  0.00000000000E+00 0.  1.
          5    1    1    2  501    0  0.10761513918E+01 -0.34633084536E+01  0.60572718460E+01  0.84813412547E+01  0.47000000000E+01 0. -1.
         -5    1    1    2    0  502 -0.10761513918E+01  0.34633084536E+01  0.67747639857E+01  0.90077763252E+01  0.47000000000E+01 0.  1.
<mgrwt>
<rscale>  2 0.59365484E+01</rscale>
<asrwt>0</asrwt>
<pdfrwt beam="1">  1       21 0.23323964E-02 0.59365484E+01</pdfrwt>
<pdfrwt beam="2">  1       21 0.35823707E-03 0.59365484E+01</pdfrwt>
<totfact> 0.39110392E+09</totfact>
</mgrwt>
</event>
<event>
 4    1  0.4043737E+006  0.5460976E+01  0.7546771E-02  0.2491346E+00
         21   -1    0    0  501  502  0.00000000000E+00  0.00000000000E+00  0.33783278443E+02  0.33783278443E+02  0.00000000000E+00 0.  1.
         21   -1    0    0  502  503 -0.00000000000E+00 -0.00000000000E+00 -0.20981983957E+01  0.20981983957E+01  0.00000000000E+00 0.  1.
          5    1    1    2  501    0  0.25363220044E+01  0.11398832539E+01  0.29497326374E+02  0.29998575405E+02  0.47000000000E+01 0.  1.
         -5    1    1    2    0  503 -0.25363220044E+01 -0.11398832539E+01  0.21877536738E+01  0.58829014338E+01  0.47000000000E+01 0.  1.
<mgrwt>
<rscale>  2 0.54609764E+01</rscale>
<asrwt>0</asrwt>
<pdfrwt beam="1">  1       21 0.51974270E-02 0.54609764E+01</pdfrwt>
<pdfrwt beam="2">  1       21 0.32279978E-03 0.54609764E+01</pdfrwt>
<totfact> 0.13040948E+09</totfact>
</mgrwt>
</event>
<event>
 4    1  0.4043737E+006  0.6234826E+01  0.7546771E-02  0.2385827E+00
         21   -1    0    0  503  502  0.00000000000E+00  0.00000000000E+00  0.11943045293E+02  0.11943045293E+02  0.00000000000E+00 0.  1.
         21   -1    0    0  501  503 -0.00000000000E+00 -0.00000000000E+00 -0.22763779775E+02  0.22763779775E+02  0.00000000000E+00 0. -1.
          5    1    1    2  501    0  0.47641771056E+00  0.40689171205E+01 -0.21475310762E+02  0.22362066825E+02  0.47000000000E+01 0. -1.
         -5    1    1    2    0  502 -0.47641771056E+00 -0.40689171205E+01  0.10654576280E+02  0.12344758243E+02  0.47000000000E+01 0.  1.
<mgrwt>
<rscale>  2 0.62348264E+01</rscale>
<asrwt>0</asrwt>
<pdfrwt beam="1">  1       21 0.18373916E-02 0.62348264E+01</pdfrwt>
<pdfrwt beam="2">  1       21 0.35021199E-02 0.62348264E+01</pdfrwt>
<totfact> 0.22625124E+08</totfact>
</mgrwt>
</event>
<event>
 4    1  0.4043737E+006  0.7904678E+01  0.7546771E-02  0.2218425E+00
         21   -1    0    0  503  502  0.00000000000E+00  0.00000000000E+00  0.79732738398E+01  0.79732738398E+01  0.00000000000E+00 0.  1.
         21   -1    0    0  501  503 -0.00000000000E+00 -0.00000000000E+00 -0.20765345953E+03  0.20765345953E+03  0.00000000000E+00 0.  1.
          5    1    1    2  501    0  0.39474856763E+01  0.49810935323E+01 -0.20559950012E+03  0.20575139948E+03  0.47000000000E+01 0.  1.
         -5    1    1    2    0  502 -0.39474856763E+01 -0.49810935323E+01  0.59193144391E+01  0.98753338865E+01  0.47000000000E+01 0.  1.
<mgrwt>
<rscale>  2 0.79046781E+01</rscale>
<asrwt>0</asrwt>
<pdfrwt beam="1">  1       21 0.12266577E-02 0.79046781E+01</pdfrwt>
<pdfrwt beam="2">  1       21 0.31946681E-01 0.79046781E+01</pdfrwt>
<totfact> 0.14330008E+07</totfact>
</mgrwt>
</event>
<event>
 4    1  0.4043737E+006  0.6077872E+01  0.7546771E-02  0.2405397E+00
         21   -1    0    0  501  502  0.00000000000E+00  0.00000000000E+00  0.10689401715E+00  0.10689401715E+00  0.00000000000E+00 0. -1.
         21   -1    0    0  502  503 -0.00000000000E+00 -0.00000000000E+00 -0.34805406684E+03  0.34805406684E+03  0.00000000000E+00 0. -1.
          5    1    1    2  501    0  0.20081257913E+01  0.32890672590E+01 -0.15929947523E+03  0.15941537988E+03  0.47000000000E+01 0. -1.
         -5    1    1    2    0  503 -0.20081257913E+01 -0.32890672590E+01 -0.18864769759E+03  0.18874558097E+03  0.47000000000E+01 0. -1.
<mgrwt>
<rscale>  2 0.60778724E+01</rscale>
<asrwt>0</asrwt>
<pdfrwt beam="1">  1       21 0.16445333E-04 0.60778724E+01</pdfrwt>
<pdfrwt beam="2">  1       21 0.53546455E-01 0.60778724E+01</pdfrwt>
<totfact> 0.18266362E+09</totfact>
</mgrwt>
</event>
<event>
 4    1  0.4043737E+006  0.7293345E+01  0.7546771E-02  0.2272398E+00
         21   -1    0    0  503  502  0.00000000000E+00  0.00000000000E+00  0.30654566542E+01  0.30654566542E+01  0.00000000000E+00 0. -1.
         21   -1    0    0  501  503 -0.00000000000E+00 -0.00000000000E+00 -0.17389891313E+02  0.17389891313E+02  0.00000000000E+00 0. -1.
          5    1    1    2  501    0  0.54887255052E+01 -0.98831593267E+00 -0.76374261850E+01  0.10560452395E+02  0.47000000000E+01 0. -1.
         -5    1    1    2    0  502 -0.54887255052E+01  0.98831593267E+00 -0.66870084733E+01  0.98948955718E+01  0.47000000000E+01 0. -1.
<mgrwt>
<rscale>  2 0.72933446E+01</rscale>
<asrwt>0</asrwt>
<pdfrwt beam="1">  1       21 0.47160871E-03 0.72933446E+01</pdfrwt>
<pdfrwt beam="2">  1       21 0.26753679E-02 0.72933446E+01</pdfrwt>
<totfact> 0.25952717E+09</totfact>
</mgrwt>
</event>
<event>
 4    1  0.4043737E+006  0.5278619E+01  0.7546771E-02  0.2519980E+00
         21   -1    0    0  501  502  0.00000000000E+00  0.00000000000E+00  0.58430851338E+01  0.58430851338E+01  0.00000000000E+00 0. -1.
         21   -1    0    0  502  503 -0.00000000000E+00 -0.00000000000E+00 -0.89167654214E+01  0.89167654214E+01  0.00000000000E+00 0. -1.
          5    1    1    2  501    0 -0.87427350511E+00  0.22381831677E+01  0.34966822660E+01  0.63317142168E+01  0.47000000000E+01 0. -1.
         -5    1    1    2    0  503  0.87427350511E+00 -0.22381831677E+01 -0.65703625536E+01  0.84281363385E+01  0.47000000000E+01 0. -1.
<mgrwt>
<rscale>  2 0.52786190E+01</rscale>
<asrwt>0</asrwt>
<pdfrwt beam="1">  1       21 0.89893617E-03 0.52786190E+01</pdfrwt>
<pdfrwt beam="2">  1       21 0.13718101E-02 0.52786190E+01</pdfrwt>
<totfact> 0.20856425E+09</totfact>
</mgrwt>
</event>
<event>
 4    1  0.4043737E+006  0.6526101E+01  0.7546771E-02  0.2351598E+00
         21   -1    0    0  501  502  0.00000000000E+00  0.00000000000E+00  0.10470255498E+03  0.10470255498E+03  0.00000000000E+00 0. -1.
         21   -1    0    0  502  503 -0.00000000000E+00 -0.00000000000E+00 -0.40677611496E+00  0.40677611496E+00  0.00000000000E+00 0.  1.
          5    1    1    2  501    0 -0.15359792369E+01  0.42591970234E+01  0.52329222579E+02  0.52734595165E+02  0.47000000000E+01 0. -1.
         -5    1    1    2    0  503  0.15359792369E+01 -0.42591970234E+01  0.51966556290E+02  0.52374735934E+02  0.47000000000E+01 0. -1.
<mgrwt>
<rscale>  2 0.65261008E+01</rscale>
<asrwt>0</asrwt>
<pdfrwt beam="1">  1       21 0.16108064E-01 0.65261008E+01</pdfrwt>
<pdfrwt beam="2">  1       21 0.62581024E-04 0.65261008E+01</pdfrwt>
<totfact> 0.24672196E+09</totfact>
</mgrwt>
</event>
<event>
 4    1  0.4043737E+006  0.5549169E+01  0.7546771E-02  0.2478074E+00
         21   -1    0    0  501  502  0.00000000000E+00  0.00000000000E+00  0.63737136344E+00  0.63737136344E+00  0.00000000000E+00 0. -1.
         21   -1    0    0  502  503 -0.00000000000E+00 -0.00000000000E+00 -0.49411164690E+02  0.49411164690E+02  0.00000000000E+00 0.  1.
          5    1    1    2  501    0 -0.13777360787E+01  0.26086620803E+01 -0.20656134991E+02  0.21388529339E+02  0.47000000000E+01 0.  1.
         -5    1    1    2    0  503  0.13777360787E+01 -0.26086620803E+01 -0.28117658336E+02  0.28660006714E+02  0.47000000000E+01 0. -1.
<mgrwt>
<rscale>  2 0.55491688E+01</rscale>
<asrwt>0</asrwt>
<pdfrwt beam="1">  1       21 0.98057086E-04 0.55491688E+01</pdfrwt>
<pdfrwt beam="2">  1       21 0.76017213E-02 0.55491688E+01</pdfrwt>
<totfact> 0.37575972E+09</totfact>
</mgrwt>
</event>
<event>
 4    1  0.4043737E+006  0.5376946E+01  0.7546771E-02  0.2504335E+00
         21   -1    0    0  503  502  0.00000000000E+00  0.00000000000E+00  0.17334886992E+02  0.17334886992E+02  0.00000000000E+00 0. -1.
         21   -1    0    0  501  503 -0.00000000000E+00 -0.00000000000E+00 -0.27134754294E+01  0.27134754294E+01  0.00000000000E+00 0.  1.
          5    1    1    2  501    0 -0.88240400920E-01 -0.26103185963E+01  0.10879992114E+01  0.54859175920E+01  0.47000000000E+01 0.  1.
         -5    1    1    2    0  502  0.88240400920E-01  0.26103185963E+01  0.13533412351E+02  0.14562444829E+02  0.47000000000E+01 0. -1.
<mgrwt>
<rscale>  2 0.53769461E+01</rscale>
<asrwt>0</asrwt>
<pdfrwt beam="1">  1       21 0.26669056E-02 0.53769461E+01</pdfrwt>
<pdfrwt beam="2">  1       21 0.41745777E-03 0.53769461E+01</pdfrwt>
<totfact> 0.23855130E+09</totfact>
</mgrwt>
</event>
<event>
 4    1  0.4043737E+006  0.5827030E+01  0.7546771E-02  0.2438494E+00
         21   -1    0    0  503  502  0.00000000000E+00  0.00000000000E+00  0.12282805450E+02  0.12282805450E+02  0.00000000000E+00 0.  1.
         21   -1    0    0  501  503 -0.00000000000E+00 -0.00000000000E+00 -0.28617587576E+01  0.28617587576E+01  0.00000000000E+00 0.  1.
          5    1    1    2  501    0  0.61294855225E+00 -0.33894799374E+01  0.33136611486E+01  0.67033297980E+01  0.47000000000E+01 0.  1.
         -5    1    1    2    0  502 -0.61294855225E+00  0.33894799374E+01  0.61073855435E+01  0.84412344091E+01  0.47000000000E+01 0.  1.
<mgrwt>
<rscale>  2 0.58270301E+01</rscale>
<asrwt>0</asrwt>
<pdfrwt beam="1">  1       21 0.18896623E-02 0.58270301E+01</pdfrwt>
<pdfrwt beam="2">  1       21 0.44027059E-03 0.58270301E+01</pdfrwt>
<totfact> 0.39139155E+09</totfact>
</mgrwt>
</event>
<event>
 4    1  0.4043737E+006  0.7939429E+01  0.7546771E-02  0.2215560E+00
         21   -1    0    0  503  502  0.00000000000E+00  0.00000000000E+00  0.56780844205E-01  0.56780844205E-01  0.00000000000E+00 0. -1.
         21   -1    0    0  501  503 -0.00000000000E+00 -0.00000000000E+00 -0.15451356853E+04  0.15451356853E+04  0.00000000000E+00 0.  1.
          5    1    1    2  501    0  0.53382560796E+01  0.35281088403E+01 -0.11824726825E+04  0.11824993359E+04  0.47000000000E+01 0.  1.
         -5    1    1    2    0  502 -0.53382560796E+01 -0.35281088403E+01 -0.36260622197E+03  0.36269313027E+03  0.47000000000E+01 0. -1.
<mgrwt>
<rscale>  2 0.79394288E+01</rscale>
<asrwt>0</asrwt>
<pdfrwt beam="1">  1       21 0.87366418E-05 0.79394288E+01</pdfrwt>
<pdfrwt beam="2">  1       21 0.23768251E+00 0.79394288E+01</pdfrwt>
<totfact> 0.22160119E+08</totfact>
</mgrwt>
</event>
<event>
 4    1  0.4043737E+006  0.7856319E+01  0.7546771E-02  0.2222446E+00
         21   -1    0    0  503  502  0.00000000000E+00  0.00000000000E+00  0.34989810832E+02  0.34989810832E+02  0.00000000000E+00 0.  1.
         21   -1    0    0  501  503 -0.00000000000E+00 -0.00000000000E+00 -0.33007573184E+01  0.33007573184E+01  0.00000000000E+00 0.  1.
          5    1    1    2  501    0  0.55459359920E+01 -0.29789835771E+01  0.27810498627E+01  0.83340258890E+01  0.47000000000E+01 0.  1.
         -5    1    1    2    0  502 -0.55459359920E+01  0.29789835771E+01  0.28908003651E+02  0.29956542261E+02  0.47000000000E+01 0.  1.
<mgrwt>
<rscale>  2 0.78563191E+01</rscale>
<asrwt>0</asrwt>
<pdfrwt beam="1">  1       21 0.53830476E-02 0.78563191E+01</pdfrwt>
<pdfrwt beam="2">  1       21 0.50780884E-03 0.78563191E+01</pdfrwt>
<totfact> 0.87112437E+08</totfact>
</mgrwt>
</event>
<event>
 4    1  0.4043737E+006  0.9409194E+01  0.7546771E-02  0.2110257E+00
         21   -1    0    0  503  502  0.00000000000E+00  0.00000000000E+00  0.91760821730E+02  0.91760821730E+02  0.00000000000E+00 0. -1.
         21   -1    0    0  501  503 -0.00000000000E+00 -0.00000000000E+00 -0.23174753430E+01  0.23174753430E+01  0.00000000000E+00 0.  1.
          5    1    1    2  501    0  0.40656134058E+01 -0.70649641264E+01  0.87844082161E+01  0.12872402968E+02  0.47000000000E+01 0.  1.
         -5    1    1    2    0  502 -0.40656134058E+01  0.70649641264E+01  0.80658938171E+02  0.81205894105E+02  0.47000000000E+01 0. -1.
<mgrwt>
<rscale>  2 0.94091939E+01</rscale>
<asrwt>0</asrwt>
<pdfrwt beam="1">  1       21 0.14117047E-01 0.94091939E+01</pdfrwt>
<pdfrwt beam="2">  1       21 0.35653474E-03 0.94091939E+01</pdfrwt>
<totfact> 0.35423383E+08</totfact>
</mgrwt>
</event>
<event>
 4    1  0.4043737E+006  0.5312256E+01  0.7546771E-02  0.2514572E+00
         21   -1    0    0  503  502  0.00000000000E+00  0.00000000000E+00  0.49629247815E-01  0.49629247815E-01  0.00000000000E+00 0. -1.
         21   -1    0    0  501  503 -0.00000000000E+00 -0.00000000000E+00 -0.68077718235E+03  0.68077718235E+03  0.00000000000E+00 0. -1.
          5    1    1    2  501    0  0.22003223736E+01 -0.11351850326E+01 -0.47853651271E+03  0.47856599760E+03  0.47000000000E+01 0. -1.
         -5    1    1    2    0  502 -0.22003223736E+01  0.11351850326E+01 -0.20219104039E+03  0.20226081400E+03  0.47000000000E+01 0. -1.
<mgrwt>
<rscale>  2 0.53122560E+01</rscale>
<asrwt>0</asrwt>
<pdfrwt beam="1">  1       21 0.76354640E-05 0.53122560E+01</pdfrwt>
<pdfrwt beam="2">  1       21 0.10473227E+00 0.53122560E+01</pdfrwt>
<totfact> 0.12666360E+09</totfact>
</mgrwt>
</event>
<event>
 4    1  0.4043737E+006  0.1206330E+02  0.7546771E-02  0.1973640E+00
         21   -1    0    0  503  502  0.00000000000E+00  0.00000000000E+00  0.36384634355E+00  0.36384634355E+00  0.00000000000E+00 0. -1.
         21   -1    0    0  501  503 -0.00000000000E+00 -0.00000000000E+00 -0.44135293574E+03  0.44135293574E+03  0.00000000000E+00 0.  1.
          5    1    1    2  501    0  0.10923010852E+02  0.20300635900E+01 -0.28813297414E+03  0.28838539164E+03  0.47000000000E+01 0. -1.
         -5    1    1    2    0  502 -0.10923010852E+02 -0.20300635900E+01 -0.15285611526E+03  0.15333139045E+03  0.47000000000E+01 0.  1.
<mgrwt>
<rscale>  2 0.12063305E+02</rscale>
<asrwt>0</asrwt>
<pdfrwt beam="1">  1       21 0.55976081E-04 0.12063305E+02</pdfrwt>
<pdfrwt beam="2">  1       21 0.67900791E-01 0.12063305E+02</pdfrwt>
<totfact> 0.32618464E+08</totfact>
</mgrwt>
</event>
<event>
 4    1  0.4043737E+006  0.7184708E+01  0.7546771E-02  0.2282766E+00
         21   -1    0    0  501  502  0.00000000000E+00  0.00000000000E+00  0.32023680745E+00  0.32023680745E+00  0.00000000000E+00 0. -1.
         21   -1    0    0  502  503 -0.00000000000E+00 -0.00000000000E+00 -0.35850705417E+03  0.35850705417E+03  0.00000000000E+00 0. -1.
          5    1    1    2  501    0 -0.54316249403E+01 -0.16577244842E+00 -0.45991191422E+02  0.46549003409E+02  0.47000000000E+01 0. -1.
         -5    1    1    2    0  503  0.54316249403E+01  0.16577244842E+00 -0.31219562594E+03  0.31227828757E+03  0.47000000000E+01 0. -1.
<mgrwt>
<rscale>  2 0.71847081E+01</rscale>
<asrwt>0</asrwt>
<pdfrwt beam="1">  1       21 0.49267255E-04 0.71847081E+01</pdfrwt>
<pdfrwt beam="2">  1       21 0.55154871E-01 0.71847081E+01</pdfrwt>
<totfact> 0.44497870E+08</totfact>
</mgrwt>
</event>
<event>
 4    1  0.4043737E+006  0.8894476E+01  0.7546771E-02  0.2143965E+00
         21   -1    0    0  501  502  0.00000000000E+00  0.00000000000E+00  0.29415159914E+02  0.29415159914E+02  0.00000000000E+00 0.  1.
         21   -1    0    0  502  503 -0.00000000000E+00 -0.00000000000E+00 -0.32933702011E+01  0.32933702011E+01  0.00000000000E+00 0. -1.
          5    1    1    2  501    0 -0.25758723948E+01 -0.70983509996E+01  0.20063941894E+02  0.21947060620E+02  0.47000000000E+01 0.  1.
         -5    1    1    2    0  503  0.25758723948E+01  0.70983509996E+01  0.60578478188E+01  0.10761469496E+02  0.47000000000E+01 0.  1.
<mgrwt>
<rscale>  2 0.88944761E+01</rscale>
<asrwt>0</asrwt>
<pdfrwt beam="1">  1       21 0.45254090E-02 0.88944761E+01</pdfrwt>
<pdfrwt beam="2">  1       21 0.50667236E-03 0.88944761E+01</pdfrwt>
<totfact> 0.12312141E+09</totfact>
</mgrwt>
</event>
<event>
 4    1  0.4043737E+006  0.5567058E+01  0.7546771E-02  0.2475426E+00
         21   -1    0    0  501  502  0.00000000000E+00  0.00000000000E+00  0.53548324390E+01  0.53548324390E+01  0.00000000000E+00 0.  1.
         21   -1    0    0  502  503 -0.00000000000E+00 -0.00000000000E+00 -0.59795892919E+01  0.59795892919E+01  0.00000000000E+00 0.  1.
          5    1    1    2  501    0 -0.24744076785E+01  0.16671663975E+01  0.70285211762E+00  0.56112510420E+01  0.47000000000E+01 0.  1.
         -5    1    1    2    0  503  0.24744076785E+01 -0.16671663975E+01 -0.13276089705E+01  0.57231706890E+01  0.47000000000E+01 0.  1.
<mgrwt>
<rscale>  2 0.55670582E+01</rscale>
<asrwt>0</asrwt>
<pdfrwt beam="1">  1       21 0.82382037E-03 0.55670582E+01</pdfrwt>
<pdfrwt beam="2">  1       21 0.91993682E-03 0.55670582E+01</pdfrwt>
<totfact> 0.43492053E+09</totfact>
</mgrwt>
</event>
<event>
 4    1  0.4043737E+006  0.5641773E+01  0.7546771E-02  0.2464518E+00
         21   -1    0    0  501  502  0.00000000000E+00  0.00000000000E+00  0.34105044496E+01  0.34105044496E+01  0.00000000000E+00 0. -1.
         21   -1    0    0  502  503 -0.00000000000E+00 -0.00000000000E+00 -0.93502331741E+01  0.93502331741E+01  0.00000000000E+00 0. -1.
          5    1    1    2  501    0 -0.80373104286E+00 -0.30155621628E+01 -0.32452658937E+01  0.65085597076E+01  0.47000000000E+01 0.  1.
         -5    1    1    2    0  503  0.80373104286E+00  0.30155621628E+01 -0.26944628309E+01  0.62521779161E+01  0.47000000000E+01 0.  1.
<mgrwt>
<rscale>  2 0.56417727E+01</rscale>
<asrwt>0</asrwt>
<pdfrwt beam="1">  1       21 0.52469300E-03 0.56417727E+01</pdfrwt>
<pdfrwt beam="2">  1       21 0.14384974E-02 0.56417727E+01</pdfrwt>
<totfact> 0.43942148E+09</totfact>
</mgrwt>
</event>
<event>
 4    1  0.4043737E+006  0.4947307E+01  0.7546771E-02  0.2576587E+00
         21   -1    0    0  503  502  0.00000000000E+00  0.00000000000E+00  0.47940202884E+03  0.47940202884E+03  0.00000000000E+00 0. -1.
         21   -1    0    0  501  503 -0.00000000000E+00 -0.00000000000E+00 -0.65822041596E-01  0.65822041596E-01  0.00000000000E+00 0. -1.
          5    1    1    2  501    0  0.15204096755E+01 -0.27239059320E+00  0.12611697835E+03  0.12621397732E+03  0.47000000000E+01 0. -1.
         -5    1    1    2    0  502 -0.15204096755E+01  0.27239059320E+00  0.35321922845E+03  0.35325387356E+03  0.47000000000E+01 0. -1.
<mgrwt>
<rscale>  2 0.49473066E+01</rscale>
<asrwt>0</asrwt>
<pdfrwt beam="1">  1       21 0.73751362E-01 0.49473066E+01</pdfrwt>
<pdfrwt beam="2">  1       21 0.10126852E-04 0.49473066E+01</pdfrwt>
<totfact> 0.16323315E+09</totfact>
</mgrwt>
</event>
<event>
 4    1  0.4043737E+006  0.5704444E+01  0.7546771E-02  0.2455555E+00
         21   -1    0    0  501  502  0.00000000000E+00  0.00000000000E+00  0.20087339064E+00  0.20087339064E+00  0.00000000000E+00 0.  1.
         21   -1    0    0  502  503 -0.00000000000E+00 -0.00000000000E+00 -0.21005509295E+03  0.21005509295E+03  0.00000000000E+00 0.  1.
          5    1    1    2  501    0 -0.14130701724E+01  0.29075621538E+01 -0.54641985506E+02  0.54938941244E+02  0.47000000000E+01 0.  1.
         -5    1    1    2    0  503  0.14130701724E+01 -0.29075621538E+01 -0.15521223406E+03  0.15531702510E+03  0.47000000000E+01 0.  1.
<mgrwt>
<rscale>  2 0.57044443E+01</rscale>
<asrwt>0</asrwt>
<pdfrwt beam="1">  1       21 0.30903486E-04 0.57044443E+01</pdfrwt>
<pdfrwt beam="2">  1       21 0.32316286E-01 0.57044443E+01</pdfrwt>
<totfact> 0.18183488E+09</totfact>
</mgrwt>
</event>
<event>
 4    1  0.4043737E+006  0.7580518E+01  0.7546771E-02  0.2246165E+00
         21   -1    0    0  501  502  0.00000000000E+00  0.00000000000E+00  0.17996482715E+02  0.17996482715E+02  0.00000000000E+00 0. -1.
         21   -1    0    0  502  503 -0.00000000000E+00 -0.00000000000E+00 -0.54413673044E+01  0.54413673044E+01  0.00000000000E+00 0. -1.
          5    1    1    2  501    0  0.55880254371E+01 -0.20367206193E+01  0.13810408907E+02  0.15754099572E+02  0.47000000000E+01 0. -1.
         -5    1    1    2    0  503 -0.55880254371E+01  0.20367206193E+01 -0.12552934964E+01  0.76837504468E+01  0.47000000000E+01 0. -1.
<mgrwt>
<rscale>  2 0.75805184E+01</rscale>
<asrwt>0</asrwt>
<pdfrwt beam="1">  1       21 0.27686896E-02 0.75805184E+01</pdfrwt>
<pdfrwt beam="2">  1       21 0.83713344E-03 0.75805184E+01</pdfrwt>
<totfact> 0.11284053E+09</totfact>
</mgrwt>
</event>
<event>
 4    1  0.4043737E+006  0.7904886E+01  0.7546771E-02  0.2218408E+00
         21   -1    0    0  501  502  0.00000000000E+00  0.00000000000E+00  0.31540200830E+02  0.31540200830E+02  0.00000000000E+00 0.  1.
         21   -1    0    0  502  503 -0.00000000000E+00 -0.00000000000E+00 -0.23020551275E+01  0.23020551275E+01  0.00000000000E+00 0. -1.
          5    1    1    2  501    0  0.63520983914E+01 -0.21924848993E+00  0.20936361284E+02  0.22378973338E+02  0.47000000000E+01 0.  1.
         -5    1    1    2    0  503 -0.63520983914E+01  0.21924848993E+00  0.83017844192E+01  0.11463282620E+02  0.47000000000E+01 0. -1.
<mgrwt>
<rscale>  2 0.79048861E+01</rscale>
<asrwt>0</asrwt>
<pdfrwt beam="1">  1       21 0.48523383E-02 0.79048861E+01</pdfrwt>
<pdfrwt beam="2">  1       21 0.35416235E-03 0.79048861E+01</pdfrwt>
<totfact> 0.16979699E+09</totfact>
</mgrwt>
</event>
<event>
 4    1  0.4043737E+006  0.5498512E+01  0.7546771E-02  0.2485653E+00
         21   -1    0    0  501  502  0.00000000000E+00  0.00000000000E+00  0.12196281876E+03  0.12196281876E+03  0.00000000000E+00 0. -1.
         21   -1    0    0  502  503 -0.00000000000E+00 -0.00000000000E+00 -0.33610510760E+00  0.33610510760E+00  0.00000000000E+00 0. -1.
          5    1    1    2  501    0 -0.27453310145E+01  0.77896583549E+00  0.92140527906E+02  0.92304444709E+02  0.47000000000E+01 0. -1.
         -5    1    1    2    0  503  0.27453310145E+01 -0.77896583549E+00  0.29486185745E+02  0.29994479158E+02  0.47000000000E+01 0. -1.
<mgrwt>
<rscale>  2 0.54985116E+01</rscale>
<asrwt>0</asrwt>
<pdfrwt beam="1">  1       21 0.18763475E-01 0.54985116E+01</pdfrwt>
<pdfrwt beam="2">  1       21 0.51708575E-04 0.54985116E+01</pdfrwt>
<totfact> 0.21670768E+09</totfact>
</mgrwt>
</event>
<event>
 4    1  0.4043737E+006  0.1007638E+02  0.7546771E-02  0.2070667E+00
         21   -1    0    0  501  502  0.00000000000E+00  0.00000000000E+00  0.93284722008E+02  0.93284722008E+02  0.00000000000E+00 0. -1.
         21   -1    0    0  502  503 -0.00000000000E+00 -0.00000000000E+00 -0.17093664307E+01  0.17093664307E+01  0.00000000000E+00 0.  1.
          5    1    1    2  501    0  0.77825722344E+01  0.43445430791E+01  0.74414562345E+02  0.75093678656E+02  0.47000000000E+01 0. -1.
         -5    1    1    2    0  503 -0.77825722344E+01 -0.43445430791E+01  0.17160793233E+02  0.19900409783E+02  0.47000000000E+01 0.  1.
<mgrwt>
<rscale>  2 0.10076383E+02</rscale>
<asrwt>0</asrwt>
<pdfrwt beam="1">  1       21 0.14351492E-01 0.10076383E+02</pdfrwt>
<pdfrwt beam="2">  1       21 0.26297952E-03 0.10076383E+02</pdfrwt>
<totfact> 0.54910137E+08</totfact>
</mgrwt>
</event>
<event>
 4    1  0.4043737E+006  0.7957731E+01  0.7546771E-02  0.2214059E+00
         21   -1    0    0  501  502  0.00000000000E+00  0.00000000000E+00  0.28643068960E+00  0.28643068960E+00  0.00000000000E+00 0. -1.
         21   -1    0    0  502  503 -0.00000000000E+00 -0.00000000000E+00 -0.22432996340E+03  0.22432996340E+03  0.00000000000E+00 0.  1.
          5    1    1    2  501    0 -0.56713697931E+01  0.30118180518E+01 -0.12552952807E+03  0.12578150858E+03  0.47000000000E+01 0.  1.
         -5    1    1    2    0  503  0.56713697931E+01 -0.30118180518E+01 -0.98514004639E+02  0.98834885508E+02  0.47000000000E+01 0. -1.
<mgrwt>
<rscale>  2 0.79577310E+01</rscale>
<asrwt>0</asrwt>
<pdfrwt beam="1">  1       21 0.44066147E-04 0.79577310E+01</pdfrwt>
<pdfrwt beam="2">  1       21 0.34512391E-01 0.79577310E+01</pdfrwt>
<totfact> 0.12797389E+09</totfact>
</mgrwt>
</event>
<event>
 4    1  0.4043737E+006  0.4832417E+01  0.7546771E-02  0.2597770E+00
         21   -1    0    0  503  502  0.00000000000E+00  0.00000000000E+00  0.10453890511E+03  0.10453890511E+03  0.00000000000E+00 0.  1.
         21   -1    0    0  501  503 -0.00000000000E+00 -0.00000000000E+00 -0.48245025172E+01  0.48245025172E+01  0.00000000000E+00 0.  1.
          5    1    1    2  501    0 -0.68558119905E+00 -0.89007667346E+00 -0.35435671911E+01  0.59924224236E+01  0.47000000000E+01 0.  1.
         -5    1    1    2    0  502  0.68558119905E+00  0.89007667346E+00  0.10325796978E+03  0.10337098520E+03  0.47000000000E+01 0.  1.
<mgrwt>
<rscale>  2 0.48324174E+01</rscale>
<asrwt>0</asrwt>
<pdfrwt beam="1">  1       21 0.16082907E-01 0.48324174E+01</pdfrwt>
<pdfrwt beam="2">  1       21 0.74223123E-03 0.48324174E+01</pdfrwt>
<totfact> 0.68043433E+07</totfact>
</mgrwt>
</event>
<event>
 4    1  0.4043737E+006  0.2033613E+02  0.7546771E-02  0.1738725E+00
         21   -1    0    0  501  502  0.00000000000E+00  0.00000000000E+00  0.34917143067E+02  0.34917143067E+02  0.00000000000E+00 0. -1.
         21   -1    0    0  502  503 -0.00000000000E+00 -0.00000000000E+00 -0.14425683924E+02  0.14425683924E+02  0.00000000000E+00 0.  1.
          5    1    1    2  501    0  0.19767874639E+02  0.83636985437E+00  0.20682784955E+02  0.29005792107E+02  0.47000000000E+01 0.  1.
         -5    1    1    2    0  503 -0.19767874639E+02 -0.83636985437E+00 -0.19132581182E+00  0.20337034883E+02  0.47000000000E+01 0. -1.
<mgrwt>
<rscale>  2 0.20336135E+02</rscale>
<asrwt>0</asrwt>
<pdfrwt beam="1">  1       21 0.53718681E-02 0.20336135E+02</pdfrwt>
<pdfrwt beam="2">  1       21 0.22193360E-02 0.20336135E+02</pdfrwt>
<totfact> 0.15691804E+08</totfact>
</mgrwt>
</event>
<event>
 4    1  0.4043737E+006  0.7632486E+01  0.7546771E-02  0.2241590E+00
         21   -1    0    0  501  502  0.00000000000E+00  0.00000000000E+00  0.53012903314E+02  0.53012903314E+02  0.00000000000E+00 0.  1.
         21   -1    0    0  502  503 -0.00000000000E+00 -0.00000000000E+00 -0.11306110410E+01  0.11306110410E+01  0.00000000000E+00 0.  1.
          5    1    1    2  501    0 -0.14205409340E+01 -0.58435360179E+01  0.21405929343E+02  0.22725946862E+02  0.47000000000E+01 0.  1.
         -5    1    1    2    0  503  0.14205409340E+01  0.58435360179E+01  0.30476362930E+02  0.31417567493E+02  0.47000000000E+01 0.  1.
<mgrwt>
<rscale>  2 0.76324865E+01</rscale>
<asrwt>0</asrwt>
<pdfrwt beam="1">  1       21 0.81558294E-02 0.76324865E+01</pdfrwt>
<pdfrwt beam="2">  1       21 0.17394020E-03 0.76324865E+01</pdfrwt>
<totfact> 0.20117661E+09</totfact>
</mgrwt>
</event>
<event>
 4    1  0.4043737E+006  0.5406492E+01  0.7546771E-02  0.2499729E+00
         21   -1    0    0  501  502  0.00000000000E+00  0.00000000000E+00  0.17807254282E+03  0.17807254282E+03  0.00000000000E+00 0.  1.
         21   -1    0    0  502  503 -0.00000000000E+00 -0.00000000000E+00 -0.22907238236E+00  0.22907238236E+00  0.00000000000E+00 0. -1.
          5    1    1    2  501    0  0.14370050301E+01  0.22528145483E+01  0.13638357965E+03  0.13649069915E+03  0.47000000000E+01 0.  1.
         -5    1    1    2    0  503 -0.14370050301E+01 -0.22528145483E+01  0.41459890782E+02  0.41810916045E+02  0.47000000000E+01 0. -1.
<mgrwt>
<rscale>  2 0.54064921E+01</rscale>
<asrwt>0</asrwt>
<pdfrwt beam="1">  1       21 0.27395665E-01 0.54064921E+01</pdfrwt>
<pdfrwt beam="2">  1       21 0.35242047E-04 0.54064921E+01</pdfrwt>
<totfact> 0.19244489E+09</totfact>
</mgrwt>
</event>
<event>
 4    1  0.4043737E+006  0.4952458E+01  0.7546771E-02  0.2575657E+00
         21   -1    0    0  501  502  0.00000000000E+00  0.00000000000E+00  0.53807834619E+03  0.53807834619E+03  0.00000000000E+00 0. -1.
         21   -1    0    0  502  503 -0.00000000000E+00 -0.00000000000E+00 -0.26521773251E+00  0.26521773251E+00  0.00000000000E+00 0. -1.
          5    1    1    2  501    0  0.15584243793E+01 -0.90299736893E-01  0.51385770553E+03  0.51388157038E+03  0.47000000000E+01 0. -1.
         -5    1    1    2    0  503 -0.15584243793E+01  0.90299736893E-01  0.23955422931E+02  0.24461993549E+02  0.47000000000E+01 0. -1.
<mgrwt>
<rscale>  2 0.49524580E+01</rscale>
<asrwt>0</asrwt>
<pdfrwt beam="1">  1       21 0.82780410E-01 0.49524580E+01</pdfrwt>
<pdfrwt beam="2">  1       21 0.40803159E-04 0.49524580E+01</pdfrwt>
<totfact> 0.20724637E+08</totfact>
</mgrwt>
</event>
<event>
 4    1  0.4043737E+006  0.8331797E+01  0.7546771E-02  0.2184557E+00
         21   -1    0    0  501  502  0.00000000000E+00  0.00000000000E+00  0.16245078598E+01  0.16245078598E+01  0.00000000000E+00 0. -1.
         21   -1    0    0  502  503 -0.00000000000E+00 -0.00000000000E+00 -0.43662238981E+02  0.43662238981E+02  0.00000000000E+00 0.  1.
          5    1    1    2  501    0 -0.52694878788E+01  0.44228208236E+01 -0.17714171484E+02  0.19575768641E+02  0.47000000000E+01 0. -1.
         -5    1    1    2    0  503  0.52694878788E+01 -0.44228208236E+01 -0.24323559638E+02  0.25710978200E+02  0.47000000000E+01 0. -1.
<mgrwt>
<rscale>  2 0.83317973E+01</rscale>
<asrwt>0</asrwt>
<pdfrwt beam="1">  1       21 0.24992430E-03 0.83317973E+01</pdfrwt>
<pdfrwt beam="2">  1       21 0.67172671E-02 0.83317973E+01</pdfrwt>
<totfact> 0.17449955E+09</totfact>
</mgrwt>
</event>
<event>
 4    1  0.4043737E+006  0.7139260E+01  0.7546771E-02  0.2287179E+00
         21   -1    0    0  503  502  0.00000000000E+00  0.00000000000E+00  0.17347095654E+01  0.17347095654E+01  0.00000000000E+00 0.  1.
         21   -1    0    0  501  503 -0.00000000000E+00 -0.00000000000E+00 -0.29782896758E+02  0.29782896758E+02  0.00000000000E+00 0. -1.
          5    1    1    2  501    0  0.88049099745E+00 -0.53012983759E+01 -0.12195484643E+02  0.14131485221E+02  0.47000000000E+01 0.  1.
         -5    1    1    2    0  502 -0.88049099745E+00  0.53012983759E+01 -0.15852702549E+02  0.17386121102E+02  0.47000000000E+01 0.  1.
<mgrwt>
<rscale>  2 0.71392597E+01</rscale>
<asrwt>0</asrwt>
<pdfrwt beam="1">  1       21 0.26687840E-03 0.71392597E+01</pdfrwt>
<pdfrwt beam="2">  1       21 0.45819840E-02 0.71392597E+01</pdfrwt>
<totfact> 0.25446073E+09</totfact>
</mgrwt>
</event>
<event>
 4    1  0.4043737E+006  0.7033601E+01  0.7546771E-02  0.2297620E+00
         21   -1    0    0  501  502  0.00000000000E+00  0.00000000000E+00  0.90211827318E+00  0.90211827318E+00  0.00000000000E+00 0.  1.
         21   -1    0    0  502  503 -0.00000000000E+00 -0.00000000000E+00 -0.75546492749E+02  0.75546492749E+02  0.00000000000E+00 0. -1.
          5    1    1    2  501    0 -0.18850332017E-01  0.52327032529E+01 -0.17310071034E+02  0.18684488162E+02  0.47000000000E+01 0.  1.
         -5    1    1    2    0  503  0.18850332017E-01 -0.52327032529E+01 -0.57334303442E+02  0.57764122860E+02  0.47000000000E+01 0. -1.
<mgrwt>
<rscale>  2 0.70336007E+01</rscale>
<asrwt>0</asrwt>
<pdfrwt beam="1">  1       21 0.13878740E-03 0.70336007E+01</pdfrwt>
<pdfrwt beam="2">  1       21 0.11622540E-01 0.70336007E+01</pdfrwt>
<totfact> 0.14893511E+09</totfact>
</mgrwt>
</event>
<event>
 4    1  0.4043737E+006  0.4861130E+01  0.7546771E-02  0.2592395E+00
         21   -1    0    0  501  502  0.00000000000E+00  0.00000000000E+00  0.23218068151E+00  0.23218068151E+00  0.00000000000E+00 0. -1.
         21   -1    0    0  502  503 -0.00000000000E+00 -0.00000000000E+00 -0.14418116475E+03  0.14418116475E+03  0.00000000000E+00 0. -1.
          5    1    1    2  501    0  0.65962169106E+00 -0.10514197736E+01 -0.32815739813E+02  0.33173835530E+02  0.47000000000E+01 0. -1.
         -5    1    1    2    0  503 -0.65962169106E+00  0.10514197736E+01 -0.11113324425E+03  0.11123950990E+03  0.47000000000E+01 0. -1.
<mgrwt>
<rscale>  2 0.48611299E+01</rscale>
<asrwt>0</asrwt>
<pdfrwt beam="1">  1       21 0.35720113E-04 0.48611299E+01</pdfrwt>
<pdfrwt beam="2">  1       21 0.22181713E-01 0.48611299E+01</pdfrwt>
<totfact> 0.24184280E+09</totfact>
</mgrwt>
</event>
<event>
 4    1  0.4043737E+006  0.4806959E+01  0.7546771E-02  0.2602582E+00
         21   -1    0    0  503  502  0.00000000000E+00  0.00000000000E+00  0.15258808896E+02  0.15258808896E+02  0.00000000000E+00 0.  1.
         21   -1    0    0  501  503 -0.00000000000E+00 -0.00000000000E+00 -0.17353435281E+01  0.17353435281E+01  0.00000000000E+00 0.  1.
          5    1    1    2  501    0 -0.97834621086E+00  0.24433071613E+00  0.37293286453E+01  0.60839749302E+01  0.47000000000E+01 0.  1.
         -5    1    1    2    0  502  0.97834621086E+00 -0.24433071613E+00  0.97941367227E+01  0.10910177494E+02  0.47000000000E+01 0.  1.
<mgrwt>
<rscale>  2 0.48069594E+01</rscale>
<asrwt>0</asrwt>
<pdfrwt beam="1">  1       21 0.23475090E-02 0.48069594E+01</pdfrwt>
<pdfrwt beam="2">  1       21 0.26697594E-03 0.48069594E+01</pdfrwt>
<totfact> 0.46936733E+09</totfact>
</mgrwt>
</event>
<event>
 4    1  0.4043737E+006  0.5423370E+01  0.7546771E-02  0.2497117E+00
         21   -1    0    0  503  502  0.00000000000E+00  0.00000000000E+00  0.32249072710E+02  0.32249072710E+02  0.00000000000E+00 0. -1.
         21   -1    0    0  501  503 -0.00000000000E+00 -0.00000000000E+00 -0.45371044222E+01  0.45371044222E+01  0.00000000000E+00 0. -1.
          5    1    1    2  501    0  0.46936925319E+00  0.26650767653E+01 -0.25847881850E+01  0.60078341873E+01  0.47000000000E+01 0. -1.
         -5    1    1    2    0  502 -0.46936925319E+00 -0.26650767653E+01  0.30296756473E+02  0.30778342945E+02  0.47000000000E+01 0. -1.
<mgrwt>
<rscale>  2 0.54233700E+01</rscale>
<asrwt>0</asrwt>
<pdfrwt beam="1">  1       21 0.49613957E-02 0.54233700E+01</pdfrwt>
<pdfrwt beam="2">  1       21 0.69801608E-03 0.54233700E+01</pdfrwt>
<totfact> 0.47928256E+08</totfact>
</mgrwt>
</event>
<event>
 4    1  0.4043737E+006  0.8888916E+01  0.7546771E-02  0.2144346E+00
         21   -1    0    0  503  502  0.00000000000E+00  0.00000000000E+00  0.68498629027E+00  0.68498629027E+00  0.00000000000E+00 0. -1.
         21   -1    0    0  501  503 -0.00000000000E+00 -0.00000000000E+00 -0.23714590977E+03  0.23714590977E+03  0.00000000000E+00 0.  1.
          5    1    1    2  501    0  0.75261774648E+01 -0.52866476715E+00 -0.20345166873E+03  0.20364575700E+03  0.47000000000E+01 0.  1.
         -5    1    1    2    0  502 -0.75261774648E+01  0.52866476715E+00 -0.33009254746E+02  0.34185139060E+02  0.47000000000E+01 0. -1.
<mgrwt>
<rscale>  2 0.88889163E+01</rscale>
<asrwt>0</asrwt>
<pdfrwt beam="1">  1       21 0.10538261E-03 0.88889163E+01</pdfrwt>
<pdfrwt beam="2">  1       21 0.36483949E-01 0.88889163E+01</pdfrwt>
<totfact> 0.37735420E+08</totfact>
</mgrwt>
</event>
<event>
 4    1  0.4043737E+006  0.4970016E+01  0.7546771E-02  0.2572501E+00
         21   -1    0    0  501  502  0.00000000000E+00  0.00000000000E+00  0.27510359780E+02  0.27510359780E+02  0.00000000000E+00 0. -1.
         21   -1    0    0  502  503 -0.00000000000E+00 -0.00000000000E+00 -0.48550564125E+01  0.48550564125E+01  0.00000000000E+00 0.  1.
          5    1    1    2  501    0  0.15982044159E+01  0.23832611650E+00  0.25937531945E+02  0.26409404009E+02  0.47000000000E+01 0. -1.
         -5    1    1    2    0  503 -0.15982044159E+01 -0.23832611650E+00 -0.32822285779E+01  0.59560121835E+01  0.47000000000E+01 0.  1.
<mgrwt>
<rscale>  2 0.49700158E+01</rscale>
<asrwt>0</asrwt>
<pdfrwt beam="1">  1       21 0.42323630E-02 0.49700158E+01</pdfrwt>
<pdfrwt beam="2">  1       21 0.74693177E-03 0.49700158E+01</pdfrwt>
<totfact> 0.50969714E+08</totfact>
</mgrwt>
</event>
<event>
 4    1  0.4043737E+006  0.5311098E+01  0.7546771E-02  0.2514758E+00
         21   -1    0    0  503  502  0.00000000000E+00  0.00000000000E+00  0.12964578070E+01  0.12964578070E+01  0.00000000000E+00 0. -1.
         21   -1    0    0  501  503 -0.00000000000E+00 -0.00000000000E+00 -0.26831451295E+02  0.26831451295E+02  0.00000000000E+00 0. -1.
          5    1    1    2  501    0  0.83296202823E+00 -0.23289351396E+01 -0.66516618834E+01  0.85118958191E+01  0.47000000000E+01 0.  1.
         -5    1    1    2    0  502 -0.83296202823E+00  0.23289351396E+01 -0.18883331605E+02  0.19616013283E+02  0.47000000000E+01 0.  1.
<mgrwt>
<rscale>  2 0.53110983E+01</rscale>
<asrwt>0</asrwt>
<pdfrwt beam="1">  1       21 0.19945507E-03 0.53110983E+01</pdfrwt>
<pdfrwt beam="2">  1       21 0.41279152E-02 0.53110983E+01</pdfrwt>
<totfact> 0.34261012E+09</totfact>
</mgrwt>
</event>
<event>
 4    1  0.4043737E+006  0.4951944E+01  0.7546771E-02  0.2575750E+00
         21   -1    0    0  501  502  0.00000000000E+00  0.00000000000E+00  0.20490334873E+01  0.20490334873E+01  0.00000000000E+00 0.  1.
         21   -1    0    0  502  503 -0.00000000000E+00 -0.00000000000E+00 -0.12163064234E+02  0.12163064234E+02  0.00000000000E+00 0.  1.
          5    1    1    2  501    0  0.14072014722E+01 -0.67196583149E+00 -0.59581315205E+01  0.77473276217E+01  0.47000000000E+01 0.  1.
         -5    1    1    2    0  503 -0.14072014722E+01  0.67196583149E+00 -0.41558992262E+01  0.64647700996E+01  0.47000000000E+01 0.  1.
<mgrwt>
<rscale>  2 0.49519445E+01</rscale>
<asrwt>0</asrwt>
<pdfrwt beam="1">  1       21 0.31523592E-03 0.49519445E+01</pdfrwt>
<pdfrwt beam="2">  1       21 0.18712407E-02 0.49519445E+01</pdfrwt>
<totfact> 0.53360716E+09</totfact>
</mgrwt>
</event>
<event>
 4    1  0.4043737E+006  0.6124487E+01  0.7546771E-02  0.2399498E+00
         21   -1    0    0  501  502  0.00000000000E+00  0.00000000000E+00  0.68044780593E-01  0.68044780593E-01  0.00000000000E+00 0. -1.
         21   -1    0    0  502  503 -0.00000000000E+00 -0.00000000000E+00 -0.60095404913E+03  0.60095404913E+03  0.00000000000E+00 0. -1.
          5    1    1    2  501    0  0.93766495069E-01 -0.39256279260E+01 -0.38687159218E+03  0.38692006691E+03  0.47000000000E+01 0. -1.
         -5    1    1    2    0  503 -0.93766495069E-01  0.39256279260E+01 -0.21401441217E+03  0.21410202700E+03  0.47000000000E+01 0. -1.
<mgrwt>
<rscale>  2 0.61244875E+01</rscale>
<asrwt>0</asrwt>
<pdfrwt beam="1">  1       21 0.10468514E-04 0.61244875E+01</pdfrwt>
<pdfrwt beam="2">  1       21 0.92453708E-01 0.61244875E+01</pdfrwt>
<totfact> 0.11838281E+09</totfact>
</mgrwt>
</event>
<event>
 4    1  0.4043737E+006  0.5379704E+01  0.7546771E-02  0.2503903E+00
         21   -1    0    0  501  502  0.00000000000E+00  0.00000000000E+00  0.91252577955E+00  0.91252577955E+00  0.00000000000E+00 0. -1.
         21   -1    0    0  502  503 -0.00000000000E+00 -0.00000000000E+00 -0.77446032921E+02  0.77446032921E+02  0.00000000000E+00 0.  1.
          5    1    1    2  501    0 -0.13982397701E+01 -0.22127226050E+01 -0.81602748192E+01  0.97740115053E+01  0.47000000000E+01 0. -1.
         -5    1    1    2    0  503  0.13982397701E+01  0.22127226050E+01 -0.68373232322E+02  0.68584547195E+02  0.47000000000E+01 0.  1.
<mgrwt>
<rscale>  2 0.53797041E+01</rscale>
<asrwt>0</asrwt>
<pdfrwt beam="1">  1       21 0.14038853E-03 0.53797041E+01</pdfrwt>
<pdfrwt beam="2">  1       21 0.11914778E-01 0.53797041E+01</pdfrwt>
<totfact> 0.11414314E+09</totfact>
</mgrwt>
</event>
<event>
 4    1  0.4043737E+006  0.7169437E+01  0.7546771E-02  0.2284244E+00
         21   -1    0    0  503  502  0.00000000000E+00  0.00000000000E+00  0.48220833453E+03  0.48220833453E+03  0.00000000000E+00 0.  1.
         21   -1    0    0  501  503 -0.00000000000E+00 -0.00000000000E+00 -0.30399710435E+00  0.30399710435E+00  0.00000000000E+00 0.  1.
          5    1    1    2  501    0 -0.49654227182E+01  0.21576392656E+01  0.46541555981E+02  0.47090522009E+02  0.47000000000E+01 0.  1.
         -5    1    1    2    0  502  0.49654227182E+01 -0.21576392656E+01  0.43536278144E+03  0.43542180962E+03  0.47000000000E+01 0.  1.
<mgrwt>
<rscale>  2 0.71694372E+01</rscale>
<asrwt>0</asrwt>
<pdfrwt beam="1">  1       21 0.74185285E-01 0.71694372E+01</pdfrwt>
<pdfrwt beam="2">  1       21 0.46769171E-04 0.71694372E+01</pdfrwt>
<totfact> 0.27170270E+08</totfact>
</mgrwt>
</event>
<event>
 4    1  0.4043737E+006  0.6940465E+01  0.7546771E-02  0.2307038E+00
         21   -1    0    0  501  502  0.00000000000E+00  0.00000000000E+00  0.35551511324E+01  0.35551511324E+01  0.00000000000E+00 0.  1.
         21   -1    0    0  502  503 -0.00000000000E+00 -0.00000000000E+00 -0.18450616438E+02  0.18450616438E+02  0.00000000000E+00 0. -1.
          5    1    1    2  501    0  0.19776918531E+01  0.47083738979E+01 -0.17768004075E+01  0.71642912780E+01  0.47000000000E+01 0.  1.
         -5    1    1    2    0  503 -0.19776918531E+01 -0.47083738979E+01 -0.13118664898E+02  0.14841476292E+02  0.47000000000E+01 0. -1.
<mgrwt>
<rscale>  2 0.69404647E+01</rscale>
<asrwt>0</asrwt>
<pdfrwt beam="1">  1       21 0.54694633E-03 0.69404647E+01</pdfrwt>
<pdfrwt beam="2">  1       21 0.28385563E-02 0.69404647E+01</pdfrwt>
<totfact> 0.18604975E+09</totfact>
</mgrwt>
</event>
<event>
 4    1  0.4043737E+006  0.5930881E+01  0.7546771E-02  0.2424507E+00
         21   -1    0    0  503  502  0.00000000000E+00  0.00000000000E+00  0.66486586185E+00  0.66486586185E+00  0.00000000000E+00 0.  1.
         21   -1    0    0  501  503 -0.00000000000E+00 -0.00000000000E+00 -0.71391964739E+02  0.71391964739E+02  0.00000000000E+00 0. -1.
          5    1    1    2  501    0 -0.80410727164E+00  0.35268626142E+01 -0.53696921252E+02  0.54023464349E+02  0.47000000000E+01 0. -1.
         -5    1    1    2    0  502  0.80410727164E+00 -0.35268626142E+01 -0.17030177625E+02  0.18033366251E+02  0.47000000000E+01 0.  1.
<mgrwt>
<rscale>  2 0.59308809E+01</rscale>
<asrwt>0</asrwt>
<pdfrwt beam="1">  1       21 0.10228705E-03 0.59308809E+01</pdfrwt>
<pdfrwt beam="2">  1       21 0.10983380E-01 0.59308809E+01</pdfrwt>
<totfact> 0.21503807E+09</totfact>
</mgrwt>
</event>
<event>
 4    1  0.4043737E+006  0.4986364E+01  0.7546771E-02  0.2569579E+00
         21   -1    0    0  503  502  0.00000000000E+00  0.00000000000E+00  0.32564708186E+00  0.32564708186E+00  0.00000000000E+00 0. -1.
         21   -1    0    0  501  503 -0.00000000000E+00 -0.00000000000E+00 -0.76456201171E+02  0.76456201171E+02  0.00000000000E+00 0. -1.
          5    1    1    2  501    0  0.16624599428E+01 -0.10025339233E+00 -0.36648359732E+02  0.36986025670E+02  0.47000000000E+01 0. -1.
         -5    1    1    2    0  502 -0.16624599428E+01  0.10025339233E+00 -0.39482194357E+02  0.39795822583E+02  0.47000000000E+01 0. -1.
<mgrwt>
<rscale>  2 0.49863638E+01</rscale>
<asrwt>0</asrwt>
<pdfrwt beam="1">  1       21 0.50099516E-04 0.49863638E+01</pdfrwt>
<pdfrwt beam="2">  1       21 0.11762501E-01 0.49863638E+01</pdfrwt>
<totfact> 0.42693124E+09</totfact>
</mgrwt>
</event>
<event>
 4    1  0.4043737E+006  0.7566760E+01  0.7546771E-02  0.2247385E+00
         21   -1    0    0  501  502  0.00000000000E+00  0.00000000000E+00  0.14278928312E+03  0.14278928312E+03  0.00000000000E+00 0. -1.
         21   -1    0    0  502  503 -0.00000000000E+00 -0.00000000000E+00 -0.13029190930E+01  0.13029190930E+01  0.00000000000E+00 0.  1.
          5    1    1    2  501    0  0.52959191165E+01 -0.26681633626E+01  0.13068639442E+03  0.13090526934E+03  0.47000000000E+01 0. -1.
         -5    1    1    2    0  503 -0.52959191165E+01  0.26681633626E+01  0.10799969605E+02  0.13186932869E+02  0.47000000000E+01 0.  1.
<mgrwt>
<rscale>  2 0.75667599E+01</rscale>
<asrwt>0</asrwt>
<pdfrwt beam="1">  1       21 0.21967570E-01 0.75667599E+01</pdfrwt>
<pdfrwt beam="2">  1       21 0.20044920E-03 0.75667599E+01</pdfrwt>
<totfact> 0.33903077E+08</totfact>
</mgrwt>
</event>
<event>
 4    1  0.4043737E+006  0.1039610E+02  0.7546771E-02  0.2053122E+00
         21   -1    0    0  503  502  0.00000000000E+00  0.00000000000E+00  0.29892836587E+00  0.29892836587E+00  0.00000000000E+00 0. -1.
         21   -1    0    0  501  503 -0.00000000000E+00 -0.00000000000E+00 -0.41456762896E+03  0.41456762896E+03  0.00000000000E+00 0.  1.
          5    1    1    2  501    0  0.85595854025E+01  0.35668364240E+01 -0.28131206291E+03  0.28150409511E+03  0.47000000000E+01 0.  1.
         -5    1    1    2    0  502 -0.85595854025E+01 -0.35668364240E+01 -0.13295663769E+03  0.13336246222E+03  0.47000000000E+01 0. -1.
<mgrwt>
<rscale>  2 0.10396097E+02</rscale>
<asrwt>0</asrwt>
<pdfrwt beam="1">  1       21 0.45988485E-04 0.10396097E+02</pdfrwt>
<pdfrwt beam="2">  1       21 0.63780321E-01 0.10396097E+02</pdfrwt>
<totfact> 0.45216770E+08</totfact>
</mgrwt>
</event>
<event>
 4    1  0.4043737E+006  0.1048620E+02  0.7546771E-02  0.2048330E+00
         21   -1    0    0  503  502  0.00000000000E+00  0.00000000000E+00  0.23349152302E+01  0.23349152302E+01  0.00000000000E+00 0. -1.
         21   -1    0    0  501  503 -0.00000000000E+00 -0.00000000000E+00 -0.54335491787E+02  0.54335491787E+02  0.00000000000E+00 0.  1.
          5    1    1    2  501    0 -0.92763071432E+01  0.13492452946E+01 -0.36344576697E+02  0.37827088077E+02  0.47000000000E+01 0.  1.
         -5    1    1    2    0  502  0.92763071432E+01 -0.13492452946E+01 -0.15655999860E+02  0.18843318940E+02  0.47000000000E+01 0. -1.
<mgrwt>
<rscale>  2 0.10486197E+02</rscale>
<asrwt>0</asrwt>
<pdfrwt beam="1">  1       21 0.35921770E-03 0.10486197E+02</pdfrwt>
<pdfrwt beam="2">  1       21 0.83593071E-02 0.10486197E+02</pdfrwt>
<totfact> 0.85745441E+08</totfact>
</mgrwt>
</event>
<event>
 4    1  0.4043737E+006  0.4758441E+01  0.7546771E-02  0.2611877E+00
         21   -1    0    0  501  502  0.00000000000E+00  0.00000000000E+00  0.22976385296E+02  0.22976385296E+02  0.00000000000E+00 0. -1.
         21   -1    0    0  502  503 -0.00000000000E+00 -0.00000000000E+00 -0.18645240287E+01  0.18645240287E+01  0.00000000000E+00 0. -1.
          5    1    1    2  501    0 -0.37518357109E+00 -0.64186888380E+00  0.19084160960E+02  0.19668450827E+02  0.47000000000E+01 0. -1.
         -5    1    1    2    0  503  0.37518357109E+00  0.64186888380E+00  0.20277003072E+01  0.51724584978E+01  0.47000000000E+01 0. -1.
<mgrwt>
<rscale>  2 0.47584408E+01</rscale>
<asrwt>0</asrwt>
<pdfrwt beam="1">  1       21 0.35348283E-02 0.47584408E+01</pdfrwt>
<pdfrwt beam="2">  1       21 0.28684987E-03 0.47584408E+01</pdfrwt>
<totfact> 0.23485634E+09</totfact>
</mgrwt>
</event>
<event>
 4    1  0.4043737E+006  0.5068357E+01  0.7546771E-02  0.2555168E+00
         21   -1    0    0  501  502  0.00000000000E+00  0.00000000000E+00  0.25238899709E+01  0.25238899709E+01  0.00000000000E+00 0. -1.
         21   -1    0    0  502  503 -0.00000000000E+00 -0.00000000000E+00 -0.18500555814E+02  0.18500555814E+02  0.00000000000E+00 0. -1.
          5    1    1    2  501    0  0.15275541384E+01  0.11246440658E+01 -0.93767635117E+00  0.51543654178E+01  0.47000000000E+01 0. -1.
         -5    1    1    2    0  503 -0.15275541384E+01 -0.11246440658E+01 -0.15038989492E+02  0.15870080367E+02  0.47000000000E+01 0. -1.
<mgrwt>
<rscale>  2 0.50683573E+01</rscale>
<asrwt>0</asrwt>
<pdfrwt beam="1">  1       21 0.38829077E-03 0.50683573E+01</pdfrwt>
<pdfrwt beam="2">  1       21 0.28462393E-02 0.50683573E+01</pdfrwt>
<totfact> 0.22641875E+09</totfact>
</mgrwt>
</event>
<event>
 4    1  0.4043737E+006  0.8247089E+01  0.7546771E-02  0.2191049E+00
         21   -1    0    0  501  502  0.00000000000E+00  0.00000000000E+00  0.93472073533E+01  0.93472073533E+01  0.00000000000E+00 0. -1.
         21   -1    0    0  502  503 -0.00000000000E+00 -0.00000000000E+00 -0.11967744567E+02  0.11967744567E+02  0.00000000000E+00 0. -1.
          5    1    1    2  501    0 -0.22135948059E+01  0.64050357219E+01  0.53623233780E+01  0.98371233892E+01  0.47000000000E+01 0. -1.
         -5    1    1    2    0  503  0.22135948059E+01 -0.64050357219E+01 -0.79828605923E+01  0.11477828532E+02  0.47000000000E+01 0. -1.
<mgrwt>
<rscale>  2 0.82470895E+01</rscale>
<asrwt>0</asrwt>
<pdfrwt beam="1">  1       21 0.14380319E-02 0.82470895E+01</pdfrwt>
<pdfrwt beam="2">  1       21 0.18411915E-02 0.82470895E+01</pdfrwt>
<totfact> 0.99889455E+08</totfact>
</mgrwt>
</event>
<event>
 4    1  0.4043737E+006  0.1487021E+02  0.7546771E-02  0.1872055E+00
         21   -1    0    0  501  502  0.00000000000E+00  0.00000000000E+00  0.19537560402E+01  0.19537560402E+01  0.00000000000E+00 0. -1.
         21   -1    0    0  502  503 -0.00000000000E+00 -0.00000000000E+00 -0.24095452034E+03  0.24095452034E+03  0.00000000000E+00 0.  1.
          5    1    1    2  501    0 -0.11850831010E+02  0.76544771494E+01 -0.31056168841E+02  0.34432671101E+02  0.47000000000E+01 0. -1.
         -5    1    1    2    0  503  0.11850831010E+02 -0.76544771494E+01 -0.20794459546E+03  0.20847560528E+03  0.47000000000E+01 0.  1.
<mgrwt>
<rscale>  2 0.14870212E+02</rscale>
<asrwt>0</asrwt>
<pdfrwt beam="1">  1       21 0.30057780E-03 0.14870212E+02</pdfrwt>
<pdfrwt beam="2">  1       21 0.37069932E-01 0.14870212E+02</pdfrwt>
<totfact> 0.10505877E+08</totfact>
</mgrwt>
</event>
<event>
 4    1  0.4043737E+006  0.6130545E+01  0.7546771E-02  0.2398737E+00
         21   -1    0    0  501  502  0.00000000000E+00  0.00000000000E+00  0.54947295255E+00  0.54947295255E+00  0.00000000000E+00 0. -1.
         21   -1    0    0  502  503 -0.00000000000E+00 -0.00000000000E+00 -0.88456622328E+02  0.88456622328E+02  0.00000000000E+00 0. -1.
          5    1    1    2  501    0  0.36425002159E+01 -0.14919028012E+01 -0.22762121965E+02  0.23573242844E+02  0.47000000000E+01 0. -1.
         -5    1    1    2    0  503 -0.36425002159E+01  0.14919028012E+01 -0.65145027410E+02  0.65432852437E+02  0.47000000000E+01 0. -1.
<mgrwt>
<rscale>  2 0.61305450E+01</rscale>
<asrwt>0</asrwt>
<pdfrwt beam="1">  1       21 0.84534377E-04 0.61305450E+01</pdfrwt>
<pdfrwt beam="2">  1       21 0.13608699E-01 0.61305450E+01</pdfrwt>
<totfact> 0.20457565E+09</totfact>
</mgrwt>
</event>
<event>
 4    1  0.4043737E+006  0.5051369E+01  0.7546771E-02  0.2558121E+00
         21   -1    0    0  503  502  0.00000000000E+00  0.00000000000E+00  0.20795427221E+03  0.20795427221E+03  0.00000000000E+00 0. -1.
         21   -1    0    0  501  503 -0.00000000000E+00 -0.00000000000E+00 -0.14047613621E+00  0.14047613621E+00  0.00000000000E+00 0. -1.
          5    1    1    2  501    0 -0.12962236114E+01 -0.13214149334E+01  0.66896110065E+02  0.67086555098E+02  0.47000000000E+01 0. -1.
         -5    1    1    2    0  502  0.12962236114E+01  0.13214149334E+01  0.14091768601E+03  0.14100819325E+03  0.47000000000E+01 0. -1.
<mgrwt>
<rscale>  2 0.50513694E+01</rscale>
<asrwt>0</asrwt>
<pdfrwt beam="1">  1       21 0.31992719E-01 0.50513694E+01</pdfrwt>
<pdfrwt beam="2">  1       21 0.21611880E-04 0.50513694E+01</pdfrwt>
<totfact> 0.26780400E+09</totfact>
</mgrwt>
</event>
<event>
 4    1  0.4043737E+006  0.4905199E+01  0.7546771E-02  0.2584251E+00
         21   -1    0    0  501  502  0.00000000000E+00  0.00000000000E+00  0.12305759904E+03  0.12305759904E+03  0.00000000000E+00 0. -1.
         21   -1    0    0  502  503 -0.00000000000E+00 -0.00000000000E+00 -0.12310688362E+01  0.12310688362E+01  0.00000000000E+00 0. -1.
          5    1    1    2  501    0 -0.12389875416E+01  0.66021656268E+00  0.11790926486E+03  0.11801125250E+03  0.47000000000E+01 0. -1.
         -5    1    1    2    0  503  0.12389875416E+01 -0.66021656268E+00  0.39172653363E+01  0.62774153720E+01  0.47000000000E+01 0. -1.
<mgrwt>
<rscale>  2 0.49051989E+01</rscale>
<asrwt>0</asrwt>
<pdfrwt beam="1">  1       21 0.18931929E-01 0.49051989E+01</pdfrwt>
<pdfrwt beam="2">  1       21 0.18939530E-03 0.49051989E+01</pdfrwt>
<totfact> 0.34263231E+08</totfact>
</mgrwt>
</event>
<event>
 4    1  0.4043737E+006  0.6014615E+01  0.7546771E-02  0.2413525E+00
         21   -1    0    0  501  502  0.00000000000E+00  0.00000000000E+00  0.26605387640E+01  0.26605387640E+01  0.00000000000E+00 0. -1.
         21   -1    0    0  502  503 -0.00000000000E+00 -0.00000000000E+00 -0.21089453361E+02  0.21089453361E+02  0.00000000000E+00 0. -1.
          5    1    1    2  501    0 -0.10278411717E+01 -0.36095896080E+01 -0.21364643758E+01  0.63827952060E+01  0.47000000000E+01 0. -1.
         -5    1    1    2    0  503  0.10278411717E+01  0.36095896080E+01 -0.16292450221E+02  0.17367196919E+02  0.47000000000E+01 0. -1.
<mgrwt>
<rscale>  2 0.60146151E+01</rscale>
<asrwt>0</asrwt>
<pdfrwt beam="1">  1       21 0.40931364E-03 0.60146151E+01</pdfrwt>
<pdfrwt beam="2">  1       21 0.32445314E-02 0.60146151E+01</pdfrwt>
<totfact> 0.20396528E+09</totfact>
</mgrwt>
</event>
<event>
 4    1  0.4043737E+006  0.5353369E+01  0.7546771E-02  0.2508042E+00
         21   -1    0    0  503  502  0.00000000000E+00  0.00000000000E+00  0.71120995640E-01  0.71120995640E-01  0.00000000000E+00 0. -1.
         21   -1    0    0  501  503 -0.00000000000E+00 -0.00000000000E+00 -0.40648967561E+03  0.40648967561E+03  0.00000000000E+00 0.  1.
          5    1    1    2  501    0 -0.13332911714E+01 -0.21888106537E+01 -0.22216535317E+03  0.22222984207E+03  0.47000000000E+01 0.  1.
         -5    1    1    2    0  502  0.13332911714E+01  0.21888106537E+01 -0.18425320145E+03  0.18433095454E+03  0.47000000000E+01 0. -1.
<mgrwt>
<rscale>  2 0.53533688E+01</rscale>
<asrwt>0</asrwt>
<pdfrwt beam="1">  1       21 0.10942023E-04 0.53533688E+01</pdfrwt>
<pdfrwt beam="2">  1       21 0.62534982E-01 0.53533688E+01</pdfrwt>
<totfact> 0.21396296E+09</totfact>
</mgrwt>
</event>
<event>
 4    1  0.4043737E+006  0.5459329E+01  0.7546771E-02  0.2491598E+00
         21   -1    0    0  503  502  0.00000000000E+00  0.00000000000E+00  0.81610096547E+00  0.81610096547E+00  0.00000000000E+00 0. -1.
         21   -1    0    0  501  503 -0.00000000000E+00 -0.00000000000E+00 -0.37092026343E+02  0.37092026343E+02  0.00000000000E+00 0. -1.
          5    1    1    2  501    0  0.89041729948E+00 -0.26308602699E+01 -0.20491106195E+02  0.21205888376E+02  0.47000000000E+01 0. -1.
         -5    1    1    2    0  502 -0.89041729948E+00  0.26308602699E+01 -0.15784819182E+02  0.16702238932E+02  0.47000000000E+01 0. -1.
<mgrwt>
<rscale>  2 0.54593286E+01</rscale>
<asrwt>0</asrwt>
<pdfrwt beam="1">  1       21 0.12555399E-03 0.54593286E+01</pdfrwt>
<pdfrwt beam="2">  1       21 0.57064657E-02 0.54593286E+01</pdfrwt>
<totfact> 0.40766552E+09</totfact>
</mgrwt>
</event>
<event>
 4    1  0.4043737E+006  0.5624064E+01  0.7546771E-02  0.2467081E+00
         21   -1    0    0  503  502  0.00000000000E+00  0.00000000000E+00  0.37430976445E+03  0.37430976445E+03  0.00000000000E+00 0. -1.
         21   -1    0    0  501  503 -0.00000000000E+00 -0.00000000000E+00 -0.84930416100E-01  0.84930416100E-01  0.00000000000E+00 0. -1.
          5    1    1    2  501    0  0.11955229079E+01 -0.28479501100E+01  0.20040070685E+03  0.20047960844E+03  0.47000000000E+01 0. -1.
         -5    1    1    2    0  502 -0.11955229079E+01  0.28479501100E+01  0.17382412718E+03  0.17391508642E+03  0.47000000000E+01 0. -1.
<mgrwt>
<rscale>  2 0.56240639E+01</rscale>
<asrwt>0</asrwt>
<pdfrwt beam="1">  1       21 0.57584797E-01 0.56240639E+01</pdfrwt>
<pdfrwt beam="2">  1       21 0.13066518E-04 0.56240639E+01</pdfrwt>
<totfact> 0.20468888E+09</totfact>
</mgrwt>
</event>
<event>
 4    1  0.4043737E+006  0.5376087E+01  0.7546771E-02  0.2504470E+00
         21   -1    0    0  503  502  0.00000000000E+00  0.00000000000E+00  0.13176426569E+01  0.13176426569E+01  0.00000000000E+00 0.  1.
         21   -1    0    0  501  503 -0.00000000000E+00 -0.00000000000E+00 -0.13445922732E+03  0.13445922732E+03  0.00000000000E+00 0.  1.
          5    1    1    2  501    0 -0.35837863273E+00 -0.25853191031E+01 -0.12867539351E+03  0.12878765160E+03  0.47000000000E+01 0.  1.
         -5    1    1    2    0  502  0.35837863273E+00  0.25853191031E+01 -0.44661911584E+01  0.69892183807E+01  0.47000000000E+01 0.  1.
<mgrwt>
<rscale>  2 0.53760869E+01</rscale>
<asrwt>0</asrwt>
<pdfrwt beam="1">  1       21 0.20271431E-03 0.53760869E+01</pdfrwt>
<pdfrwt beam="2">  1       21 0.20686030E-01 0.53760869E+01</pdfrwt>
<totfact> 0.29248061E+08</totfact>
</mgrwt>
</event>
<event>
 4    1  0.4043737E+006  0.5362276E+01  0.7546771E-02  0.2506638E+00
         21   -1    0    0  503  502  0.00000000000E+00  0.00000000000E+00  0.38402998907E+01  0.38402998907E+01  0.00000000000E+00 0.  1.
         21   -1    0    0  501  503 -0.00000000000E+00 -0.00000000000E+00 -0.15397438605E+02  0.15397438605E+02  0.00000000000E+00 0.  1.
          5    1    1    2  501    0 -0.24377105423E+01 -0.84945062227E+00 -0.12672836352E+02  0.13760624268E+02  0.47000000000E+01 0.  1.
         -5    1    1    2    0  502  0.24377105423E+01  0.84945062227E+00  0.11156976372E+01  0.54771142279E+01  0.47000000000E+01 0.  1.
<mgrwt>
<rscale>  2 0.53622755E+01</rscale>
<asrwt>0</asrwt>
<pdfrwt beam="1">  1       21 0.59081538E-03 0.53622755E+01</pdfrwt>
<pdfrwt beam="2">  1       21 0.23688367E-02 0.53622755E+01</pdfrwt>
<totfact> 0.17467313E+09</totfact>
</mgrwt>
</event>
<event>
 4    1  0.4043737E+006  0.6476483E+01  0.7546771E-02  0.2357248E+00
         21   -1    0    0  501  502  0.00000000000E+00  0.00000000000E+00  0.95170117968E-01  0.95170117968E-01  0.00000000000E+00 0.  1.
         21   -1    0    0  502  503 -0.00000000000E+00 -0.00000000000E+00 -0.68887174705E+03  0.68887174705E+03  0.00000000000E+00 0. -1.
          5    1    1    2  501    0 -0.42915466123E+01 -0.11989416839E+01 -0.13763880254E+03  0.13779109114E+03  0.47000000000E+01 0.  1.
         -5    1    1    2    0  503  0.42915466123E+01  0.11989416839E+01 -0.55113777439E+03  0.55117582603E+03  0.47000000000E+01 0. -1.
<mgrwt>
<rscale>  2 0.64764831E+01</rscale>
<asrwt>0</asrwt>
<pdfrwt beam="1">  1       21 0.14642137E-04 0.64764831E+01</pdfrwt>
<pdfrwt beam="2">  1       21 0.10597607E+00 0.64764831E+01</pdfrwt>
<totfact> 0.59497277E+08</totfact>
</mgrwt>
</event>
<event>
 4    1  0.4043737E+006  0.7272436E+01  0.7546771E-02  0.2274374E+00
         21   -1    0    0  503  502  0.00000000000E+00  0.00000000000E+00  0.12576050700E+02  0.12576050700E+02  0.00000000000E+00 0. -1.
         21   -1    0    0  501  503 -0.00000000000E+00 -0.00000000000E+00 -0.54718963553E+01  0.54718963553E+01  0.00000000000E+00 0.  1.
          5    1    1    2  501    0  0.51629594712E+01  0.20352329141E+01 -0.78919706377E+00  0.73151319552E+01  0.47000000000E+01 0.  1.
         -5    1    1    2    0  502 -0.51629594712E+01 -0.20352329141E+01  0.78933514085E+01  0.10732815100E+02  0.47000000000E+01 0. -1.
<mgrwt>
<rscale>  2 0.72724359E+01</rscale>
<asrwt>0</asrwt>
<pdfrwt beam="1">  1       21 0.19347770E-02 0.72724359E+01</pdfrwt>
<pdfrwt beam="2">  1       21 0.84183021E-03 0.72724359E+01</pdfrwt>
<totfact> 0.18338600E+09</totfact>
</mgrwt>
</event>
<event>
 4    1  0.4043737E+006  0.5851014E+01  0.7546771E-02  0.2435227E+00
         21   -1    0    0  503  502  0.00000000000E+00  0.00000000000E+00  0.24633313187E+03  0.24633313187E+03  0.00000000000E+00 0.  1.
         21   -1    0    0  501  503 -0.00000000000E+00 -0.00000000000E+00 -0.23223622445E+00  0.23223622445E+00  0.00000000000E+00 0.  1.
          5    1    1    2  501    0  0.61645586786E+00 -0.34299194647E+01  0.44926246170E+02  0.45305650424E+02  0.47000000000E+01 0.  1.
         -5    1    1    2    0  502 -0.61645586786E+00  0.34299194647E+01  0.20117464948E+03  0.20125971767E+03  0.47000000000E+01 0.  1.
<mgrwt>
<rscale>  2 0.58510140E+01</rscale>
<asrwt>0</asrwt>
<pdfrwt beam="1">  1       21 0.37897196E-01 0.58510140E+01</pdfrwt>
<pdfrwt beam="2">  1       21 0.35728847E-04 0.58510140E+01</pdfrwt>
<totfact> 0.11642756E+09</totfact>
</mgrwt>
</event>
<event>
 4    1  0.4043737E+006  0.4796447E+01  0.7546771E-02  0.2604582E+00
         21   -1    0    0  501  502  0.00000000000E+00  0.00000000000E+00  0.10332284640E+02  0.10332284640E+02  0.00000000000E+00 0.  1.
         21   -1    0    0  502  503 -0.00000000000E+00 -0.00000000000E+00 -0.28656828245E+01  0.28656828245E+01  0.00000000000E+00 0.  1.
          5    1    1    2  501    0  0.69828170516E+00 -0.65444865436E+00  0.68496091339E+01  0.83620000997E+01  0.47000000000E+01 0.  1.
         -5    1    1    2    0  503 -0.69828170516E+00  0.65444865436E+00  0.61699268129E+00  0.48359673644E+01  0.47000000000E+01 0.  1.
<mgrwt>
<rscale>  2 0.47964466E+01</rscale>
<asrwt>0</asrwt>
<pdfrwt beam="1">  1       21 0.15895822E-02 0.47964466E+01</pdfrwt>
<pdfrwt beam="2">  1       21 0.44087429E-03 0.47964466E+01</pdfrwt>
<totfact> 0.41094017E+09</totfact>
</mgrwt>
</event>
<event>
 4    1  0.4043737E+006  0.6853671E+01  0.7546771E-02  0.2316003E+00
         21   -1    0    0  501  502  0.00000000000E+00  0.00000000000E+00  0.55068269495E+01  0.55068269495E+01  0.00000000000E+00 0.  1.
         21   -1    0    0  502  503 -0.00000000000E+00 -0.00000000000E+00 -0.94324010283E+01  0.94324010283E+01  0.00000000000E+00 0. -1.
          5    1    1    2  501    0 -0.44877179651E+01 -0.21778889963E+01  0.34770890873E+00  0.68624860291E+01  0.47000000000E+01 0.  1.
         -5    1    1    2    0  503  0.44877179651E+01  0.21778889963E+01 -0.42732829875E+01  0.80767419487E+01  0.47000000000E+01 0. -1.
<mgrwt>
<rscale>  2 0.68536715E+01</rscale>
<asrwt>0</asrwt>
<pdfrwt beam="1">  1       21 0.84720415E-03 0.68536715E+01</pdfrwt>
<pdfrwt beam="2">  1       21 0.14511386E-02 0.68536715E+01</pdfrwt>
<totfact> 0.26294575E+09</totfact>
</mgrwt>
</event>
<event>
 4    1  0.4043737E+006  0.5177915E+01  0.7546771E-02  0.2536528E+00
         21   -1    0    0  503  502  0.00000000000E+00  0.00000000000E+00  0.75474026360E+02  0.75474026360E+02  0.00000000000E+00 0.  1.
         21   -1    0    0  501  503 -0.00000000000E+00 -0.00000000000E+00 -0.58990269614E+00  0.58990269614E+00  0.00000000000E+00 0.  1.
          5    1    1    2  501    0 -0.47105170467E+00  0.21210653619E+01  0.13454408104E+02  0.14416376292E+02  0.47000000000E+01 0.  1.
         -5    1    1    2    0  502  0.47105170467E+00 -0.21210653619E+01  0.61429715560E+02  0.61647552764E+02  0.47000000000E+01 0.  1.
<mgrwt>
<rscale>  2 0.51779154E+01</rscale>
<asrwt>0</asrwt>
<pdfrwt beam="1">  1       21 0.11611381E-01 0.51779154E+01</pdfrwt>
<pdfrwt beam="2">  1       21 0.90754321E-04 0.51779154E+01</pdfrwt>
<totfact> 0.20538870E+09</totfact>
</mgrwt>
</event>
<event>
 4    1  0.4043737E+006  0.7563746E+01  0.7546771E-02  0.2247653E+00
         21   -1    0    0  503  502  0.00000000000E+00  0.00000000000E+00  0.14107093702E+03  0.14107093702E+03  0.00000000000E+00 0. -1.
         21   -1    0    0  501  503 -0.00000000000E+00 -0.00000000000E+00 -0.40865242604E+00  0.40865242604E+00  0.00000000000E+00 0. -1.
          5    1    1    2  501    0 -0.26848253061E+01 -0.52831772406E+01  0.64159970688E+02  0.64604272980E+02  0.47000000000E+01 0. -1.
         -5    1    1    2    0  502  0.26848253061E+01  0.52831772406E+01  0.76502313906E+02  0.76875316465E+02  0.47000000000E+01 0. -1.
<mgrwt>
<rscale>  2 0.75637457E+01</rscale>
<asrwt>0</asrwt>
<pdfrwt beam="1">  1       21 0.21703182E-01 0.75637457E+01</pdfrwt>
<pdfrwt beam="2">  1       21 0.62869716E-04 0.75637457E+01</pdfrwt>
<totfact> 0.16823868E+09</totfact>
</mgrwt>
</event>
<event>
 4    1  0.4043737E+006  0.5729683E+01  0.7546771E-02  0.2451992E+00
         21   -1    0    0  503  502  0.00000000000E+00  0.00000000000E+00  0.17073811844E+03  0.17073811844E+03  0.00000000000E+00 0. -1.
         21   -1    0    0  501  503 -0.00000000000E+00 -0.00000000000E+00 -0.67735188847E+00  0.67735188847E+00  0.00000000000E+00 0.  1.
          5    1    1    2  501    0  0.11095041747E+01 -0.30835485237E+01  0.12500568849E+02  0.13751126956E+02  0.47000000000E+01 0.  1.
         -5    1    1    2    0  502 -0.11095041747E+01  0.30835485237E+01  0.15756019770E+03  0.15766434337E+03  0.47000000000E+01 0. -1.
<mgrwt>
<rscale>  2 0.57296833E+01</rscale>
<asrwt>0</asrwt>
<pdfrwt beam="1">  1       21 0.26267369E-01 0.57296833E+01</pdfrwt>
<pdfrwt beam="2">  1       21 0.10420812E-03 0.57296833E+01</pdfrwt>
<totfact> 0.50917772E+08</totfact>
</mgrwt>
</event>
<event>
 4    1  0.4043737E+006  0.4802153E+01  0.7546771E-02  0.2603496E+00
         21   -1    0    0  503  502  0.00000000000E+00  0.00000000000E+00  0.88884518752E+01  0.88884518752E+01  0.00000000000E+00 0.  1.
         21   -1    0    0  501  503 -0.00000000000E+00 -0.00000000000E+00 -0.26104939424E+01  0.26104939424E+01  0.00000000000E+00 0.  1.
          5    1    1    2  501    0  0.15747975896E+00 -0.97255876357E+00  0.26882847900E+01  0.55034121720E+01  0.47000000000E+01 0.  1.
         -5    1    1    2    0  502 -0.15747975896E+00  0.97255876357E+00  0.35896731427E+01  0.59955336455E+01  0.47000000000E+01 0.  1.
<mgrwt>
<rscale>  2 0.48021527E+01</rscale>
<asrwt>0</asrwt>
<pdfrwt beam="1">  1       21 0.13674541E-02 0.48021527E+01</pdfrwt>
<pdfrwt beam="2">  1       21 0.40161446E-03 0.48021527E+01</pdfrwt>
<totfact> 0.57719913E+09</totfact>
</mgrwt>
</event>
<event>
 4    1  0.4043737E+006  0.5629968E+01  0.7546771E-02  0.2466225E+00
         21   -1    0    0  503  502  0.00000000000E+00  0.00000000000E+00  0.25933014978E+02  0.25933014978E+02  0.00000000000E+00 0. -1.
         21   -1    0    0  501  503 -0.00000000000E+00 -0.00000000000E+00 -0.25043874942E+01  0.25043874942E+01  0.00000000000E+00 0.  1.
          5    1    1    2  501    0 -0.35902691030E+00  0.30785771052E+01  0.15406575886E+01  0.58369652320E+01  0.47000000000E+01 0.  1.
         -5    1    1    2    0  502  0.35902691030E+00 -0.30785771052E+01  0.21887969895E+02  0.22600437240E+02  0.47000000000E+01 0. -1.
<mgrwt>
<rscale>  2 0.56299678E+01</rscale>
<asrwt>0</asrwt>
<pdfrwt beam="1">  1       21 0.39896944E-02 0.56299678E+01</pdfrwt>
<pdfrwt beam="2">  1       21 0.38529040E-03 0.56299678E+01</pdfrwt>
<totfact> 0.15486643E+09</totfact>
</mgrwt>
</event>
<event>
 4    1  0.4043737E+006  0.7039294E+01  0.7546771E-02  0.2297050E+00
         21   -1    0    0  503  502  0.00000000000E+00  0.00000000000E+00  0.21051561571E+02  0.21051561571E+02  0.00000000000E+00 0. -1.
         21   -1    0    0  501  503 -0.00000000000E+00 -0.00000000000E+00 -0.77899367626E+01  0.77899367626E+01  0.00000000000E+00 0. -1.
          5    1    1    2  501    0  0.45740774097E+00  0.52203869877E+01 -0.54158045611E+01  0.88815877627E+01  0.47000000000E+01 0. -1.
         -5    1    1    2    0  502 -0.45740774097E+00 -0.52203869877E+01  0.18677429369E+02  0.19959910571E+02  0.47000000000E+01 0. -1.
<mgrwt>
<rscale>  2 0.70392942E+01</rscale>
<asrwt>0</asrwt>
<pdfrwt beam="1">  1       21 0.32387018E-02 0.70392942E+01</pdfrwt>
<pdfrwt beam="2">  1       21 0.11984518E-02 0.70392942E+01</pdfrwt>
<totfact> 0.50955353E+08</totfact>
</mgrwt>
</event>
<event>
 4    1  0.4043737E+006  0.7692157E+01  0.7546771E-02  0.2236398E+00
         21   -1    0    0  503  502  0.00000000000E+00  0.00000000000E+00  0.61781225678E+01  0.61781225678E+01  0.00000000000E+00 0. -1.
         21   -1    0    0  501  503 -0.00000000000E+00 -0.00000000000E+00 -0.11259253945E+02  0.11259253945E+02  0.00000000000E+00 0.  1.
          5    1    1    2  501    0  0.43691110427E+01 -0.42414803484E+01 -0.59104323776E+01  0.97006441920E+01  0.47000000000E+01 0.  1.
         -5    1    1    2    0  502 -0.43691110427E+01  0.42414803484E+01  0.82930100082E+00  0.77367323205E+01  0.47000000000E+01 0. -1.
<mgrwt>
<rscale>  2 0.76921575E+01</rscale>
<asrwt>0</asrwt>
<pdfrwt beam="1">  1       21 0.95048040E-03 0.76921575E+01</pdfrwt>
<pdfrwt beam="2">  1       21 0.17321929E-02 0.76921575E+01</pdfrwt>
<totfact> 0.18886254E+09</totfact>
</mgrwt>
</event>
<event>
 4    1  0.4043737E+006  0.9728206E+01  0.7546771E-02  0.2090794E+00
         21   -1    0    0  501  502  0.00000000000E+00  0.00000000000E+00  0.32499948874E+03  0.32499948874E+03  0.00000000000E+00 0.  1.
         21   -1    0    0  502  503 -0.00000000000E+00 -0.00000000000E+00 -0.30315874298E+00  0.30315874298E+00  0.00000000000E+00 0. -1.
          5    1    1    2  501    0 -0.70508582719E+01  0.47784299060E+01  0.13003578016E+03  0.13039916456E+03  0.47000000000E+01 0. -1.
         -5    1    1    2    0  503  0.70508582719E+01 -0.47784299060E+01  0.19466054984E+03  0.19490348293E+03  0.47000000000E+01 0.  1.
<mgrwt>
<rscale>  2 0.97282061E+01</rscale>
<asrwt>0</asrwt>
<pdfrwt beam="1">  1       21 0.49999643E-01 0.97282061E+01</pdfrwt>
<pdfrwt beam="2">  1       21 0.46640067E-04 0.97282061E+01</pdfrwt>
<totfact> 0.68149651E+08</totfact>
</mgrwt>
</event>
<event>
 4    1  0.4043737E+006  0.4823209E+01  0.7546771E-02  0.2599505E+00
         21   -1    0    0  503  502  0.00000000000E+00  0.00000000000E+00  0.20166334961E+00  0.20166334961E+00  0.00000000000E+00 0. -1.
         21   -1    0    0  501  503 -0.00000000000E+00 -0.00000000000E+00 -0.11595704976E+03  0.11595704976E+03  0.00000000000E+00 0. -1.
          5    1    1    2  501    0 -0.97055530265E+00  0.48100867336E+00 -0.53700881090E+02  0.53917047182E+02  0.47000000000E+01 0.  1.
         -5    1    1    2    0  502  0.97055530265E+00 -0.48100867336E+00 -0.62054505325E+02  0.62241665933E+02  0.47000000000E+01 0.  1.
<mgrwt>
<rscale>  2 0.48232092E+01</rscale>
<asrwt>0</asrwt>
<pdfrwt beam="1">  1       21 0.31025054E-04 0.48232092E+01</pdfrwt>
<pdfrwt beam="2">  1       21 0.17839590E-01 0.48232092E+01</pdfrwt>
<totfact> 0.40851557E+09</totfact>
</mgrwt>
</event>
<event>
 4    1  0.4043737E+006  0.5380552E+01  0.7546771E-02  0.2503771E+00
         21   -1    0    0  501  502  0.00000000000E+00  0.00000000000E+00  0.71141119490E+01  0.71141119490E+01  0.00000000000E+00 0.  1.
         21   -1    0    0  502  503 -0.00000000000E+00 -0.00000000000E+00 -0.31631278590E+02  0.31631278590E+02  0.00000000000E+00 0. -1.
          5    1    1    2  501    0 -0.87056714443E+00  0.24703135360E+01  0.58250584007E+01  0.79297945428E+01  0.47000000000E+01 0.  1.
         -5    1    1    2    0  503  0.87056714443E+00 -0.24703135360E+01 -0.30342225042E+02  0.30815595997E+02  0.47000000000E+01 0. -1.
<mgrwt>
<rscale>  2 0.53805517E+01</rscale>
<asrwt>0</asrwt>
<pdfrwt beam="1">  1       21 0.10944788E-02 0.53805517E+01</pdfrwt>
<pdfrwt beam="2">  1       21 0.48663504E-02 0.53805517E+01</pdfrwt>
<totfact> 0.26127032E+08</totfact>
</mgrwt>
</event>
<event>
 4    1  0.4043737E+006  0.7923036E+01  0.7546771E-02  0.2216909E+00
         21   -1    0    0  503  502  0.00000000000E+00  0.00000000000E+00  0.22998021427E+00  0.22998021427E+00  0.00000000000E+00 0. -1.
         21   -1    0    0  501  503 -0.00000000000E+00 -0.00000000000E+00 -0.89287087988E+03  0.89287087988E+03  0.00000000000E+00 0.  1.
          5    1    1    2  501    0 -0.56443578514E+01 -0.29708117322E+01 -0.81840546877E+03  0.81844381958E+03  0.47000000000E+01 0.  1.
         -5    1    1    2    0  502  0.56443578514E+01  0.29708117322E+01 -0.74235430890E+02  0.74657040507E+02  0.47000000000E+01 0. -1.
<mgrwt>
<rscale>  2 0.79230359E+01</rscale>
<asrwt>0</asrwt>
<pdfrwt beam="1">  1       21 0.35381905E-04 0.79230359E+01</pdfrwt>
<pdfrwt beam="2">  1       21 0.13736346E+00 0.79230359E+01</pdfrwt>
<totfact> 0.11737321E+08</totfact>
</mgrwt>
</event>
<event>
 4    1  0.4043737E+006  0.7493593E+01  0.7546771E-02  0.2253933E+00
         21   -1    0    0  503  502  0.00000000000E+00  0.00000000000E+00  0.16325419984E+03  0.16325419984E+03  0.00000000000E+00 0.  1.
         21   -1    0    0  501  503 -0.00000000000E+00 -0.00000000000E+00 -0.61455014563E+01  0.61455014563E+01  0.00000000000E+00 0.  1.
          5    1    1    2  501    0 -0.47659813949E+01  0.33688797317E+01 -0.37410296649E+01  0.83755138503E+01  0.47000000000E+01 0.  1.
         -5    1    1    2    0  502  0.47659813949E+01 -0.33688797317E+01  0.16084972805E+03  0.16102418745E+03  0.47000000000E+01 0.  1.
<mgrwt>
<rscale>  2 0.74935925E+01</rscale>
<asrwt>0</asrwt>
<pdfrwt beam="1">  1       21 0.25116027E-01 0.74935925E+01</pdfrwt>
<pdfrwt beam="2">  1       21 0.94546189E-03 0.74935925E+01</pdfrwt>
<totfact> 0.30618133E+07</totfact>
</mgrwt>
</event>
<event>
 4    1  0.4043737E+006  0.7218611E+01  0.7546771E-02  0.2279503E+00
         21   -1    0    0  503  502  0.00000000000E+00  0.00000000000E+00  0.51194500558E+01  0.51194500558E+01  0.00000000000E+00 0. -1.
         21   -1    0    0  501  503 -0.00000000000E+00 -0.00000000000E+00 -0.11054636723E+02  0.11054636723E+02  0.00000000000E+00 0. -1.
          5    1    1    2  501    0 -0.28880218297E+01  0.46559293327E+01 -0.52442746106E+01  0.89224864377E+01  0.47000000000E+01 0. -1.
         -5    1    1    2    0  502  0.28880218297E+01 -0.46559293327E+01 -0.69091205691E+00  0.72516003413E+01  0.47000000000E+01 0. -1.
<mgrwt>
<rscale>  2 0.72186112E+01</rscale>
<asrwt>0</asrwt>
<pdfrwt beam="1">  1       21 0.78760772E-03 0.72186112E+01</pdfrwt>
<pdfrwt beam="2">  1       21 0.17007133E-02 0.72186112E+01</pdfrwt>
<totfact> 0.24161347E+09</totfact>
</mgrwt>
</event>
<event>
 4    1  0.4043737E+006  0.7895214E+01  0.7546771E-02  0.2219209E+00
         21   -1    0    0  501  502  0.00000000000E+00  0.00000000000E+00  0.12424536380E+01  0.12424536380E+01  0.00000000000E+00 0. -1.
         21   -1    0    0  502  503 -0.00000000000E+00 -0.00000000000E+00 -0.85759055605E+02  0.85759055605E+02  0.00000000000E+00 0. -1.
          5    1    1    2  501    0  0.62269001380E+01  0.12124813664E+01 -0.14235432717E+02  0.16278265910E+02  0.47000000000E+01 0. -1.
         -5    1    1    2    0  503 -0.62269001380E+01 -0.12124813664E+01 -0.70281169251E+02  0.70723243334E+02  0.47000000000E+01 0. -1.
<mgrwt>
<rscale>  2 0.78952135E+01</rscale>
<asrwt>0</asrwt>
<pdfrwt beam="1">  1       21 0.19114664E-03 0.78952135E+01</pdfrwt>
<pdfrwt beam="2">  1       21 0.13193706E-01 0.78952135E+01</pdfrwt>
<totfact> 0.85082064E+08</totfact>
</mgrwt>
</event>
<event>
 4    1  0.4043737E+006  0.8951120E+01  0.7546771E-02  0.2140106E+00
         21   -1    0    0  503  502  0.00000000000E+00  0.00000000000E+00  0.18566698708E+00  0.18566698708E+00  0.00000000000E+00 0. -1.
         21   -1    0    0  501  503 -0.00000000000E+00 -0.00000000000E+00 -0.51070294381E+03  0.51070294381E+03  0.00000000000E+00 0.  1.
          5    1    1    2  501    0 -0.73874663978E+01 -0.18595380400E+01 -0.35583034538E+03  0.35594291289E+03  0.47000000000E+01 0.  1.
         -5    1    1    2    0  502  0.73874663978E+01  0.18595380400E+01 -0.15468693145E+03  0.15494569791E+03  0.47000000000E+01 0. -1.
<mgrwt>
<rscale>  2 0.89511196E+01</rscale>
<asrwt>0</asrwt>
<pdfrwt beam="1">  1       21 0.28564036E-04 0.89511196E+01</pdfrwt>
<pdfrwt beam="2">  1       21 0.78570003E-01 0.89511196E+01</pdfrwt>
<totfact> 0.53337710E+08</totfact>
</mgrwt>
</event>
<event>
 4    1  0.4043737E+006  0.8695106E+01  0.7546771E-02  0.2157867E+00
         21   -1    0    0  503  502  0.00000000000E+00  0.00000000000E+00  0.27323947724E+02  0.27323947724E+02  0.00000000000E+00 0. -1.
         21   -1    0    0  501  503 -0.00000000000E+00 -0.00000000000E+00 -0.41853274118E+01  0.41853274118E+01  0.00000000000E+00 0.  1.
          5    1    1    2  501    0  0.20637384131E+01 -0.70182513285E+01  0.23979294404E+01  0.90196969765E+01  0.47000000000E+01 0. -1.
         -5    1    1    2    0  502 -0.20637384131E+01  0.70182513285E+01  0.20740690871E+02  0.22489578159E+02  0.47000000000E+01 0. -1.
<mgrwt>
<rscale>  2 0.86951060E+01</rscale>
<asrwt>0</asrwt>
<pdfrwt beam="1">  1       21 0.42036842E-02 0.86951060E+01</pdfrwt>
<pdfrwt beam="2">  1       21 0.64389654E-03 0.86951060E+01</pdfrwt>
<totfact> 0.96472691E+08</totfact>
</mgrwt>
</event>
<event>
 4    1  0.4043737E+006  0.4904838E+01  0.7546771E-02  0.2584317E+00
         21   -1    0    0  501  502  0.00000000000E+00  0.00000000000E+00  0.96136150093E+01  0.96136150093E+01  0.00000000000E+00 0.  1.
         21   -1    0    0  502  503 -0.00000000000E+00 -0.00000000000E+00 -0.25132147386E+01  0.25132147386E+01  0.00000000000E+00 0.  1.
          5    1    1    2  501    0 -0.46949244702E+00 -0.13217445866E+01  0.31530657077E+01  0.58308880342E+01  0.47000000000E+01 0.  1.
         -5    1    1    2    0  503  0.46949244702E+00  0.13217445866E+01  0.39473345631E+01  0.62959417137E+01  0.47000000000E+01 0.  1.
<mgrwt>
<rscale>  2 0.49048376E+01</rscale>
<asrwt>0</asrwt>
<pdfrwt beam="1">  1       21 0.14790177E-02 0.49048376E+01</pdfrwt>
<pdfrwt beam="2">  1       21 0.38664843E-03 0.49048376E+01</pdfrwt>
<totfact> 0.55726675E+09</totfact>
</mgrwt>
</event>
<event>
 4    1  0.4043737E+006  0.6626018E+01  0.7546771E-02  0.2340433E+00
         21   -1    0    0  503  502  0.00000000000E+00  0.00000000000E+00  0.13840097096E+00  0.13840097096E+00  0.00000000000E+00 0. -1.
         21   -1    0    0  501  503 -0.00000000000E+00 -0.00000000000E+00 -0.62024830495E+03  0.62024830495E+03  0.00000000000E+00 0.  1.
          5    1    1    2  501    0 -0.45890261324E+01  0.86888047085E+00 -0.52686949162E+03  0.52691115505E+03  0.47000000000E+01 0.  1.
         -5    1    1    2    0  502  0.45890261324E+01 -0.86888047085E+00 -0.93240412358E+02  0.93475550872E+02  0.47000000000E+01 0. -1.
<mgrwt>
<rscale>  2 0.66260180E+01</rscale>
<asrwt>0</asrwt>
<pdfrwt beam="1">  1       21 0.21293028E-04 0.66260180E+01</pdfrwt>
<pdfrwt beam="2">  1       21 0.95420259E-01 0.66260180E+01</pdfrwt>
<totfact> 0.45307275E+08</totfact>
</mgrwt>
</event>
<event>
 4    1  0.4043737E+006  0.8590796E+01  0.7546771E-02  0.2165345E+00
         21   -1    0    0  503  502  0.00000000000E+00  0.00000000000E+00  0.39682851212E+01  0.39682851212E+01  0.00000000000E+00 0.  1.
         21   -1    0    0  501  503 -0.00000000000E+00 -0.00000000000E+00 -0.19084472564E+02  0.19084472564E+02  0.00000000000E+00 0.  1.
          5    1    1    2  501    0  0.54546658144E+01 -0.46859793198E+01 -0.57176381995E+01  0.10319552699E+02  0.47000000000E+01 0.  1.
         -5    1    1    2    0  502 -0.54546658144E+01  0.46859793198E+01 -0.93985492428E+01  0.12733204985E+02  0.47000000000E+01 0.  1.
<mgrwt>
<rscale>  2 0.85907963E+01</rscale>
<asrwt>0</asrwt>
<pdfrwt beam="1">  1       21 0.61050538E-03 0.85907963E+01</pdfrwt>
<pdfrwt beam="2">  1       21 0.29360728E-02 0.85907963E+01</pdfrwt>
<totfact> 0.17668041E+09</totfact>
</mgrwt>
</event>
<event>
 4    1  0.4043737E+006  0.5398679E+01  0.7546771E-02  0.2500943E+00
         21   -1    0    0  503  502  0.00000000000E+00  0.00000000000E+00  0.24940239192E+02  0.24940239192E+02  0.00000000000E+00 0. -1.
         21   -1    0    0  501  503 -0.00000000000E+00 -0.00000000000E+00 -0.30681962377E+01  0.30681962377E+01  0.00000000000E+00 0.  1.
          5    1    1    2  501    0 -0.15004762493E+01 -0.21918717983E+01 -0.83058542163E-01  0.53993175195E+01  0.47000000000E+01 0.  1.
         -5    1    1    2    0  502  0.15004762493E+01  0.21918717983E+01  0.21955101497E+02  0.22609117910E+02  0.47000000000E+01 0. -1.
<mgrwt>
<rscale>  2 0.53986786E+01</rscale>
<asrwt>0</asrwt>
<pdfrwt beam="1">  1       21 0.38369598E-02 0.53986786E+01</pdfrwt>
<pdfrwt beam="2">  1       21 0.47203021E-03 0.53986786E+01</pdfrwt>
<totfact> 0.11949038E+09</totfact>
</mgrwt>
</event>
<event>
 4    1  0.4043737E+006  0.1261116E+02  0.7546771E-02  0.1951127E+00
         21   -1    0    0  503  502  0.00000000000E+00  0.00000000000E+00  0.14845794564E+00  0.14845794564E+00  0.00000000000E+00 0.  1.
         21   -1    0    0  501  503 -0.00000000000E+00 -0.00000000000E+00 -0.19302039766E+04  0.19302039766E+04  0.00000000000E+00 0. -1.
          5    1    1    2  501    0 -0.93771084407E+01 -0.70015130464E+01 -0.16088709765E+04  0.16089204021E+04  0.47000000000E+01 0. -1.
         -5    1    1    2    0  502  0.93771084407E+01  0.70015130464E+01 -0.32118454219E+03  0.32143203246E+03  0.47000000000E+01 0.  1.
<mgrwt>
<rscale>  2 0.12611160E+02</rscale>
<asrwt>0</asrwt>
<pdfrwt beam="1">  1       21 0.22837046E-04 0.12611160E+02</pdfrwt>
<pdfrwt beam="2">  1       21 0.29698876E+00 0.12611160E+02</pdfrwt>
<totfact> 0.37623171E+07</totfact>
</mgrwt>
</event>
<event>
 4    1  0.4043737E+006  0.5846332E+01  0.7546771E-02  0.2435863E+00
         21   -1    0    0  503  502  0.00000000000E+00  0.00000000000E+00  0.59711297987E+01  0.59711297987E+01  0.00000000000E+00 0. -1.
         21   -1    0    0  501  503 -0.00000000000E+00 -0.00000000000E+00 -0.98927894062E+01  0.98927894062E+01  0.00000000000E+00 0. -1.
          5    1    1    2  501    0  0.21988722731E+01  0.26934280708E+01 -0.71097801096E+01  0.92048121791E+01  0.47000000000E+01 0. -1.
         -5    1    1    2    0  502 -0.21988722731E+01 -0.26934280708E+01  0.31881205021E+01  0.66591070258E+01  0.47000000000E+01 0. -1.
<mgrwt>
<rscale>  2 0.58463317E+01</rscale>
<asrwt>0</asrwt>
<pdfrwt beam="1">  1       21 0.91863536E-03 0.58463317E+01</pdfrwt>
<pdfrwt beam="2">  1       21 0.15219676E-02 0.58463317E+01</pdfrwt>
<totfact> 0.19170533E+09</totfact>
</mgrwt>
</event>
<event>
 4    1  0.4043737E+006  0.4932929E+01  0.7546771E-02  0.2579191E+00
         21   -1    0    0  503  502  0.00000000000E+00  0.00000000000E+00  0.50810926412E+02  0.50810926412E+02  0.00000000000E+00 0.  1.
         21   -1    0    0  501  503 -0.00000000000E+00 -0.00000000000E+00 -0.47892720115E+00  0.47892720115E+00  0.00000000000E+00 0.  1.
          5    1    1    2  501    0  0.68857486324E+00  0.13302844263E+01  0.25325621576E+02  0.25801567786E+02  0.47000000000E+01 0.  1.
         -5    1    1    2    0  502 -0.68857486324E+00 -0.13302844263E+01  0.25006377634E+02  0.25488285827E+02  0.47000000000E+01 0.  1.
<mgrwt>
<rscale>  2 0.49329294E+01</rscale>
<asrwt>0</asrwt>
<pdfrwt beam="1">  1       21 0.78170613E-02 0.49329294E+01</pdfrwt>
<pdfrwt beam="2">  1       21 0.73681148E-04 0.49329294E+01</pdfrwt>
<totfact> 0.46922469E+09</totfact>
</mgrwt>
</event>
<event>
 4    1  0.4043737E+006  0.4937669E+01  0.7546771E-02  0.2578331E+00
         21   -1    0    0  503  502  0.00000000000E+00  0.00000000000E+00  0.10059313168E+02  0.10059313168E+02  0.00000000000E+00 0. -1.
         21   -1    0    0  501  503 -0.00000000000E+00 -0.00000000000E+00 -0.24423362152E+01  0.24423362152E+01  0.00000000000E+00 0. -1.
          5    1    1    2  501    0  0.12635178100E+01 -0.83312318978E+00  0.32621917668E+01  0.59179782552E+01  0.47000000000E+01 0.  1.
         -5    1    1    2    0  502 -0.12635178100E+01  0.83312318978E+00  0.43547851859E+01  0.65836711280E+01  0.47000000000E+01 0.  1.
<mgrwt>
<rscale>  2 0.49376686E+01</rscale>
<asrwt>0</asrwt>
<pdfrwt beam="1">  1       21 0.15475866E-02 0.49376686E+01</pdfrwt>
<pdfrwt beam="2">  1       21 0.37574404E-03 0.49376686E+01</pdfrwt>
<totfact> 0.54759091E+09</totfact>
</mgrwt>
</event>
<event>
 4    1  0.4043737E+006  0.5718562E+01  0.7546771E-02  0.2453559E+00
         21   -1    0    0  501  502  0.00000000000E+00  0.00000000000E+00  0.30485647266E+03  0.30485647266E+03  0.00000000000E+00 0.  1.
         21   -1    0    0  502  503 -0.00000000000E+00 -0.00000000000E+00 -0.18840540951E+00  0.18840540951E+00  0.00000000000E+00 0.  1.
          5    1    1    2  501    0  0.20072382183E+01  0.25657248073E+01  0.52243658794E+02  0.52555702195E+02  0.47000000000E+01 0.  1.
         -5    1    1    2    0  503 -0.20072382183E+01 -0.25657248073E+01  0.25242440845E+03  0.25248917587E+03  0.47000000000E+01 0.  1.
<mgrwt>
<rscale>  2 0.57185618E+01</rscale>
<asrwt>0</asrwt>
<pdfrwt beam="1">  1       21 0.46900601E-01 0.57185618E+01</pdfrwt>
<pdfrwt beam="2">  1       21 0.28985692E-04 0.57185618E+01</pdfrwt>
<totfact> 0.10406019E+09</totfact>
</mgrwt>
</event>
<event>
 4    1  0.4043737E+006  0.5716330E+01  0.7546771E-02  0.2453874E+00
         21   -1    0    0  503  502  0.00000000000E+00  0.00000000000E+00  0.84546420318E+00  0.84546420318E+00  0.00000000000E+00 0. -1.
         21   -1    0    0  501  503 -0.00000000000E+00 -0.00000000000E+00 -0.38876497515E+02  0.38876497515E+02  0.00000000000E+00 0. -1.
          5    1    1    2  501    0  0.29956125358E+01  0.12699345902E+01 -0.17496535182E+02  0.18406661069E+02  0.47000000000E+01 0. -1.
         -5    1    1    2    0  502 -0.29956125358E+01 -0.12699345902E+01 -0.20534498130E+02  0.21315300650E+02  0.47000000000E+01 0. -1.
<mgrwt>
<rscale>  2 0.57163300E+01</rscale>
<asrwt>0</asrwt>
<pdfrwt beam="1">  1       21 0.13007139E-03 0.57163300E+01</pdfrwt>
<pdfrwt beam="2">  1       21 0.59810008E-02 0.57163300E+01</pdfrwt>
<totfact> 0.37831980E+09</totfact>
</mgrwt>
</event>
<event>
 4    1  0.4043737E+006  0.6378766E+01  0.7546771E-02  0.2368588E+00
         21   -1    0    0  501  502  0.00000000000E+00  0.00000000000E+00  0.11274906845E+04  0.11274906845E+04  0.00000000000E+00 0. -1.
         21   -1    0    0  502  503 -0.00000000000E+00 -0.00000000000E+00 -0.57483047377E-01  0.57483047377E-01  0.00000000000E+00 0. -1.
          5    1    1    2  501    0 -0.40768735755E+01 -0.14063277790E+01  0.90766547576E+03  0.90768788938E+03  0.47000000000E+01 0. -1.
         -5    1    1    2    0  503  0.40768735755E+01  0.14063277790E+01  0.21976772566E+03  0.21986027813E+03  0.47000000000E+01 0. -1.
<mgrwt>
<rscale>  2 0.63787660E+01</rscale>
<asrwt>0</asrwt>
<pdfrwt beam="1">  1       21 0.17344240E+00 0.63787660E+01</pdfrwt>
<pdfrwt beam="2">  1       21 0.88444487E-05 0.63787660E+01</pdfrwt>
<totfact> 0.40460171E+08</totfact>
</mgrwt>
</event>
<event>
 4    1  0.4043737E+006  0.4822323E+01  0.7546771E-02  0.2599673E+00
         21   -1    0    0  503  502  0.00000000000E+00  0.00000000000E+00  0.77245138895E+00  0.77245138895E+00  0.00000000000E+00 0. -1.
         21   -1    0    0  501  503 -0.00000000000E+00 -0.00000000000E+00 -0.30105334552E+02  0.30105334552E+02  0.00000000000E+00 0. -1.
          5    1    1    2  501    0  0.10709077779E+01  0.13399750950E+00 -0.14633064306E+02  0.15407185655E+02  0.47000000000E+01 0.  1.
         -5    1    1    2    0  502 -0.10709077779E+01 -0.13399750950E+00 -0.14699818857E+02  0.15470600287E+02  0.47000000000E+01 0.  1.
<mgrwt>
<rscale>  2 0.48223230E+01</rscale>
<asrwt>0</asrwt>
<pdfrwt beam="1">  1       21 0.11883868E-03 0.48223230E+01</pdfrwt>
<pdfrwt beam="2">  1       21 0.46315898E-02 0.48223230E+01</pdfrwt>
<totfact> 0.52479441E+09</totfact>
</mgrwt>
</event>
<event>
 4    1  0.4043737E+006  0.6512687E+01  0.7546771E-02  0.2353119E+00
         21   -1    0    0  501  502  0.00000000000E+00  0.00000000000E+00  0.94147854437E+00  0.94147854437E+00  0.00000000000E+00 0. -1.
         21   -1    0    0  502  503 -0.00000000000E+00 -0.00000000000E+00 -0.61834501403E+02  0.61834501403E+02  0.00000000000E+00 0.  1.
          5    1    1    2  501    0  0.40229990842E+01 -0.20348387642E+01 -0.14094095314E+02  0.15526062384E+02  0.47000000000E+01 0. -1.
         -5    1    1    2    0  503 -0.40229990842E+01  0.20348387642E+01 -0.46798927544E+02  0.47249917563E+02  0.47000000000E+01 0.  1.
<mgrwt>
<rscale>  2 0.65126869E+01</rscale>
<asrwt>0</asrwt>
<pdfrwt beam="1">  1       21 0.14484286E-03 0.65126869E+01</pdfrwt>
<pdfrwt beam="2">  1       21 0.95130000E-02 0.65126869E+01</pdfrwt>
<totfact> 0.18106050E+09</totfact>
</mgrwt>
</event>
<event>
 4    1  0.4043737E+006  0.9293726E+01  0.7546771E-02  0.2117561E+00
         21   -1    0    0  503  502  0.00000000000E+00  0.00000000000E+00  0.67863961930E+00  0.67863961930E+00  0.00000000000E+00 0.  1.
         21   -1    0    0  501  503 -0.00000000000E+00 -0.00000000000E+00 -0.21021551437E+03  0.21021551437E+03  0.00000000000E+00 0. -1.
          5    1    1    2  501    0  0.31663855015E+00  0.80114344330E+01 -0.17100343356E+03  0.17125579591E+03  0.47000000000E+01 0. -1.
         -5    1    1    2    0  502 -0.31663855015E+00 -0.80114344330E+01 -0.38533441191E+02  0.39638358085E+02  0.47000000000E+01 0.  1.
<mgrwt>
<rscale>  2 0.92937259E+01</rscale>
<asrwt>0</asrwt>
<pdfrwt beam="1">  1       21 0.10440608E-03 0.92937259E+01</pdfrwt>
<pdfrwt beam="2">  1       21 0.32340853E-01 0.92937259E+01</pdfrwt>
<totfact> 0.48397704E+08</totfact>
</mgrwt>
</event>
<event>
 4    1  0.4043737E+006  0.4955391E+01  0.7546771E-02  0.2575129E+00
         21   -1    0    0  501  502  0.00000000000E+00  0.00000000000E+00  0.53258214627E+01  0.53258214627E+01  0.00000000000E+00 0. -1.
         21   -1    0    0  502  503 -0.00000000000E+00 -0.00000000000E+00 -0.48894634691E+01  0.48894634691E+01  0.00000000000E+00 0. -1.
          5    1    1    2  501    0  0.10103677264E+01 -0.12021064917E+01  0.14376953823E+01  0.51597355525E+01  0.47000000000E+01 0.  1.
         -5    1    1    2    0  503 -0.10103677264E+01  0.12021064917E+01 -0.10013373887E+01  0.50555493792E+01  0.47000000000E+01 0.  1.
<mgrwt>
<rscale>  2 0.49553913E+01</rscale>
<asrwt>0</asrwt>
<pdfrwt beam="1">  1       21 0.81935716E-03 0.49553913E+01</pdfrwt>
<pdfrwt beam="2">  1       21 0.75222514E-03 0.49553913E+01</pdfrwt>
<totfact> 0.51495390E+09</totfact>
</mgrwt>
</event>
<event>
 4    1  0.4043737E+006  0.6924702E+01  0.7546771E-02  0.2308652E+00
         21   -1    0    0  503  502  0.00000000000E+00  0.00000000000E+00  0.57639154292E+00  0.57639154292E+00  0.00000000000E+00 0.  1.
         21   -1    0    0  501  503 -0.00000000000E+00 -0.00000000000E+00 -0.26090972041E+03  0.26090972041E+03  0.00000000000E+00 0. -1.
          5    1    1    2  501    0 -0.42938333656E+01 -0.27247911821E+01 -0.23807082153E+03  0.23817150870E+03  0.47000000000E+01 0. -1.
         -5    1    1    2    0  502  0.42938333656E+01  0.27247911821E+01 -0.22262507337E+02  0.23314603254E+02  0.47000000000E+01 0.  1.
<mgrwt>
<rscale>  2 0.69247016E+01</rscale>
<asrwt>0</asrwt>
<pdfrwt beam="1">  1       21 0.88675611E-04 0.69247016E+01</pdfrwt>
<pdfrwt beam="2">  1       21 0.40139962E-01 0.69247016E+01</pdfrwt>
<totfact> 0.34935417E+08</totfact>
</mgrwt>
</event>
<event>
 4    1  0.4043737E+006  0.5893647E+01  0.7546771E-02  0.2429474E+00
         21   -1    0    0  501  502  0.00000000000E+00  0.00000000000E+00  0.12630188245E+00  0.12630188245E+00  0.00000000000E+00 0. -1.
         21   -1    0    0  502  503 -0.00000000000E+00 -0.00000000000E+00 -0.30227262855E+03  0.30227262855E+03  0.00000000000E+00 0.  1.
          5    1    1    2  501    0  0.32009905017E+01 -0.15487840910E+01 -0.10567013963E+03  0.10583436815E+03  0.47000000000E+01 0. -1.
         -5    1    1    2    0  503 -0.32009905017E+01  0.15487840910E+01 -0.19647618704E+03  0.19656456228E+03  0.47000000000E+01 0. -1.
<mgrwt>
<rscale>  2 0.58936468E+01</rscale>
<asrwt>0</asrwt>
<pdfrwt beam="1">  1       21 0.19430978E-04 0.58936468E+01</pdfrwt>
<pdfrwt beam="2">  1       21 0.46503675E-01 0.58936468E+01</pdfrwt>
<totfact> 0.18418967E+09</totfact>
</mgrwt>
</event>
<event>
 4    1  0.4043737E+006  0.7161625E+01  0.7546771E-02  0.2285002E+00
         21   -1    0    0  503  502  0.00000000000E+00  0.00000000000E+00  0.40050352305E+02  0.40050352305E+02  0.00000000000E+00 0.  1.
         21   -1    0    0  501  503 -0.00000000000E+00 -0.00000000000E+00 -0.22758070724E+01  0.22758070724E+01  0.00000000000E+00 0. -1.
          5    1    1    2  501    0 -0.14725548971E+01  0.51990818928E+01  0.48925030506E+01  0.86732610103E+01  0.47000000000E+01 0.  1.
         -5    1    1    2    0  502  0.14725548971E+01 -0.51990818928E+01  0.32882042182E+02  0.33652898367E+02  0.47000000000E+01 0.  1.
<mgrwt>
<rscale>  2 0.71616248E+01</rscale>
<asrwt>0</asrwt>
<pdfrwt beam="1">  1       21 0.61615921E-02 0.71616248E+01</pdfrwt>
<pdfrwt beam="2">  1       21 0.35012419E-03 0.71616248E+01</pdfrwt>
<totfact> 0.11206742E+09</totfact>
</mgrwt>
</event>
<event>
 4    1  0.4043737E+006  0.1448394E+02  0.7546771E-02  0.1884237E+00
         21   -1    0    0  501  502  0.00000000000E+00  0.00000000000E+00  0.67226688674E+01  0.67226688674E+01  0.00000000000E+00 0.  1.
         21   -1    0    0  502  503 -0.00000000000E+00 -0.00000000000E+00 -0.44533888874E+02  0.44533888874E+02  0.00000000000E+00 0.  1.
          5    1    1    2  501    0 -0.28156271023E+01  0.13407716315E+02 -0.48851564533E+01  0.15285593425E+02  0.47000000000E+01 0.  1.
         -5    1    1    2    0  503  0.28156271023E+01 -0.13407716315E+02 -0.32926063553E+02  0.35970964317E+02  0.47000000000E+01 0.  1.
<mgrwt>
<rscale>  2 0.14483943E+02</rscale>
<asrwt>0</asrwt>
<pdfrwt beam="1">  1       21 0.10342568E-02 0.14483943E+02</pdfrwt>
<pdfrwt beam="2">  1       21 0.68513675E-02 0.14483943E+02</pdfrwt>
<totfact> 0.29672534E+08</totfact>
</mgrwt>
</event>
<event>
 4    1  0.4043737E+006  0.6298688E+01  0.7546771E-02  0.2378098E+00
         21   -1    0    0  503  502  0.00000000000E+00  0.00000000000E+00  0.34962139816E+01  0.34962139816E+01  0.00000000000E+00 0. -1.
         21   -1    0    0  501  503 -0.00000000000E+00 -0.00000000000E+00 -0.14793476171E+02  0.14793476171E+02  0.00000000000E+00 0.  1.
          5    1    1    2  501    0  0.40202654833E+01 -0.11920281745E+01 -0.10062243267E+02  0.11871065887E+02  0.47000000000E+01 0. -1.
         -5    1    1    2    0  502 -0.40202654833E+01  0.11920281745E+01 -0.12350189224E+01  0.64186242657E+01  0.47000000000E+01 0. -1.
<mgrwt>
<rscale>  2 0.62986876E+01</rscale>
<asrwt>0</asrwt>
<pdfrwt beam="1">  1       21 0.53787907E-03 0.62986876E+01</pdfrwt>
<pdfrwt beam="2">  1       21 0.22759194E-02 0.62986876E+01</pdfrwt>
<totfact> 0.24293364E+09</totfact>
</mgrwt>
</event>
<event>
 4    1  0.4043737E+006  0.4985824E+01  0.7546771E-02  0.2569675E+00
         21   -1    0    0  501  502  0.00000000000E+00  0.00000000000E+00  0.79851486133E-01  0.79851486133E-01  0.00000000000E+00 0.  1.
         21   -1    0    0  502  503 -0.00000000000E+00 -0.00000000000E+00 -0.31342137768E+03  0.31342137768E+03  0.00000000000E+00 0.  1.
          5    1    1    2  501    0 -0.14370920049E+01 -0.83857475152E+00 -0.16954107220E+03  0.16961436733E+03  0.47000000000E+01 0.  1.
         -5    1    1    2    0  503  0.14370920049E+01  0.83857475152E+00 -0.14380045399E+03  0.14388686184E+03  0.47000000000E+01 0.  1.
<mgrwt>
<rscale>  2 0.49858240E+01</rscale>
<asrwt>0</asrwt>
<pdfrwt beam="1">  1       21 0.12284787E-04 0.49858240E+01</pdfrwt>
<pdfrwt beam="2">  1       21 0.48218896E-01 0.49858240E+01</pdfrwt>
<totfact> 0.27636806E+09</totfact>
</mgrwt>
</event>
<event>
 4    1  0.4043737E+006  0.6701227E+01  0.7546771E-02  0.2332211E+00
         21   -1    0    0  501  502  0.00000000000E+00  0.00000000000E+00  0.55893820104E+01  0.55893820104E+01  0.00000000000E+00 0.  1.
         21   -1    0    0  502  503 -0.00000000000E+00 -0.00000000000E+00 -0.14383021579E+02  0.14383021579E+02  0.00000000000E+00 0.  1.
          5    1    1    2  501    0 -0.32649820749E+01 -0.34865938417E+01  0.22378668530E+01  0.70650189397E+01  0.47000000000E+01 0.  1.
         -5    1    1    2    0  503  0.32649820749E+01  0.34865938417E+01 -0.11031506422E+02  0.12907384650E+02  0.47000000000E+01 0.  1.
<mgrwt>
<rscale>  2 0.67012271E+01</rscale>
<asrwt>0</asrwt>
<pdfrwt beam="1">  1       21 0.85990492E-03 0.67012271E+01</pdfrwt>
<pdfrwt beam="2">  1       21 0.22127726E-02 0.67012271E+01</pdfrwt>
<totfact> 0.13762372E+09</totfact>
</mgrwt>
</event>
<event>
 4    1  0.4043737E+006  0.5262357E+01  0.7546771E-02  0.2522615E+00
         21   -1    0    0  501  502  0.00000000000E+00  0.00000000000E+00  0.13947934370E+03  0.13947934370E+03  0.00000000000E+00 0. -1.
         21   -1    0    0  502  503 -0.00000000000E+00 -0.00000000000E+00 -0.23048227949E+00  0.23048227949E+00  0.00000000000E+00 0. -1.
          5    1    1    2  501    0 -0.32153562619E+00  0.23449981860E+01  0.43619678586E+02  0.43935962054E+02  0.47000000000E+01 0. -1.
         -5    1    1    2    0  503  0.32153562619E+00 -0.23449981860E+01  0.95629182833E+02  0.95773863925E+02  0.47000000000E+01 0. -1.
<mgrwt>
<rscale>  2 0.52623570E+01</rscale>
<asrwt>0</asrwt>
<pdfrwt beam="1">  1       21 0.21458293E-01 0.52623570E+01</pdfrwt>
<pdfrwt beam="2">  1       21 0.35458924E-04 0.52623570E+01</pdfrwt>
<totfact> 0.27747265E+09</totfact>
</mgrwt>
</event>
<event>
 4    1  0.4043737E+006  0.5841474E+01  0.7546771E-02  0.2436524E+00
         21   -1    0    0  503  502  0.00000000000E+00  0.00000000000E+00  0.46621318471E-01  0.46621318471E-01  0.00000000000E+00 0.  1.
         21   -1    0    0  501  503 -0.00000000000E+00 -0.00000000000E+00 -0.10354440633E+04  0.10354440633E+04  0.00000000000E+00 0.  1.
          5    1    1    2  501    0 -0.18954851099E+00 -0.34636525727E+01 -0.79801827695E+03  0.79803965639E+03  0.47000000000E+01 0.  1.
         -5    1    1    2    0  502  0.18954851099E+00  0.34636525727E+01 -0.23737916500E+03  0.23745102820E+03  0.47000000000E+01 0.  1.
<mgrwt>
<rscale>  2 0.58414739E+01</rscale>
<asrwt>0</asrwt>
<pdfrwt beam="1">  1       21 0.71709187E-05 0.58414739E+01</pdfrwt>
<pdfrwt beam="2">  1       21 0.15933445E+00 0.58414739E+01</pdfrwt>
<totfact> 0.61122559E+08</totfact>
</mgrwt>
</event>
<event>
 4    1  0.4043737E+006  0.5030871E+01  0.7546771E-02  0.2561706E+00
         21   -1    0    0  503  502  0.00000000000E+00  0.00000000000E+00  0.11234978750E+01  0.11234978750E+01  0.00000000000E+00 0.  1.
         21   -1    0    0  501  503 -0.00000000000E+00 -0.00000000000E+00 -0.26423516906E+02  0.26423516906E+02  0.00000000000E+00 0.  1.
          5    1    1    2  501    0 -0.74860453678E+00 -0.16307214534E+01 -0.17938802102E+02  0.18630895901E+02  0.47000000000E+01 0.  1.
         -5    1    1    2    0  502  0.74860453678E+00  0.16307214534E+01 -0.73612169289E+01  0.89161188802E+01  0.47000000000E+01 0.  1.
<mgrwt>
<rscale>  2 0.50308708E+01</rscale>
<asrwt>0</asrwt>
<pdfrwt beam="1">  1       21 0.17284583E-03 0.50308708E+01</pdfrwt>
<pdfrwt beam="2">  1       21 0.40651564E-02 0.50308708E+01</pdfrwt>
<totfact> 0.40216418E+09</totfact>
</mgrwt>
</event>
<event>
 4    1  0.4043737E+006  0.1222391E+02  0.7546771E-02  0.1966880E+00
         21   -1    0    0  501  502  0.00000000000E+00  0.00000000000E+00  0.74355159897E+01  0.74355159897E+01  0.00000000000E+00 0. -1.
         21   -1    0    0  502  503 -0.00000000000E+00 -0.00000000000E+00 -0.81493306742E+02  0.81493306742E+02  0.00000000000E+00 0. -1.
          5    1    1    2  501    0  0.95242457801E+01 -0.60516620584E+01  0.15656882744E+01  0.12323767732E+02  0.47000000000E+01 0. -1.
         -5    1    1    2    0  503 -0.95242457801E+01  0.60516620584E+01 -0.75623479027E+02  0.76605055000E+02  0.47000000000E+01 0. -1.
<mgrwt>
<rscale>  2 0.12223906E+02</rscale>
<asrwt>0</asrwt>
<pdfrwt beam="1">  1       21 0.11439256E-02 0.12223906E+02</pdfrwt>
<pdfrwt beam="2">  1       21 0.12537431E-01 0.12223906E+02</pdfrwt>
<totfact> 0.90446388E+07</totfact>
</mgrwt>
</event>
<event>
 4    1  0.4043737E+006  0.6290126E+01  0.7546771E-02  0.2379126E+00
         21   -1    0    0  503  502  0.00000000000E+00  0.00000000000E+00  0.16202257366E+02  0.16202257366E+02  0.00000000000E+00 0.  1.
         21   -1    0    0  501  503 -0.00000000000E+00 -0.00000000000E+00 -0.63852348038E+01  0.63852348038E+01  0.00000000000E+00 0.  1.
          5    1    1    2  501    0  0.31742764762E+01 -0.27202306712E+01 -0.39666585456E+01  0.74364014193E+01  0.47000000000E+01 0.  1.
         -5    1    1    2    0  502 -0.31742764762E+01  0.27202306712E+01  0.13783681108E+02  0.15151090751E+02  0.47000000000E+01 0.  1.
<mgrwt>
<rscale>  2 0.62901261E+01</rscale>
<asrwt>0</asrwt>
<pdfrwt beam="1">  1       21 0.24926550E-02 0.62901261E+01</pdfrwt>
<pdfrwt beam="2">  1       21 0.98234382E-03 0.62901261E+01</pdfrwt>
<totfact> 0.91265514E+08</totfact>
</mgrwt>
</event>
<event>
 4    1  0.4043737E+006  0.7507258E+01  0.7546771E-02  0.2252702E+00
         21   -1    0    0  501  502  0.00000000000E+00  0.00000000000E+00  0.16127125196E+01  0.16127125196E+01  0.00000000000E+00 0. -1.
         21   -1    0    0  502  503 -0.00000000000E+00 -0.00000000000E+00 -0.55903835525E+02  0.55903835525E+02  0.00000000000E+00 0. -1.
          5    1    1    2  501    0 -0.58394026491E+01  0.41268135124E+00 -0.95376313803E+01  0.12137765097E+02  0.47000000000E+01 0. -1.
         -5    1    1    2    0  503  0.58394026491E+01 -0.41268135124E+00 -0.44753491625E+02  0.45378782948E+02  0.47000000000E+01 0. -1.
<mgrwt>
<rscale>  2 0.75072584E+01</rscale>
<asrwt>0</asrwt>
<pdfrwt beam="1">  1       21 0.24810961E-03 0.75072584E+01</pdfrwt>
<pdfrwt beam="2">  1       21 0.86005902E-02 0.75072584E+01</pdfrwt>
<totfact> 0.11220882E+09</totfact>
</mgrwt>
</event>
<event>
 4    1  0.4043737E+006  0.5784438E+01  0.7546771E-02  0.2444353E+00
         21   -1    0    0  501  502  0.00000000000E+00  0.00000000000E+00  0.32818153041E+02  0.32818153041E+02  0.00000000000E+00 0. -1.
         21   -1    0    0  502  503 -0.00000000000E+00 -0.00000000000E+00 -0.29827796766E+01  0.29827796766E+01  0.00000000000E+00 0.  1.
          5    1    1    2  501    0 -0.27797237931E+01  0.19086271418E+01  0.29440120329E+02  0.30003006632E+02  0.47000000000E+01 0. -1.
         -5    1    1    2    0  503  0.27797237931E+01 -0.19086271418E+01  0.39525303456E+00  0.57979260855E+01  0.47000000000E+01 0.  1.
<mgrwt>
<rscale>  2 0.57844379E+01</rscale>
<asrwt>0</asrwt>
<pdfrwt beam="1">  1       21 0.50489464E-02 0.57844379E+01</pdfrwt>
<pdfrwt beam="2">  1       21 0.45888920E-03 0.57844379E+01</pdfrwt>
<totfact> 0.88050003E+08</totfact>
</mgrwt>
</event>
<event>
 4    1  0.4043737E+006  0.7881432E+01  0.7546771E-02  0.2220353E+00
         21   -1    0    0  503  502  0.00000000000E+00  0.00000000000E+00  0.12878236885E+02  0.12878236885E+02  0.00000000000E+00 0. -1.
         21   -1    0    0  501  503 -0.00000000000E+00 -0.00000000000E+00 -0.75428974995E+01  0.75428974995E+01  0.00000000000E+00 0.  1.
          5    1    1    2  501    0  0.55986142688E+01 -0.29466059987E+01 -0.34632354272E+01  0.86087727503E+01  0.47000000000E+01 0.  1.
         -5    1    1    2    0  502 -0.55986142688E+01  0.29466059987E+01  0.87985748130E+01  0.11812361634E+02  0.47000000000E+01 0. -1.
<mgrwt>
<rscale>  2 0.78814319E+01</rscale>
<asrwt>0</asrwt>
<pdfrwt beam="1">  1       21 0.19812672E-02 0.78814319E+01</pdfrwt>
<pdfrwt beam="2">  1       21 0.11604458E-02 0.78814319E+01</pdfrwt>
<totfact> 0.11870580E+09</totfact>
</mgrwt>
</event>
<event>
 4    1  0.4043737E+006  0.8424515E+01  0.7546771E-02  0.2177571E+00
         21   -1    0    0  503  502  0.00000000000E+00  0.00000000000E+00  0.25305043496E+01  0.25305043496E+01  0.00000000000E+00 0.  1.
         21   -1    0    0  501  503 -0.00000000000E+00 -0.00000000000E+00 -0.87983455688E+02  0.87983455688E+02  0.00000000000E+00 0. -1.
          5    1    1    2  501    0  0.61738427050E+01  0.32811774873E+01 -0.80079988008E+02  0.80521903472E+02  0.47000000000E+01 0. -1.
         -5    1    1    2    0  502 -0.61738427050E+01 -0.32811774873E+01 -0.53729633298E+01  0.99920565647E+01  0.47000000000E+01 0.  1.
<mgrwt>
<rscale>  2 0.84245154E+01</rscale>
<asrwt>0</asrwt>
<pdfrwt beam="1">  1       21 0.38930838E-03 0.84245154E+01</pdfrwt>
<pdfrwt beam="2">  1       21 0.13535916E-01 0.84245154E+01</pdfrwt>
<totfact> 0.31502601E+08</totfact>
</mgrwt>
</event>
<event>
 4    1  0.4043737E+006  0.1079329E+02  0.7546771E-02  0.2032466E+00
         21   -1    0    0  503  502  0.00000000000E+00  0.00000000000E+00  0.74199408236E+02  0.74199408236E+02  0.00000000000E+00 0. -1.
         21   -1    0    0  501  503 -0.00000000000E+00 -0.00000000000E+00 -0.22931540889E+01  0.22931540889E+01  0.00000000000E+00 0.  1.
          5    1    1    2  501    0  0.34608906513E+01 -0.90789451973E+01  0.14475803016E+02  0.18056685270E+02  0.47000000000E+01 0.  1.
         -5    1    1    2    0  502 -0.34608906513E+01  0.90789451973E+01  0.57430451131E+02  0.58435877054E+02  0.47000000000E+01 0. -1.
<mgrwt>
<rscale>  2 0.10793285E+02</rscale>
<asrwt>0</asrwt>
<pdfrwt beam="1">  1       21 0.11415292E-01 0.10793285E+02</pdfrwt>
<pdfrwt beam="2">  1       21 0.35279299E-03 0.10793285E+02</pdfrwt>
<totfact> 0.54409095E+08</totfact>
</mgrwt>
</event>
<event>
 4    1  0.4043737E+006  0.4858798E+01  0.7546771E-02  0.2592829E+00
         21   -1    0    0  503  502  0.00000000000E+00  0.00000000000E+00  0.44329225687E+03  0.44329225687E+03  0.00000000000E+00 0. -1.
         21   -1    0    0  501  503 -0.00000000000E+00 -0.00000000000E+00 -0.94034435756E-01  0.94034435756E-01  0.00000000000E+00 0. -1.
          5    1    1    2  501    0 -0.11957439019E+01 -0.29683490219E+00  0.75608548651E+02  0.75764507149E+02  0.47000000000E+01 0.  1.
         -5    1    1    2    0  502  0.11957439019E+01  0.29683490219E+00  0.36758967379E+03  0.36762178416E+03  0.47000000000E+01 0.  1.
<mgrwt>
<rscale>  2 0.48587976E+01</rscale>
<asrwt>0</asrwt>
<pdfrwt beam="1">  1       21 0.68197136E-01 0.48587976E+01</pdfrwt>
<pdfrwt beam="2">  1       21 0.14467191E-04 0.48587976E+01</pdfrwt>
<totfact> 0.11615360E+09</totfact>
</mgrwt>
</event>
<event>
 4    1  0.4043737E+006  0.5935046E+01  0.7546771E-02  0.2423955E+00
         21   -1    0    0  501  502  0.00000000000E+00  0.00000000000E+00  0.19701988987E+03  0.19701988987E+03  0.00000000000E+00 0.  1.
         21   -1    0    0  502  503 -0.00000000000E+00 -0.00000000000E+00 -0.43982500115E+00  0.43982500115E+00  0.00000000000E+00 0. -1.
          5    1    1    2  501    0  0.35729040474E+01  0.60755414702E+00  0.17435062458E+03  0.17445161237E+03  0.47000000000E+01 0.  1.
         -5    1    1    2    0  503 -0.35729040474E+01 -0.60755414702E+00  0.22229440291E+02  0.23008102508E+02  0.47000000000E+01 0. -1.
<mgrwt>
<rscale>  2 0.59350455E+01</rscale>
<asrwt>0</asrwt>
<pdfrwt beam="1">  1       21 0.30310682E-01 0.59350455E+01</pdfrwt>
<pdfrwt beam="2">  1       21 0.67665542E-04 0.59350455E+01</pdfrwt>
<totfact> 0.73401707E+08</totfact>
</mgrwt>
</event>
<event>
 4    1  0.4043737E+006  0.4919343E+01  0.7546771E-02  0.2581664E+00
         21   -1    0    0  501  502  0.00000000000E+00  0.00000000000E+00  0.55752089725E+00  0.55752089725E+00  0.00000000000E+00 0. -1.
         21   -1    0    0  502  503 -0.00000000000E+00 -0.00000000000E+00 -0.78998386593E+02  0.78998386593E+02  0.00000000000E+00 0. -1.
          5    1    1    2  501    0  0.13745800674E+01 -0.46953417947E+00 -0.12520516187E+02  0.13452258483E+02  0.47000000000E+01 0. -1.
         -5    1    1    2    0  503 -0.13745800674E+01  0.46953417947E+00 -0.65920349508E+02  0.66103649007E+02  0.47000000000E+01 0. -1.
<mgrwt>
<rscale>  2 0.49193427E+01</rscale>
<asrwt>0</asrwt>
<pdfrwt beam="1">  1       21 0.85772474E-04 0.49193427E+01</pdfrwt>
<pdfrwt beam="2">  1       21 0.12153594E-01 0.49193427E+01</pdfrwt>
<totfact> 0.19656616E+09</totfact>
</mgrwt>
</event>
<event>
 4    1  0.4043737E+006  0.6677736E+01  0.7546771E-02  0.2334763E+00
         21   -1    0    0  503  502  0.00000000000E+00  0.00000000000E+00  0.72494165629E+01  0.72494165629E+01  0.00000000000E+00 0. -1.
         21   -1    0    0  501  503 -0.00000000000E+00 -0.00000000000E+00 -0.10131209760E+02  0.10131209760E+02  0.00000000000E+00 0.  1.
          5    1    1    2  501    0 -0.76313245854E+00  0.46818574324E+01 -0.68878070570E+01  0.95934376644E+01  0.47000000000E+01 0.  1.
         -5    1    1    2    0  502  0.76313245854E+00 -0.46818574324E+01  0.40060138594E+01  0.77871886589E+01  0.47000000000E+01 0. -1.
<mgrwt>
<rscale>  2 0.66777362E+01</rscale>
<asrwt>0</asrwt>
<pdfrwt beam="1">  1       21 0.11152949E-02 0.66777362E+01</pdfrwt>
<pdfrwt beam="2">  1       21 0.15586477E-02 0.66777362E+01</pdfrwt>
<totfact> 0.15733853E+09</totfact>
</mgrwt>
</event>
<event>
 4    1  0.4043737E+006  0.5256770E+01  0.7546771E-02  0.2523524E+00
         21   -1    0    0  503  502  0.00000000000E+00  0.00000000000E+00  0.11306847015E+02  0.11306847015E+02  0.00000000000E+00 0.  1.
         21   -1    0    0  501  503 -0.00000000000E+00 -0.00000000000E+00 -0.31825467270E+01  0.31825467270E+01  0.00000000000E+00 0.  1.
          5    1    1    2  501    0 -0.10684446454E+01 -0.20981078907E+01  0.57211578041E+00  0.52878111868E+01  0.47000000000E+01 0.  1.
         -5    1    1    2    0  502  0.10684446454E+01  0.20981078907E+01  0.75521845073E+01  0.92015825548E+01  0.47000000000E+01 0.  1.
<mgrwt>
<rscale>  2 0.52567700E+01</rscale>
<asrwt>0</asrwt>
<pdfrwt beam="1">  1       21 0.17395149E-02 0.52567700E+01</pdfrwt>
<pdfrwt beam="2">  1       21 0.48962258E-03 0.52567700E+01</pdfrwt>
<totfact> 0.34475707E+09</totfact>
</mgrwt>
</event>
<event>
 4    1  0.4043737E+006  0.6434742E+01  0.7546771E-02  0.2362057E+00
         21   -1    0    0  501  502  0.00000000000E+00  0.00000000000E+00  0.13733381389E+04  0.13733381389E+04  0.00000000000E+00 0. -1.
         21   -1    0    0  502  503 -0.00000000000E+00 -0.00000000000E+00 -0.46662769136E-01  0.46662769136E-01  0.00000000000E+00 0.  1.
          5    1    1    2  501    0 -0.41422828362E+01 -0.14688093191E+01  0.10951430576E+04  0.10951619618E+04  0.47000000000E+01 0. -1.
         -5    1    1    2    0  503  0.41422828362E+01  0.14688093191E+01  0.27814841851E+03  0.27822283988E+03  0.47000000000E+01 0.  1.
<mgrwt>
<rscale>  2 0.64347423E+01</rscale>
<asrwt>0</asrwt>
<pdfrwt beam="1">  1       21 0.21125042E+00 0.64347423E+01</pdfrwt>
<pdfrwt beam="2">  1       21 0.71799875E-05 0.64347423E+01</pdfrwt>
<totfact> 0.34514839E+08</totfact>
</mgrwt>
</event>
<event>
 4    1  0.4043737E+006  0.6730203E+01  0.7546771E-02  0.2329084E+00
         21   -1    0    0  503  502  0.00000000000E+00  0.00000000000E+00  0.10680723259E+03  0.10680723259E+03  0.00000000000E+00 0. -1.
         21   -1    0    0  501  503 -0.00000000000E+00 -0.00000000000E+00 -0.50688015158E+00  0.50688015158E+00  0.00000000000E+00 0.  1.
          5    1    1    2  501    0 -0.41165404871E+01 -0.25019458019E+01  0.31464675464E+02  0.32176411242E+02  0.47000000000E+01 0. -1.
         -5    1    1    2    0  502  0.41165404871E+01  0.25019458019E+01  0.74835676976E+02  0.75137701500E+02  0.47000000000E+01 0.  1.
<mgrwt>
<rscale>  2 0.67302034E+01</rscale>
<asrwt>0</asrwt>
<pdfrwt beam="1">  1       21 0.16431864E-01 0.67302034E+01</pdfrwt>
<pdfrwt beam="2">  1       21 0.77981647E-04 0.67302034E+01</pdfrwt>
<totfact> 0.18195898E+09</totfact>
</mgrwt>
</event>
<event>
 4    1  0.4043737E+006  0.6438998E+01  0.7546771E-02  0.2361564E+00
         21   -1    0    0  501  502  0.00000000000E+00  0.00000000000E+00  0.54300399277E+03  0.54300399277E+03  0.00000000000E+00 0.  1.
         21   -1    0    0  502  503 -0.00000000000E+00 -0.00000000000E+00 -0.83619451266E-01  0.83619451266E-01  0.00000000000E+00 0.  1.
          5    1    1    2  501    0 -0.22741498932E+01  0.37681481825E+01  0.35150037395E+03  0.35155934575E+03  0.47000000000E+01 0.  1.
         -5    1    1    2    0  503  0.22741498932E+01 -0.37681481825E+01  0.19141999937E+03  0.19152826647E+03  0.47000000000E+01 0.  1.
<mgrwt>
<rscale>  2 0.64389982E+01</rscale>
<asrwt>0</asrwt>
<pdfrwt beam="1">  1       21 0.83536252E-01 0.64389982E+01</pdfrwt>
<pdfrwt beam="2">  1       21 0.12864966E-04 0.64389982E+01</pdfrwt>
<totfact> 0.11370057E+09</totfact>
</mgrwt>
</event>
<event>
 4    1  0.4043737E+006  0.5301019E+01  0.7546771E-02  0.2516372E+00
         21   -1    0    0  503  502  0.00000000000E+00  0.00000000000E+00  0.77085728714E+02  0.77085728714E+02  0.00000000000E+00 0.  1.
         21   -1    0    0  501  503 -0.00000000000E+00 -0.00000000000E+00 -0.13599096638E+01  0.13599096638E+01  0.00000000000E+00 0.  1.
          5    1    1    2  501    0 -0.20166913593E+01  0.13941886461E+01  0.43064565395E+01  0.68298150741E+01  0.47000000000E+01 0.  1.
         -5    1    1    2    0  502  0.20166913593E+01 -0.13941886461E+01  0.71419362511E+02  0.71615823304E+02  0.47000000000E+01 0.  1.
<mgrwt>
<rscale>  2 0.53010193E+01</rscale>
<asrwt>0</asrwt>
<pdfrwt beam="1">  1       21 0.11859339E-01 0.53010193E+01</pdfrwt>
<pdfrwt beam="2">  1       21 0.20921693E-03 0.53010193E+01</pdfrwt>
<totfact> 0.66321534E+08</totfact>
</mgrwt>
</event>
<event>
 4    1  0.4043737E+006  0.4715482E+01  0.7546771E-02  0.2620245E+00
         21   -1    0    0  501  502  0.00000000000E+00  0.00000000000E+00  0.94806915116E+01  0.94806915116E+01  0.00000000000E+00 0. -1.
         21   -1    0    0  502  503 -0.00000000000E+00 -0.00000000000E+00 -0.38604843100E+01  0.38604843100E+01  0.00000000000E+00 0. -1.
          5    1    1    2  501    0  0.19096000823E-01 -0.38131834990E+00  0.69890358316E+01  0.84310373144E+01  0.47000000000E+01 0. -1.
         -5    1    1    2    0  503 -0.19096000823E-01  0.38131834990E+00 -0.13688286300E+01  0.49101385072E+01  0.47000000000E+01 0. -1.
<mgrwt>
<rscale>  2 0.47154818E+01</rscale>
<asrwt>0</asrwt>
<pdfrwt beam="1">  1       21 0.14585679E-02 0.47154818E+01</pdfrwt>
<pdfrwt beam="2">  1       21 0.59392066E-03 0.47154818E+01</pdfrwt>
<totfact> 0.30271903E+09</totfact>
</mgrwt>
</event>
<event>
 4    1  0.4043737E+006  0.6208047E+01  0.7546771E-02  0.2389108E+00
         21   -1    0    0  503  502  0.00000000000E+00  0.00000000000E+00  0.35666362196E+01  0.35666362196E+01  0.00000000000E+00 0.  1.
         21   -1    0    0  501  503 -0.00000000000E+00 -0.00000000000E+00 -0.44784098405E+02  0.44784098405E+02  0.00000000000E+00 0. -1.
          5    1    1    2  501    0 -0.27795632623E+01  0.29536206388E+01 -0.41666526023E+02  0.42126467187E+02  0.47000000000E+01 0. -1.
         -5    1    1    2    0  502  0.27795632623E+01 -0.29536206388E+01  0.44906383779E+00  0.62242674378E+01  0.47000000000E+01 0.  1.
<mgrwt>
<rscale>  2 0.62080469E+01</rscale>
<asrwt>0</asrwt>
<pdfrwt beam="1">  1       21 0.54871322E-03 0.62080469E+01</pdfrwt>
<pdfrwt beam="2">  1       21 0.68898618E-02 0.62080469E+01</pdfrwt>
<totfact> 0.45624749E+08</totfact>
</mgrwt>
</event>
<event>
 4    1  0.4043737E+006  0.4725884E+01  0.7546771E-02  0.2618207E+00
         21   -1    0    0  503  502  0.00000000000E+00  0.00000000000E+00  0.20790669125E+02  0.20790669125E+02  0.00000000000E+00 0. -1.
         21   -1    0    0  501  503 -0.00000000000E+00 -0.00000000000E+00 -0.26775929956E+01  0.26775929956E+01  0.00000000000E+00 0. -1.
          5    1    1    2  501    0  0.32216575534E+00  0.37442132765E+00 -0.23641569412E-01  0.47259434009E+01  0.47000000000E+01 0. -1.
         -5    1    1    2    0  502 -0.32216575534E+00 -0.37442132765E+00  0.18136717699E+02  0.18742318720E+02  0.47000000000E+01 0. -1.
<mgrwt>
<rscale>  2 0.47258843E+01</rscale>
<asrwt>0</asrwt>
<pdfrwt beam="1">  1       21 0.31985644E-02 0.47258843E+01</pdfrwt>
<pdfrwt beam="2">  1       21 0.41193740E-03 0.47258843E+01</pdfrwt>
<totfact> 0.16470071E+09</totfact>
</mgrwt>
</event>
<event>
 4    1  0.4043737E+006  0.8232411E+01  0.7546771E-02  0.2192185E+00
         21   -1    0    0  503  502  0.00000000000E+00  0.00000000000E+00  0.32506002336E+01  0.32506002336E+01  0.00000000000E+00 0. -1.
         21   -1    0    0  501  503 -0.00000000000E+00 -0.00000000000E+00 -0.76534196800E+02  0.76534196800E+02  0.00000000000E+00 0.  1.
          5    1    1    2  501    0  0.63089388346E+01  0.24248454223E+01 -0.70669395224E+02  0.71147283896E+02  0.47000000000E+01 0.  1.
         -5    1    1    2    0  502 -0.63089388346E+01 -0.24248454223E+01 -0.26142013430E+01  0.86375131376E+01  0.47000000000E+01 0. -1.
<mgrwt>
<rscale>  2 0.82324106E+01</rscale>
<asrwt>0</asrwt>
<pdfrwt beam="1">  1       21 0.50009239E-03 0.82324106E+01</pdfrwt>
<pdfrwt beam="2">  1       21 0.11774491E-01 0.82324106E+01</pdfrwt>
<totfact> 0.27280725E+08</totfact>
</mgrwt>
</event>
<event>
 4    1  0.4043737E+006  0.5414618E+01  0.7546771E-02  0.2498470E+00
         21   -1    0    0  501  502  0.00000000000E+00  0.00000000000E+00  0.21128724931E+01  0.21128724931E+01  0.00000000000E+00 0. -1.
         21   -1    0    0  502  503 -0.00000000000E+00 -0.00000000000E+00 -0.26805553880E+02  0.26805553880E+02  0.00000000000E+00 0. -1.
          5    1    1    2  501    0  0.26489877708E+01  0.45929807967E+00 -0.23042288473E+01  0.58845188008E+01  0.47000000000E+01 0. -1.
         -5    1    1    2    0  503 -0.26489877708E+01 -0.45929807967E+00 -0.22388452539E+02  0.23033907572E+02  0.47000000000E+01 0. -1.
<mgrwt>
<rscale>  2 0.54146183E+01</rscale>
<asrwt>0</asrwt>
<pdfrwt beam="1">  1       21 0.32505731E-03 0.54146183E+01</pdfrwt>
<pdfrwt beam="2">  1       21 0.41239313E-02 0.54146183E+01</pdfrwt>
<totfact> 0.17999363E+09</totfact>
</mgrwt>
</event>
<event>
 4    1  0.4043737E+006  0.5360787E+01  0.7546771E-02  0.2506873E+00
         21   -1    0    0  503  502  0.00000000000E+00  0.00000000000E+00  0.63694187233E-01  0.63694187233E-01  0.00000000000E+00 0. -1.
         21   -1    0    0  501  503 -0.00000000000E+00 -0.00000000000E+00 -0.73106315444E+03  0.73106315444E+03  0.00000000000E+00 0. -1.
          5    1    1    2  501    0  0.14854916816E+01 -0.21074513893E+01 -0.59168673901E+03  0.59171102336E+03  0.47000000000E+01 0. -1.
         -5    1    1    2    0  502 -0.14854916816E+01  0.21074513893E+01 -0.13931272124E+03  0.13941582527E+03  0.47000000000E+01 0. -1.
<mgrwt>
<rscale>  2 0.53607870E+01</rscale>
<asrwt>0</asrwt>
<pdfrwt beam="1">  1       21 0.97985197E-05 0.53607870E+01</pdfrwt>
<pdfrwt beam="2">  1       21 0.11247798E+00 0.53607870E+01</pdfrwt>
<totfact> 0.79122619E+08</totfact>
</mgrwt>
</event>
<event>
 4    1  0.4043737E+006  0.8534808E+01  0.7546771E-02  0.2169419E+00
         21   -1    0    0  501  502  0.00000000000E+00  0.00000000000E+00  0.44009103184E+01  0.44009103184E+01  0.00000000000E+00 0.  1.
         21   -1    0    0  502  503 -0.00000000000E+00 -0.00000000000E+00 -0.21704622847E+02  0.21704622847E+02  0.00000000000E+00 0.  1.
          5    1    1    2  501    0 -0.52590227687E+01 -0.48057913666E+01 -0.22919692091E+01  0.88371983115E+01  0.47000000000E+01 0.  1.
         -5    1    1    2    0  503  0.52590227687E+01  0.48057913666E+01 -0.15011743320E+02  0.17268334854E+02  0.47000000000E+01 0.  1.
<mgrwt>
<rscale>  2 0.85348082E+01</rscale>
<asrwt>0</asrwt>
<pdfrwt beam="1">  1       21 0.67706313E-03 0.85348082E+01</pdfrwt>
<pdfrwt beam="2">  1       21 0.33391727E-02 0.85348082E+01</pdfrwt>
<totfact> 0.12533743E+09</totfact>
</mgrwt>
</event>
<event>
 4    1  0.4043737E+006  0.5548541E+01  0.7546771E-02  0.2478167E+00
         21   -1    0    0  503  502  0.00000000000E+00  0.00000000000E+00  0.12537011347E+01  0.12537011347E+01  0.00000000000E+00 0. -1.
         21   -1    0    0  501  503 -0.00000000000E+00 -0.00000000000E+00 -0.41510323519E+03  0.41510323519E+03  0.00000000000E+00 0. -1.
          5    1    1    2  501    0 -0.20313852135E+01  0.21377048945E+01 -0.40885174499E+03  0.40888939298E+03  0.47000000000E+01 0. -1.
         -5    1    1    2    0  502  0.20313852135E+01 -0.21377048945E+01 -0.49977890656E+01  0.74675433474E+01  0.47000000000E+01 0. -1.
<mgrwt>
<rscale>  2 0.55485411E+01</rscale>
<asrwt>0</asrwt>
<pdfrwt beam="1">  1       21 0.19287733E-03 0.55485411E+01</pdfrwt>
<pdfrwt beam="2">  1       21 0.63861959E-01 0.55485411E+01</pdfrwt>
<totfact> 0.46068357E+07</totfact>
</mgrwt>
</event>
<event>
 4    1  0.4043737E+006  0.4967038E+01  0.7546771E-02  0.2573035E+00
         21   -1    0    0  503  502  0.00000000000E+00  0.00000000000E+00  0.88729010974E+00  0.88729010974E+00  0.00000000000E+00 0.  1.
         21   -1    0    0  501  503 -0.00000000000E+00 -0.00000000000E+00 -0.52589671569E+02  0.52589671569E+02  0.00000000000E+00 0.  1.
          5    1    1    2  501    0 -0.14081383146E+01  0.77370042313E+00 -0.44207040136E+02  0.44485209490E+02  0.47000000000E+01 0.  1.
         -5    1    1    2    0  502  0.14081383146E+01 -0.77370042313E+00 -0.74953413238E+01  0.89917521884E+01  0.47000000000E+01 0.  1.
<mgrwt>
<rscale>  2 0.49670379E+01</rscale>
<asrwt>0</asrwt>
<pdfrwt beam="1">  1       21 0.13650616E-03 0.49670379E+01</pdfrwt>
<pdfrwt beam="2">  1       21 0.80907192E-02 0.49670379E+01</pdfrwt>
<totfact> 0.19781550E+09</totfact>
</mgrwt>
</event>
<event>
 4    1  0.4043737E+006  0.5661810E+01  0.7546771E-02  0.2461634E+00
         21   -1    0    0  501  502  0.00000000000E+00  0.00000000000E+00  0.86954884167E+02  0.86954884167E+02  0.00000000000E+00 0.  1.
         21   -1    0    0  502  503 -0.00000000000E+00 -0.00000000000E+00 -0.66882575759E+00  0.66882575759E+00  0.00000000000E+00 0. -1.
          5    1    1    2  501    0  0.23136954088E+01 -0.21477687398E+01  0.72493932068E+02  0.72714690975E+02  0.47000000000E+01 0.  1.
         -5    1    1    2    0  503 -0.23136954088E+01  0.21477687398E+01  0.13792126342E+02  0.14909018950E+02  0.47000000000E+01 0. -1.
<mgrwt>
<rscale>  2 0.56618104E+01</rscale>
<asrwt>0</asrwt>
<pdfrwt beam="1">  1       21 0.13377666E-01 0.56618104E+01</pdfrwt>
<pdfrwt beam="2">  1       21 0.10289634E-03 0.56618104E+01</pdfrwt>
<totfact> 0.15114630E+09</totfact>
</mgrwt>
</event>
<event>
 4    1  0.4043737E+006  0.7100426E+01  0.7546771E-02  0.2290987E+00
         21   -1    0    0  501  502  0.00000000000E+00  0.00000000000E+00  0.33868851836E+01  0.33868851836E+01  0.00000000000E+00 0.  1.
         21   -1    0    0  502  503 -0.00000000000E+00 -0.00000000000E+00 -0.19806573154E+02  0.19806573154E+02  0.00000000000E+00 0.  1.
          5    1    1    2  501    0  0.28696056710E+00  0.53144804128E+01 -0.24295045703E+01  0.75045680011E+01  0.47000000000E+01 0.  1.
         -5    1    1    2    0  503 -0.28696056710E+00 -0.53144804128E+01 -0.13990183400E+02  0.15688890336E+02  0.47000000000E+01 0.  1.
<mgrwt>
<rscale>  2 0.71004259E+01</rscale>
<asrwt>0</asrwt>
<pdfrwt beam="1">  1       21 0.52105926E-03 0.71004259E+01</pdfrwt>
<pdfrwt beam="2">  1       21 0.30471651E-02 0.71004259E+01</pdfrwt>
<totfact> 0.18260275E+09</totfact>
</mgrwt>
</event>
<event>
 4    1  0.4043737E+006  0.1043375E+02  0.7546771E-02  0.2051112E+00
         21   -1    0    0  503  502  0.00000000000E+00  0.00000000000E+00  0.10286346589E+02  0.10286346589E+02  0.00000000000E+00 0.  1.
         21   -1    0    0  501  503 -0.00000000000E+00 -0.00000000000E+00 -0.60467933211E+02  0.60467933211E+02  0.00000000000E+00 0. -1.
          5    1    1    2  501    0  0.65389778242E+01  0.66343664011E+01 -0.57223235579E+02  0.58166672061E+02  0.47000000000E+01 0. -1.
         -5    1    1    2    0  502 -0.65389778242E+01 -0.66343664011E+01  0.70416489573E+01  0.12587607738E+02  0.47000000000E+01 0.  1.
<mgrwt>
<rscale>  2 0.10433746E+02</rscale>
<asrwt>0</asrwt>
<pdfrwt beam="1">  1       21 0.15825149E-02 0.10433746E+02</pdfrwt>
<pdfrwt beam="2">  1       21 0.93027588E-02 0.10433746E+02</pdfrwt>
<totfact> 0.84814080E+07</totfact>
</mgrwt>
</event>
<event>
 4    1  0.4043737E+006  0.4846897E+01  0.7546771E-02  0.2595052E+00
         21   -1    0    0  501  502  0.00000000000E+00  0.00000000000E+00  0.58630346017E+03  0.58630346017E+03  0.00000000000E+00 0. -1.
         21   -1    0    0  502  503 -0.00000000000E+00 -0.00000000000E+00 -0.48488816102E-01  0.48488816102E-01  0.00000000000E+00 0. -1.
          5    1    1    2  501    0 -0.46272388808E-01 -0.11833311910E+01  0.41529810795E+03  0.41532639078E+03  0.47000000000E+01 0. -1.
         -5    1    1    2    0  503  0.46272388808E-01  0.11833311910E+01  0.17095686340E+03  0.17102555820E+03  0.47000000000E+01 0. -1.
<mgrwt>
<rscale>  2 0.48468973E+01</rscale>
<asrwt>0</asrwt>
<pdfrwt beam="1">  1       21 0.90194855E-01 0.48468973E+01</pdfrwt>
<pdfrwt beam="2">  1       21 0.74602874E-05 0.48468973E+01</pdfrwt>
<totfact> 0.16359226E+09</totfact>
</mgrwt>
</event>
<event>
 4    1  0.4043737E+006  0.4821991E+01  0.7546771E-02  0.2599735E+00
         21   -1    0    0  501  502  0.00000000000E+00  0.00000000000E+00  0.21094494710E+02  0.21094494710E+02  0.00000000000E+00 0. -1.
         21   -1    0    0  502  503 -0.00000000000E+00 -0.00000000000E+00 -0.18943983777E+02  0.18943983777E+02  0.00000000000E+00 0.  1.
          5    1    1    2  501    0 -0.81376570611E+00 -0.70667214799E+00  0.20503355413E+02  0.21062743965E+02  0.47000000000E+01 0. -1.
         -5    1    1    2    0  503  0.81376570611E+00  0.70667214799E+00 -0.18352844480E+02  0.18975734522E+02  0.47000000000E+01 0.  1.
<mgrwt>
<rscale>  2 0.48219913E+01</rscale>
<asrwt>0</asrwt>
<pdfrwt beam="1">  1       21 0.32453069E-02 0.48219913E+01</pdfrwt>
<pdfrwt beam="2">  1       21 0.29144590E-02 0.48219913E+01</pdfrwt>
<totfact> 0.10745980E+08</totfact>
</mgrwt>
</event>
<event>
 4    1  0.4043737E+006  0.5204858E+01  0.7546771E-02  0.2532047E+00
         21   -1    0    0  501  502  0.00000000000E+00  0.00000000000E+00  0.77083414667E+01  0.77083414667E+01  0.00000000000E+00 0. -1.
         21   -1    0    0  502  503 -0.00000000000E+00 -0.00000000000E+00 -0.46355147389E+01  0.46355147389E+01  0.00000000000E+00 0. -1.
          5    1    1    2  501    0  0.15473761257E-01 -0.22361377270E+01 -0.14987911382E+01  0.54163572858E+01  0.47000000000E+01 0. -1.
         -5    1    1    2    0  503 -0.15473761257E-01  0.22361377270E+01  0.45716178660E+01  0.69274989198E+01  0.47000000000E+01 0. -1.
<mgrwt>
<rscale>  2 0.52048584E+01</rscale>
<asrwt>0</asrwt>
<pdfrwt beam="1">  1       21 0.11858987E-02 0.52048584E+01</pdfrwt>
<pdfrwt beam="2">  1       21 0.71315612E-03 0.52048584E+01</pdfrwt>
<totfact> 0.34840221E+09</totfact>
</mgrwt>
</event>
<event>
 4    1  0.4043737E+006  0.4860605E+01  0.7546771E-02  0.2592492E+00
         21   -1    0    0  503  502  0.00000000000E+00  0.00000000000E+00  0.70357329372E+00  0.70357329372E+00  0.00000000000E+00 0.  1.
         21   -1    0    0  501  503 -0.00000000000E+00 -0.00000000000E+00 -0.18871537210E+03  0.18871537210E+03  0.00000000000E+00 0.  1.
          5    1    1    2  501    0  0.12420645955E-01  0.12390849628E+01 -0.17987683626E+03  0.17994249556E+03  0.47000000000E+01 0.  1.
         -5    1    1    2    0  502 -0.12420645955E-01 -0.12390849628E+01 -0.81349625518E+01  0.94764498383E+01  0.47000000000E+01 0.  1.
<mgrwt>
<rscale>  2 0.48606055E+01</rscale>
<asrwt>0</asrwt>
<pdfrwt beam="1">  1       21 0.10824193E-03 0.48606055E+01</pdfrwt>
<pdfrwt beam="2">  1       21 0.29033165E-01 0.48606055E+01</pdfrwt>
<totfact> 0.35994324E+08</totfact>
</mgrwt>
</event>
<event>
 4    1  0.4043737E+006  0.5777278E+01  0.7546771E-02  0.2445345E+00
         21   -1    0    0  501  502  0.00000000000E+00  0.00000000000E+00  0.87265323906E+03  0.87265323906E+03  0.00000000000E+00 0.  1.
         21   -1    0    0  502  503 -0.00000000000E+00 -0.00000000000E+00 -0.15887477232E+01  0.15887477232E+01  0.00000000000E+00 0.  1.
          5    1    1    2  501    0  0.33571406959E+01  0.12865441395E+00  0.86735953885E+03  0.86737877919E+03  0.47000000000E+01 0.  1.
         -5    1    1    2    0  503 -0.33571406959E+01 -0.12865441395E+00  0.37049524863E+01  0.68632075982E+01  0.47000000000E+01 0.  1.
<mgrwt>
<rscale>  2 0.57772784E+01</rscale>
<asrwt>0</asrwt>
<pdfrwt beam="1">  1       21 0.13425396E+00 0.57772784E+01</pdfrwt>
<pdfrwt beam="2">  1       21 0.24442342E-03 0.57772784E+01</pdfrwt>
<totfact> 0.77851592E+06</totfact>
</mgrwt>
</event>
<event>
 4    1  0.4043737E+006  0.5811865E+01  0.7546771E-02  0.2440572E+00
         21   -1    0    0  503  502  0.00000000000E+00  0.00000000000E+00  0.11866400338E+01  0.11866400338E+01  0.00000000000E+00 0. -1.
         21   -1    0    0  501  503 -0.00000000000E+00 -0.00000000000E+00 -0.64832653524E+02  0.64832653524E+02  0.00000000000E+00 0.  1.
          5    1    1    2  501    0 -0.31027207858E+01 -0.14355830880E+01 -0.56546013320E+02  0.56843903785E+02  0.47000000000E+01 0.  1.
         -5    1    1    2    0  502  0.31027207858E+01  0.14355830880E+01 -0.71000001703E+01  0.91753897735E+01  0.47000000000E+01 0. -1.
<mgrwt>
<rscale>  2 0.58118650E+01</rscale>
<asrwt>0</asrwt>
<pdfrwt beam="1">  1       21 0.18255996E-03 0.58118650E+01</pdfrwt>
<pdfrwt beam="2">  1       21 0.99742569E-02 0.58118650E+01</pdfrwt>
<totfact> 0.11223255E+09</totfact>
</mgrwt>
</event>
<event>
 4    1  0.4043737E+006  0.5684748E+01  0.7546771E-02  0.2458354E+00
         21   -1    0    0  501  502  0.00000000000E+00  0.00000000000E+00  0.24905439071E+00  0.24905439071E+00  0.00000000000E+00 0.  1.
         21   -1    0    0  502  503 -0.00000000000E+00 -0.00000000000E+00 -0.21668174112E+03  0.21668174112E+03  0.00000000000E+00 0. -1.
          5    1    1    2  501    0  0.39172067663E+00 -0.31737860411E+01 -0.39516833270E+02  0.39923633034E+02  0.47000000000E+01 0.  1.
         -5    1    1    2    0  503 -0.39172067663E+00  0.31737860411E+01 -0.17691585346E+03  0.17700716248E+03  0.47000000000E+01 0. -1.
<mgrwt>
<rscale>  2 0.56847483E+01</rscale>
<asrwt>0</asrwt>
<pdfrwt beam="1">  1       21 0.38315980E-04 0.56847483E+01</pdfrwt>
<pdfrwt beam="2">  1       21 0.33335722E-01 0.56847483E+01</pdfrwt>
<totfact> 0.12918243E+09</totfact>
</mgrwt>
</event>
<event>
 4    1  0.4043737E+006  0.7853494E+01  0.7546771E-02  0.2222682E+00
         21   -1    0    0  503  502  0.00000000000E+00  0.00000000000E+00  0.10435124087E+03  0.10435124087E+03  0.00000000000E+00 0.  1.
         21   -1    0    0  501  503 -0.00000000000E+00 -0.00000000000E+00 -0.16433266860E+01  0.16433266860E+01  0.00000000000E+00 0. -1.
          5    1    1    2  501    0 -0.62918494661E+01 -0.97707008951E-03  0.89452038252E+01  0.11903530658E+02  0.47000000000E+01 0. -1.
         -5    1    1    2    0  502  0.62918494661E+01  0.97707008951E-03  0.93762710356E+02  0.94091036895E+02  0.47000000000E+01 0.  1.
<mgrwt>
<rscale>  2 0.78534942E+01</rscale>
<asrwt>0</asrwt>
<pdfrwt beam="1">  1       21 0.16054032E-01 0.78534942E+01</pdfrwt>
<pdfrwt beam="2">  1       21 0.25281957E-03 0.78534942E+01</pdfrwt>
<totfact> 0.42021107E+08</totfact>
</mgrwt>
</event>
<event>
 4    1  0.4043737E+006  0.5285667E+01  0.7546771E-02  0.2518842E+00
         21   -1    0    0  501  502  0.00000000000E+00  0.00000000000E+00  0.25948075192E+02  0.25948075192E+02  0.00000000000E+00 0.  1.
         21   -1    0    0  502  503 -0.00000000000E+00 -0.00000000000E+00 -0.22273244946E+01  0.22273244946E+01  0.00000000000E+00 0.  1.
          5    1    1    2  501    0  0.24973083020E+00 -0.24053928429E+01  0.21985846499E+02  0.22612291491E+02  0.47000000000E+01 0.  1.
         -5    1    1    2    0  503 -0.24973083020E+00  0.24053928429E+01  0.17349041988E+01  0.55631081955E+01  0.47000000000E+01 0.  1.
<mgrwt>
<rscale>  2 0.52856674E+01</rscale>
<asrwt>0</asrwt>
<pdfrwt beam="1">  1       21 0.39920114E-02 0.52856674E+01</pdfrwt>
<pdfrwt beam="2">  1       21 0.34266532E-03 0.52856674E+01</pdfrwt>
<totfact> 0.17164665E+09</totfact>
</mgrwt>
</event>
<event>
 4    1  0.4043737E+006  0.9455006E+01  0.7546771E-02  0.2107399E+00
         21   -1    0    0  501  502  0.00000000000E+00  0.00000000000E+00  0.47635091462E+01  0.47635091462E+01  0.00000000000E+00 0.  1.
         21   -1    0    0  502  503 -0.00000000000E+00 -0.00000000000E+00 -0.28569673804E+02  0.28569673804E+02  0.00000000000E+00 0.  1.
          5    1    1    2  501    0  0.76719990827E+01 -0.29064699111E+01 -0.21665665473E+02  0.23638912785E+02  0.47000000000E+01 0.  1.
         -5    1    1    2    0  503 -0.76719990827E+01  0.29064699111E+01 -0.21404991844E+01  0.96942701648E+01  0.47000000000E+01 0.  1.
<mgrwt>
<rscale>  2 0.94550059E+01</rscale>
<asrwt>0</asrwt>
<pdfrwt beam="1">  1       21 0.73284758E-03 0.94550059E+01</pdfrwt>
<pdfrwt beam="2">  1       21 0.43953343E-02 0.94550059E+01</pdfrwt>
<totfact> 0.78913438E+08</totfact>
</mgrwt>
</event>
<event>
 4    1  0.4043737E+006  0.5060732E+01  0.7546771E-02  0.2556492E+00
         21   -1    0    0  501  502  0.00000000000E+00  0.00000000000E+00  0.17228834963E+00  0.17228834963E+00  0.00000000000E+00 0. -1.
         21   -1    0    0  502  503 -0.00000000000E+00 -0.00000000000E+00 -0.16324237490E+03  0.16324237490E+03  0.00000000000E+00 0.  1.
          5    1    1    2  501    0 -0.13061028947E+01 -0.13472566732E+01 -0.57107600115E+02  0.57331396252E+02  0.47000000000E+01 0. -1.
         -5    1    1    2    0  503  0.13061028947E+01  0.13472566732E+01 -0.10596248644E+03  0.10608326700E+03  0.47000000000E+01 0.  1.
<mgrwt>
<rscale>  2 0.50607317E+01</rscale>
<asrwt>0</asrwt>
<pdfrwt beam="1">  1       21 0.26505984E-04 0.50607317E+01</pdfrwt>
<pdfrwt beam="2">  1       21 0.25114132E-01 0.50607317E+01</pdfrwt>
<totfact> 0.30519221E+09</totfact>
</mgrwt>
</event>
<event>
 4    1  0.4043737E+006  0.8938694E+01  0.7546771E-02  0.2140949E+00
         21   -1    0    0  501  502  0.00000000000E+00  0.00000000000E+00  0.58048341300E+02  0.58048341300E+02  0.00000000000E+00 0.  1.
         21   -1    0    0  502  503 -0.00000000000E+00 -0.00000000000E+00 -0.67891021882E+01  0.67891021882E+01  0.00000000000E+00 0. -1.
          5    1    1    2  501    0 -0.75703242649E+01  0.70741413155E+00  0.54576052098E+02  0.55303216062E+02  0.47000000000E+01 0.  1.
         -5    1    1    2    0  503  0.75703242649E+01 -0.70741413155E+00 -0.33168129859E+01  0.95342274261E+01  0.47000000000E+01 0. -1.
<mgrwt>
<rscale>  2 0.89386937E+01</rscale>
<asrwt>0</asrwt>
<pdfrwt beam="1">  1       21 0.89305137E-02 0.89386937E+01</pdfrwt>
<pdfrwt beam="2">  1       21 0.10444773E-02 0.89386937E+01</pdfrwt>
<totfact> 0.15398124E+08</totfact>
</mgrwt>
</event>
<event>
 4    1  0.4043737E+006  0.5019389E+01  0.7546771E-02  0.2563726E+00
         21   -1    0    0  503  502  0.00000000000E+00  0.00000000000E+00  0.28293230831E-01  0.28293230831E-01  0.00000000000E+00 0.  1.
         21   -1    0    0  501  503 -0.00000000000E+00 -0.00000000000E+00 -0.99896039749E+03  0.99896039749E+03  0.00000000000E+00 0.  1.
          5    1    1    2  501    0 -0.13655578898E+01  0.11133349545E+01 -0.66407476200E+03  0.66409373118E+03  0.47000000000E+01 0.  1.
         -5    1    1    2    0  502  0.13655578898E+01 -0.11133349545E+01 -0.33485734226E+03  0.33489495954E+03  0.47000000000E+01 0.  1.
<mgrwt>
<rscale>  2 0.50193887E+01</rscale>
<asrwt>0</asrwt>
<pdfrwt beam="1">  1       21 0.43536036E-05 0.50193887E+01</pdfrwt>
<pdfrwt beam="2">  1       21 0.15365801E+00 0.50193887E+01</pdfrwt>
<totfact> 0.11670140E+09</totfact>
</mgrwt>
</event>
<event>
 4    1  0.4043737E+006  0.6262773E+01  0.7546771E-02  0.2382429E+00
         21   -1    0    0  503  502  0.00000000000E+00  0.00000000000E+00  0.11428570283E+02  0.11428570283E+02  0.00000000000E+00 0.  1.
         21   -1    0    0  501  503 -0.00000000000E+00 -0.00000000000E+00 -0.49137701213E+01  0.49137701213E+01  0.00000000000E+00 0. -1.
          5    1    1    2  501    0  0.41038516733E+01 -0.53918811701E+00 -0.12297858202E+01  0.63823738174E+01  0.47000000000E+01 0. -1.
         -5    1    1    2    0  502 -0.41038516733E+01  0.53918811701E+00  0.77445859820E+01  0.99599665871E+01  0.47000000000E+01 0.  1.
<mgrwt>
<rscale>  2 0.62627727E+01</rscale>
<asrwt>0</asrwt>
<pdfrwt beam="1">  1       21 0.17582416E-02 0.62627727E+01</pdfrwt>
<pdfrwt beam="2">  1       21 0.75596464E-03 0.62627727E+01</pdfrwt>
<totfact> 0.21767743E+09</totfact>
</mgrwt>
</event>
<event>
 4    1  0.4043737E+006  0.8510544E+01  0.7546771E-02  0.2171198E+00
         21   -1    0    0  501  502  0.00000000000E+00  0.00000000000E+00  0.10015246501E+01  0.10015246501E+01  0.00000000000E+00 0.  1.
         21   -1    0    0  502  503 -0.00000000000E+00 -0.00000000000E+00 -0.41146366828E+03  0.41146366828E+03  0.00000000000E+00 0. -1.
          5    1    1    2  501    0  0.67913926807E+01  0.20533730581E+01 -0.17997380531E+02  0.19908165698E+02  0.47000000000E+01 0.  1.
         -5    1    1    2    0  503 -0.67913926807E+01 -0.20533730581E+01 -0.39246476310E+03  0.39255702723E+03  0.47000000000E+01 0. -1.
<mgrwt>
<rscale>  2 0.85105438E+01</rscale>
<asrwt>0</asrwt>
<pdfrwt beam="1">  1       21 0.15408051E-03 0.85105438E+01</pdfrwt>
<pdfrwt beam="2">  1       21 0.63302187E-01 0.85105438E+01</pdfrwt>
<totfact> 0.79484978E+07</totfact>
</mgrwt>
</event>
<event>
 4    1  0.4043737E+006  0.5148678E+01  0.7546771E-02  0.2541436E+00
         21   -1    0    0  503  502  0.00000000000E+00  0.00000000000E+00  0.56372056194E+03  0.56372056194E+03  0.00000000000E+00 0.  1.
         21   -1    0    0  501  503 -0.00000000000E+00 -0.00000000000E+00 -0.12971897984E+00  0.12971897984E+00  0.00000000000E+00 0.  1.
          5    1    1    2  501    0 -0.20816905825E+01 -0.29231483855E+00  0.56698610048E+02  0.56931900241E+02  0.47000000000E+01 0.  1.
         -5    1    1    2    0  502  0.20816905825E+01  0.29231483855E+00  0.50689223291E+03  0.50691838068E+03  0.47000000000E+01 0.  1.
<mgrwt>
<rscale>  2 0.51486779E+01</rscale>
<asrwt>0</asrwt>
<pdfrwt beam="1">  1       21 0.86724279E-01 0.51486779E+01</pdfrwt>
<pdfrwt beam="2">  1       21 0.19957218E-04 0.51486779E+01</pdfrwt>
<totfact> 0.50295467E+08</totfact>
</mgrwt>
</event>
<event>
 4    1  0.4043737E+006  0.4917680E+01  0.7546771E-02  0.2581968E+00
         21   -1    0    0  501  502  0.00000000000E+00  0.00000000000E+00  0.11550743161E+02  0.11550743161E+02  0.00000000000E+00 0.  1.
         21   -1    0    0  502  503 -0.00000000000E+00 -0.00000000000E+00 -0.24041130038E+01  0.24041130038E+01  0.00000000000E+00 0.  1.
          5    1    1    2  501    0 -0.11955499481E+01  0.81500994135E+00  0.20660479586E+01  0.53340542789E+01  0.47000000000E+01 0.  1.
         -5    1    1    2    0  503  0.11955499481E+01 -0.81500994135E+00  0.70805821982E+01  0.86208018855E+01  0.47000000000E+01 0.  1.
<mgrwt>
<rscale>  2 0.49176804E+01</rscale>
<asrwt>0</asrwt>
<pdfrwt beam="1">  1       21 0.17770374E-02 0.49176804E+01</pdfrwt>
<pdfrwt beam="2">  1       21 0.36986354E-03 0.49176804E+01</pdfrwt>
<totfact> 0.45841702E+09</totfact>
</mgrwt>
</event>
<event>
 4    1  0.4043737E+006  0.8050626E+01  0.7546771E-02  0.2206527E+00
         21   -1    0    0  503  502  0.00000000000E+00  0.00000000000E+00  0.75700361615E+01  0.75700361615E+01  0.00000000000E+00 0.  1.
         21   -1    0    0  501  503 -0.00000000000E+00 -0.00000000000E+00 -0.10485161058E+02  0.10485161058E+02  0.00000000000E+00 0. -1.
          5    1    1    2  501    0 -0.24388386755E+01  0.60642101017E+01 -0.53241104832E+01  0.96518770547E+01  0.47000000000E+01 0. -1.
         -5    1    1    2    0  502  0.24388386755E+01 -0.60642101017E+01  0.24089855864E+01  0.84033201651E+01  0.47000000000E+01 0.  1.
<mgrwt>
<rscale>  2 0.80506260E+01</rscale>
<asrwt>0</asrwt>
<pdfrwt beam="1">  1       21 0.11646209E-02 0.80506260E+01</pdfrwt>
<pdfrwt beam="2">  1       21 0.16131017E-02 0.80506260E+01</pdfrwt>
<totfact> 0.16165374E+09</totfact>
</mgrwt>
</event>
<event>
 4    1  0.4043737E+006  0.5477659E+01  0.7546771E-02  0.2488808E+00
         21   -1    0    0  503  502  0.00000000000E+00  0.00000000000E+00  0.20470113998E+01  0.20470113998E+01  0.00000000000E+00 0. -1.
         21   -1    0    0  501  503 -0.00000000000E+00 -0.00000000000E+00 -0.14912420259E+02  0.14912420259E+02  0.00000000000E+00 0. -1.
          5    1    1    2  501    0  0.26965535050E+01 -0.80208906543E+00 -0.53247368499E+01  0.76392126685E+01  0.47000000000E+01 0. -1.
         -5    1    1    2    0  502 -0.26965535050E+01  0.80208906543E+00 -0.75406720093E+01  0.93202189902E+01  0.47000000000E+01 0. -1.
<mgrwt>
<rscale>  2 0.54776590E+01</rscale>
<asrwt>0</asrwt>
<pdfrwt beam="1">  1       21 0.31492482E-03 0.54776590E+01</pdfrwt>
<pdfrwt beam="2">  1       21 0.22942186E-02 0.54776590E+01</pdfrwt>
<totfact> 0.44353121E+09</totfact>
</mgrwt>
</event>
<event>
 4    1  0.4043737E+006  0.5037680E+01  0.7546771E-02  0.2560512E+00
         21   -1    0    0  501  502  0.00000000000E+00  0.00000000000E+00  0.52098637470E+00  0.52098637470E+00  0.00000000000E+00 0. -1.
         21   -1    0    0  502  503 -0.00000000000E+00 -0.00000000000E+00 -0.62645251270E+02  0.62645251270E+02  0.00000000000E+00 0. -1.
          5    1    1    2  501    0 -0.18056978078E+01  0.16636368814E+00 -0.45957086585E+02  0.46232369925E+02  0.47000000000E+01 0. -1.
         -5    1    1    2    0  503  0.18056978078E+01 -0.16636368814E+00 -0.16167178310E+02  0.16933867720E+02  0.47000000000E+01 0. -1.
<mgrwt>
<rscale>  2 0.50376802E+01</rscale>
<asrwt>0</asrwt>
<pdfrwt beam="1">  1       21 0.80151739E-04 0.50376802E+01</pdfrwt>
<pdfrwt beam="2">  1       21 0.96377323E-02 0.50376802E+01</pdfrwt>
<totfact> 0.31315446E+09</totfact>
</mgrwt>
</event>
<event>
 4    1  0.4043737E+006  0.6023532E+01  0.7546771E-02  0.2412371E+00
         21   -1    0    0  501  502  0.00000000000E+00  0.00000000000E+00  0.44497583977E+01  0.44497583977E+01  0.00000000000E+00 0.  1.
         21   -1    0    0  502  503 -0.00000000000E+00 -0.00000000000E+00 -0.50950081154E+02  0.50950081154E+02  0.00000000000E+00 0. -1.
          5    1    1    2  501    0 -0.37422356573E+01 -0.43428625080E+00  0.21366716092E+01  0.63912673100E+01  0.47000000000E+01 0. -1.
         -5    1    1    2    0  503  0.37422356573E+01  0.43428625080E+00 -0.48636994366E+02  0.49008572242E+02  0.47000000000E+01 0.  1.
<mgrwt>
<rscale>  2 0.60235315E+01</rscale>
<asrwt>0</asrwt>
<pdfrwt beam="1">  1       21 0.68457822E-03 0.60235315E+01</pdfrwt>
<pdfrwt beam="2">  1       21 0.78384740E-02 0.60235315E+01</pdfrwt>
<totfact> 0.26960458E+08</totfact>
</mgrwt>
</event>
<event>
 4    1  0.4043737E+006  0.4849819E+01  0.7546771E-02  0.2594506E+00
         21   -1    0    0  501  502  0.00000000000E+00  0.00000000000E+00  0.55543274700E+02  0.55543274700E+02  0.00000000000E+00 0. -1.
         21   -1    0    0  502  503 -0.00000000000E+00 -0.00000000000E+00 -0.13230257352E+01  0.13230257352E+01  0.00000000000E+00 0. -1.
          5    1    1    2  501    0 -0.48188064880E+00  0.10947762983E+01  0.50555413738E+02  0.50787504391E+02  0.47000000000E+01 0. -1.
         -5    1    1    2    0  503  0.48188064880E+00 -0.10947762983E+01  0.36648352276E+01  0.60787960443E+01  0.47000000000E+01 0. -1.
<mgrwt>
<rscale>  2 0.48498190E+01</rscale>
<asrwt>0</asrwt>
<pdfrwt beam="1">  1       21 0.85451174E-02 0.48498190E+01</pdfrwt>
<pdfrwt beam="2">  1       21 0.20354246E-03 0.48498190E+01</pdfrwt>
<totfact> 0.10436462E+09</totfact>
</mgrwt>
</event>
<event>
 4    1  0.4043737E+006  0.6122618E+01  0.7546771E-02  0.2399733E+00
         21   -1    0    0  501  502  0.00000000000E+00  0.00000000000E+00  0.58305745497E-01  0.58305745497E-01  0.00000000000E+00 0.  1.
         21   -1    0    0  502  503 -0.00000000000E+00 -0.00000000000E+00 -0.66497538060E+03  0.66497538060E+03  0.00000000000E+00 0. -1.
          5    1    1    2  501    0 -0.28688257397E+01 -0.26769934150E+01 -0.27191337088E+03  0.27198229302E+03  0.47000000000E+01 0. -1.
         -5    1    1    2    0  503  0.28688257397E+01  0.26769934150E+01 -0.39300370397E+03  0.39305139332E+03  0.47000000000E+01 0. -1.
<mgrwt>
<rscale>  2 0.61226183E+01</rscale>
<asrwt>0</asrwt>
<pdfrwt beam="1">  1       21 0.89700117E-05 0.61226183E+01</pdfrwt>
<pdfrwt beam="2">  1       21 0.10230508E+00 0.61226183E+01</pdfrwt>
<totfact> 0.11858774E+09</totfact>
</mgrwt>
</event>
<event>
 4    1  0.4043737E+006  0.5400260E+01  0.7546771E-02  0.2500697E+00
         21   -1    0    0  503  502  0.00000000000E+00  0.00000000000E+00  0.10181888925E+01  0.10181888925E+01  0.00000000000E+00 0. -1.
         21   -1    0    0  501  503 -0.00000000000E+00 -0.00000000000E+00 -0.56137751664E+02  0.56137751664E+02  0.00000000000E+00 0. -1.
          5    1    1    2  501    0 -0.81028010891E+00 -0.25330324289E+01 -0.47560145639E+02  0.47865752478E+02  0.47000000000E+01 0. -1.
         -5    1    1    2    0  502  0.81028010891E+00  0.25330324289E+01 -0.75594171325E+01  0.92901880779E+01  0.47000000000E+01 0. -1.
<mgrwt>
<rscale>  2 0.54002599E+01</rscale>
<asrwt>0</asrwt>
<pdfrwt beam="1">  1       21 0.15664445E-03 0.54002599E+01</pdfrwt>
<pdfrwt beam="2">  1       21 0.86365768E-02 0.54002599E+01</pdfrwt>
<totfact> 0.16141634E+09</totfact>
</mgrwt>
</event>
<event>
 4    1  0.4043737E+006  0.6392685E+01  0.7546771E-02  0.2366955E+00
         21   -1    0    0  501  502  0.00000000000E+00  0.00000000000E+00  0.81555620267E+01  0.81555620267E+01  0.00000000000E+00 0.  1.
         21   -1    0    0  502  503 -0.00000000000E+00 -0.00000000000E+00 -0.10384396746E+02  0.10384396746E+02  0.00000000000E+00 0.  1.
          5    1    1    2  501    0  0.31538435825E+01 -0.29714797921E+01  0.55539272565E+01  0.84683250687E+01  0.47000000000E+01 0.  1.
         -5    1    1    2    0  503 -0.31538435825E+01  0.29714797921E+01 -0.77827619763E+01  0.10071633705E+02  0.47000000000E+01 0.  1.
<mgrwt>
<rscale>  2 0.63926850E+01</rscale>
<asrwt>0</asrwt>
<pdfrwt beam="1">  1       21 0.12547019E-02 0.63926850E+01</pdfrwt>
<pdfrwt beam="2">  1       21 0.15975995E-02 0.63926850E+01</pdfrwt>
<totfact> 0.12404089E+09</totfact>
</mgrwt>
</event>
<event>
 4    1  0.4043737E+006  0.5557580E+01  0.7546771E-02  0.2476827E+00
         21   -1    0    0  501  502  0.00000000000E+00  0.00000000000E+00  0.11633472793E+01  0.11633472793E+01  0.00000000000E+00 0.  1.
         21   -1    0    0  502  503 -0.00000000000E+00 -0.00000000000E+00 -0.26559352733E+02  0.26559352733E+02  0.00000000000E+00 0. -1.
          5    1    1    2  501    0  0.28360052189E+01 -0.86819860893E+00 -0.12435793894E+02  0.13621147683E+02  0.47000000000E+01 0. -1.
         -5    1    1    2    0  503 -0.28360052189E+01  0.86819860893E+00 -0.12960211560E+02  0.14101552330E+02  0.47000000000E+01 0. -1.
<mgrwt>
<rscale>  2 0.55575799E+01</rscale>
<asrwt>0</asrwt>
<pdfrwt beam="1">  1       21 0.17897653E-03 0.55575799E+01</pdfrwt>
<pdfrwt beam="2">  1       21 0.40860538E-02 0.55575799E+01</pdfrwt>
<totfact> 0.42048896E+09</totfact>
</mgrwt>
</event>
<event>
 4    1  0.4043737E+006  0.5358157E+01  0.7546771E-02  0.2507287E+00
         21   -1    0    0  503  502  0.00000000000E+00  0.00000000000E+00  0.11366600428E+02  0.11366600428E+02  0.00000000000E+00 0.  1.
         21   -1    0    0  501  503 -0.00000000000E+00 -0.00000000000E+00 -0.42875734253E+01  0.42875734253E+01  0.00000000000E+00 0. -1.
          5    1    1    2  501    0  0.24951922422E+01 -0.62758269571E+00 -0.14777681048E+01  0.55582050104E+01  0.47000000000E+01 0. -1.
         -5    1    1    2    0  502 -0.24951922422E+01  0.62758269571E+00  0.85567951070E+01  0.10095968842E+02  0.47000000000E+01 0.  1.
<mgrwt>
<rscale>  2 0.53581568E+01</rscale>
<asrwt>0</asrwt>
<pdfrwt beam="1">  1       21 0.17487077E-02 0.53581568E+01</pdfrwt>
<pdfrwt beam="2">  1       21 0.65962668E-03 0.53581568E+01</pdfrwt>
<totfact> 0.23095947E+09</totfact>
</mgrwt>
</event>
<event>
 4    1  0.4043737E+006  0.2645911E+02  0.7546771E-02  0.1640887E+00
         21   -1    0    0  501  502  0.00000000000E+00  0.00000000000E+00  0.39664660185E+03  0.39664660185E+03  0.00000000000E+00 0. -1.
         21   -1    0    0  502  503 -0.00000000000E+00 -0.00000000000E+00 -0.36913837694E+01  0.36913837694E+01  0.00000000000E+00 0.  1.
          5    1    1    2  501    0  0.91466806248E+01 -0.24378935479E+02  0.34107909463E+03  0.34210383374E+03  0.47000000000E+01 0. -1.
         -5    1    1    2    0  503 -0.91466806248E+01  0.24378935479E+02  0.51876123446E+02  0.58234151881E+02  0.47000000000E+01 0.  1.
<mgrwt>
<rscale>  2 0.26459105E+02</rscale>
<asrwt>0</asrwt>
<pdfrwt beam="1">  1       21 0.61022521E-01 0.26459105E+02</pdfrwt>
<pdfrwt beam="2">  1       21 0.56790551E-03 0.26459105E+02</pdfrwt>
<totfact> 0.18467643E+07</totfact>
</mgrwt>
</event>
<event>
 4    1  0.4043737E+006  0.6552886E+01  0.7546771E-02  0.2348578E+00
         21   -1    0    0  501  502  0.00000000000E+00  0.00000000000E+00  0.29370794561E+02  0.29370794561E+02  0.00000000000E+00 0. -1.
         21   -1    0    0  502  503 -0.00000000000E+00 -0.00000000000E+00 -0.14828705760E+01  0.14828705760E+01  0.00000000000E+00 0. -1.
          5    1    1    2  501    0  0.13102410530E+01 -0.43741953642E+01  0.15773814835E+02  0.17080794804E+02  0.47000000000E+01 0. -1.
         -5    1    1    2    0  503 -0.13102410530E+01  0.43741953642E+01  0.12114109150E+02  0.13772870333E+02  0.47000000000E+01 0. -1.
<mgrwt>
<rscale>  2 0.65528861E+01</rscale>
<asrwt>0</asrwt>
<pdfrwt beam="1">  1       21 0.45185834E-02 0.65528861E+01</pdfrwt>
<pdfrwt beam="2">  1       21 0.22813396E-03 0.65528861E+01</pdfrwt>
<totfact> 0.30139792E+09</totfact>
</mgrwt>
</event>
<event>
 4    1  0.4043737E+006  0.5755970E+01  0.7546771E-02  0.2448309E+00
         21   -1    0    0  503  502  0.00000000000E+00  0.00000000000E+00  0.32162908094E+00  0.32162908094E+00  0.00000000000E+00 0. -1.
         21   -1    0    0  501  503 -0.00000000000E+00 -0.00000000000E+00 -0.10485719013E+03  0.10485719013E+03  0.00000000000E+00 0.  1.
          5    1    1    2  501    0 -0.32735307431E+01 -0.57024927743E+00 -0.59246738770E+02  0.59525685571E+02  0.47000000000E+01 0. -1.
         -5    1    1    2    0  502  0.32735307431E+01  0.57024927743E+00 -0.45288822281E+02  0.45653133643E+02  0.47000000000E+01 0. -1.
<mgrwt>
<rscale>  2 0.57559698E+01</rscale>
<asrwt>0</asrwt>
<pdfrwt beam="1">  1       21 0.49481445E-04 0.57559698E+01</pdfrwt>
<pdfrwt beam="2">  1       21 0.16131860E-01 0.57559698E+01</pdfrwt>
<totfact> 0.30391575E+09</totfact>
</mgrwt>
</event>
<event>
 4    1  0.4043737E+006  0.6350796E+01  0.7546771E-02  0.2371887E+00
         21   -1    0    0  503  502  0.00000000000E+00  0.00000000000E+00  0.63998968749E+02  0.63998968749E+02  0.00000000000E+00 0.  1.
         21   -1    0    0  501  503 -0.00000000000E+00 -0.00000000000E+00 -0.20999122726E+01  0.20999122726E+01  0.00000000000E+00 0.  1.
          5    1    1    2  501    0  0.30366722016E+01 -0.30035366341E+01  0.33005788395E+01  0.71572642153E+01  0.47000000000E+01 0.  1.
         -5    1    1    2    0  502 -0.30366722016E+01  0.30035366341E+01  0.58598477637E+02  0.58941616806E+02  0.47000000000E+01 0.  1.
<mgrwt>
<rscale>  2 0.63507960E+01</rscale>
<asrwt>0</asrwt>
<pdfrwt beam="1">  1       21 0.98459937E-02 0.63507960E+01</pdfrwt>
<pdfrwt beam="2">  1       21 0.32306348E-03 0.63507960E+01</pdfrwt>
<totfact> 0.56170271E+08</totfact>
</mgrwt>
</event>
<event>
 4    1  0.4043737E+006  0.6346776E+01  0.7546771E-02  0.2372363E+00
         21   -1    0    0  503  502  0.00000000000E+00  0.00000000000E+00  0.24709625602E+03  0.24709625602E+03  0.00000000000E+00 0.  1.
         21   -1    0    0  501  503 -0.00000000000E+00 -0.00000000000E+00 -0.28195444152E+00  0.28195444152E+00  0.00000000000E+00 0. -1.
          5    1    1    2  501    0  0.55948573266E+00  0.42283028299E+01  0.43073730365E+02  0.43538808167E+02  0.47000000000E+01 0. -1.
         -5    1    1    2    0  502 -0.55948573266E+00 -0.42283028299E+01  0.20374057122E+03  0.20383940230E+03  0.47000000000E+01 0.  1.
<mgrwt>
<rscale>  2 0.63467763E+01</rscale>
<asrwt>0</asrwt>
<pdfrwt beam="1">  1       21 0.38014635E-01 0.63467763E+01</pdfrwt>
<pdfrwt beam="2">  1       21 0.43377804E-04 0.63467763E+01</pdfrwt>
<totfact> 0.94886413E+08</totfact>
</mgrwt>
</event>
<event>
 4    1  0.4043737E+006  0.4793695E+01  0.7546771E-02  0.2605107E+00
         21   -1    0    0  501  502  0.00000000000E+00  0.00000000000E+00  0.32063655518E+02  0.32063655518E+02  0.00000000000E+00 0.  1.
         21   -1    0    0  502  503 -0.00000000000E+00 -0.00000000000E+00 -0.62620917652E+01  0.62620917652E+01  0.00000000000E+00 0.  1.
          5    1    1    2  501    0 -0.82925040947E+00  0.44928017880E+00  0.30933768695E+02  0.31302995936E+02  0.47000000000E+01 0.  1.
         -5    1    1    2    0  503  0.82925040947E+00 -0.44928017880E+00 -0.51322049418E+01  0.70227513472E+01  0.47000000000E+01 0.  1.
<mgrwt>
<rscale>  2 0.47936947E+01</rscale>
<asrwt>0</asrwt>
<pdfrwt beam="1">  1       21 0.49328700E-02 0.47936947E+01</pdfrwt>
<pdfrwt beam="2">  1       21 0.96339875E-03 0.47936947E+01</pdfrwt>
<totfact> 0.27755388E+08</totfact>
</mgrwt>
</event>
<event>
 4    1  0.4043737E+006  0.4938717E+01  0.7546771E-02  0.2578141E+00
         21   -1    0    0  503  502  0.00000000000E+00  0.00000000000E+00  0.12317194555E+01  0.12317194555E+01  0.00000000000E+00 0. -1.
         21   -1    0    0  501  503 -0.00000000000E+00 -0.00000000000E+00 -0.20329158888E+02  0.20329158888E+02  0.00000000000E+00 0. -1.
          5    1    1    2  501    0 -0.13712231912E+01  0.64859472934E+00 -0.11284150014E+02  0.12317587820E+02  0.47000000000E+01 0. -1.
         -5    1    1    2    0  502  0.13712231912E+01 -0.64859472934E+00 -0.78132894179E+01  0.92432905229E+01  0.47000000000E+01 0. -1.
<mgrwt>
<rscale>  2 0.49387173E+01</rscale>
<asrwt>0</asrwt>
<pdfrwt beam="1">  1       21 0.18949531E-03 0.49387173E+01</pdfrwt>
<pdfrwt beam="2">  1       21 0.31275628E-02 0.49387173E+01</pdfrwt>
<totfact> 0.50898062E+09</totfact>
</mgrwt>
</event>
<event>
 4    1  0.4043737E+006  0.1286944E+02  0.7546771E-02  0.1941027E+00
         21   -1    0    0  503  502  0.00000000000E+00  0.00000000000E+00  0.12068312977E+02  0.12068312977E+02  0.00000000000E+00 0.  1.
         21   -1    0    0  501  503 -0.00000000000E+00 -0.00000000000E+00 -0.36932044831E+02  0.36932044831E+02  0.00000000000E+00 0. -1.
          5    1    1    2  501    0 -0.85593926733E+01 -0.83826748379E+01 -0.31853655717E+02  0.34355171705E+02  0.47000000000E+01 0. -1.
         -5    1    1    2    0  502  0.85593926733E+01  0.83826748379E+01  0.69899238631E+01  0.14645186103E+02  0.47000000000E+01 0.  1.
<mgrwt>
<rscale>  2 0.12869438E+02</rscale>
<asrwt>0</asrwt>
<pdfrwt beam="1">  1       21 0.18566635E-02 0.12869438E+02</pdfrwt>
<pdfrwt beam="2">  1       21 0.56818530E-02 0.12869438E+02</pdfrwt>
<totfact> 0.15895396E+08</totfact>
</mgrwt>
</event>
<event>
 4    1  0.4043737E+006  0.7406382E+01  0.7546771E-02  0.2261875E+00
         21   -1    0    0  503  502  0.00000000000E+00  0.00000000000E+00  0.56402806499E+02  0.56402806499E+02  0.00000000000E+00 0. -1.
         21   -1    0    0  501  503 -0.00000000000E+00 -0.00000000000E+00 -0.10346265102E+01  0.10346265102E+01  0.00000000000E+00 0.  1.
          5    1    1    2  501    0  0.47639593660E+00  0.57041682200E+01  0.20649469489E+02  0.21937526714E+02  0.47000000000E+01 0.  1.
         -5    1    1    2    0  502 -0.47639593660E+00 -0.57041682200E+01  0.34718710500E+02  0.35499906295E+02  0.47000000000E+01 0.  1.
<mgrwt>
<rscale>  2 0.74063816E+01</rscale>
<asrwt>0</asrwt>
<pdfrwt beam="1">  1       21 0.86773524E-02 0.74063816E+01</pdfrwt>
<pdfrwt beam="2">  1       21 0.15917335E-03 0.74063816E+01</pdfrwt>
<totfact> 0.20204409E+09</totfact>
</mgrwt>
</event>
<event>
 4    1  0.4043737E+006  0.5230996E+01  0.7546771E-02  0.2527738E+00
         21   -1    0    0  503  502  0.00000000000E+00  0.00000000000E+00  0.27525813944E+00  0.27525813944E+00  0.00000000000E+00 0.  1.
         21   -1    0    0  501  503 -0.00000000000E+00 -0.00000000000E+00 -0.99527007856E+02  0.99527007856E+02  0.00000000000E+00 0.  1.
          5    1    1    2  501    0  0.16114451896E+01 -0.16360199892E+01 -0.47912373052E+02  0.48197082987E+02  0.47000000000E+01 0.  1.
         -5    1    1    2    0  502 -0.16114451896E+01  0.16360199892E+01 -0.51339376664E+02  0.51605183008E+02  0.47000000000E+01 0.  1.
<mgrwt>
<rscale>  2 0.52309958E+01</rscale>
<asrwt>0</asrwt>
<pdfrwt beam="1">  1       21 0.42347414E-04 0.52309958E+01</pdfrwt>
<pdfrwt beam="2">  1       21 0.15311845E-01 0.52309958E+01</pdfrwt>
<totfact> 0.37212874E+09</totfact>
</mgrwt>
</event>
<event>
 4    1  0.4043737E+006  0.5051596E+01  0.7546771E-02  0.2558081E+00
         21   -1    0    0  503  502  0.00000000000E+00  0.00000000000E+00  0.11736749746E+04  0.11736749746E+04  0.00000000000E+00 0.  1.
         21   -1    0    0  501  503 -0.00000000000E+00 -0.00000000000E+00 -0.22747172166E-01  0.22747172166E-01  0.00000000000E+00 0. -1.
          5    1    1    2  501    0  0.76344760374E+00  0.16869408425E+01  0.46349406719E+03  0.46352159491E+03  0.47000000000E+01 0. -1.
         -5    1    1    2    0  502 -0.76344760374E+00 -0.16869408425E+01  0.71015816019E+03  0.71017612682E+03  0.47000000000E+01 0.  1.
<mgrwt>
<rscale>  2 0.50515960E+01</rscale>
<asrwt>0</asrwt>
<pdfrwt beam="1">  1       21 0.18051689E+00 0.50515960E+01</pdfrwt>
<pdfrwt beam="2">  1       21 0.35005050E-05 0.50515960E+01</pdfrwt>
<totfact> 0.11194529E+09</totfact>
</mgrwt>
</event>
<event>
 4    1  0.4043737E+006  0.4709373E+01  0.7546771E-02  0.2621446E+00
         21   -1    0    0  503  502  0.00000000000E+00  0.00000000000E+00  0.76983841804E+03  0.76983841804E+03  0.00000000000E+00 0. -1.
         21   -1    0    0  501  503 -0.00000000000E+00 -0.00000000000E+00 -0.82612147287E-01  0.82612147287E-01  0.00000000000E+00 0. -1.
          5    1    1    2  501    0 -0.74862050371E-01 -0.28737788004E+00  0.74208476561E+02  0.74357758061E+02  0.47000000000E+01 0. -1.
         -5    1    1    2    0  502  0.74862050371E-01  0.28737788004E+00  0.69554732933E+03  0.69556327212E+03  0.47000000000E+01 0. -1.
<mgrwt>
<rscale>  2 0.47093726E+01</rscale>
<asrwt>0</asrwt>
<pdfrwt beam="1">  1       21 0.11843094E+00 0.47093726E+01</pdfrwt>
<pdfrwt beam="2">  1       21 0.12710178E-04 0.47093726E+01</pdfrwt>
<totfact> 0.45746069E+08</totfact>
</mgrwt>
</event>
<event>
 4    1  0.4043737E+006  0.1116302E+02  0.7546771E-02  0.2014274E+00
         21   -1    0    0  501  502  0.00000000000E+00  0.00000000000E+00  0.21113814513E+04  0.21113814513E+04  0.00000000000E+00 0.  1.
         21   -1    0    0  502  503 -0.00000000000E+00 -0.00000000000E+00 -0.10484405018E+00  0.10484405018E+00  0.00000000000E+00 0. -1.
          5    1    1    2  501    0 -0.39736116106E+01 -0.93130804230E+01  0.17536048897E+04  0.17536404199E+04  0.47000000000E+01 0.  1.
         -5    1    1    2    0  503  0.39736116106E+01  0.93130804230E+01  0.35767171760E+03  0.35784587552E+03  0.47000000000E+01 0. -1.
<mgrwt>
<rscale>  2 0.11163022E+02</rscale>
<asrwt>0</asrwt>
<pdfrwt beam="1">  1       21 0.32479387E+00 0.11163022E+02</pdfrwt>
<pdfrwt beam="2">  1       21 0.16131545E-04 0.11163022E+02</pdfrwt>
<totfact> 0.44736660E+07</totfact>
</mgrwt>
</event>
<event>
 4    1  0.4043737E+006  0.5052359E+01  0.7546771E-02  0.2557948E+00
         21   -1    0    0  501  502  0.00000000000E+00  0.00000000000E+00  0.34085799226E+02  0.34085799226E+02  0.00000000000E+00 0.  1.
         21   -1    0    0  502  503 -0.00000000000E+00 -0.00000000000E+00 -0.74921297553E+00  0.74921297553E+00  0.00000000000E+00 0.  1.
          5    1    1    2  501    0  0.18389427937E+01 -0.23371056533E+00  0.17032918777E+02  0.17766447402E+02  0.47000000000E+01 0.  1.
         -5    1    1    2    0  503 -0.18389427937E+01  0.23371056533E+00  0.16303667473E+02  0.17068564799E+02  0.47000000000E+01 0.  1.
<mgrwt>
<rscale>  2 0.50523590E+01</rscale>
<asrwt>0</asrwt>
<pdfrwt beam="1">  1       21 0.52439679E-02 0.50523590E+01</pdfrwt>
<pdfrwt beam="2">  1       21 0.11526356E-03 0.50523590E+01</pdfrwt>
<totfact> 0.47896394E+09</totfact>
</mgrwt>
</event>
<event>
 4    1  0.4043737E+006  0.5167198E+01  0.7546771E-02  0.2538321E+00
         21   -1    0    0  503  502  0.00000000000E+00  0.00000000000E+00  0.71551947870E+02  0.71551947870E+02  0.00000000000E+00 0.  1.
         21   -1    0    0  501  503 -0.00000000000E+00 -0.00000000000E+00 -0.89647227450E+00  0.89647227450E+00  0.00000000000E+00 0.  1.
          5    1    1    2  501    0  0.15691436504E+01 -0.14655117065E+01  0.63004367696E+02  0.63215902153E+02  0.47000000000E+01 0.  1.
         -5    1    1    2    0  502 -0.15691436504E+01  0.14655117065E+01  0.76511078997E+01  0.92325179908E+01  0.47000000000E+01 0.  1.
<mgrwt>
<rscale>  2 0.51671981E+01</rscale>
<asrwt>0</asrwt>
<pdfrwt beam="1">  1       21 0.11007988E-01 0.51671981E+01</pdfrwt>
<pdfrwt beam="2">  1       21 0.13791887E-03 0.51671981E+01</pdfrwt>
<totfact> 0.12725651E+09</totfact>
</mgrwt>
</event>
<event>
 4    1  0.4043737E+006  0.5430092E+01  0.7546771E-02  0.2496080E+00
         21   -1    0    0  501  502  0.00000000000E+00  0.00000000000E+00  0.17028335380E+00  0.17028335380E+00  0.00000000000E+00 0. -1.
         21   -1    0    0  502  503 -0.00000000000E+00 -0.00000000000E+00 -0.18155801387E+03  0.18155801387E+03  0.00000000000E+00 0. -1.
          5    1    1    2  501    0  0.23643179107E+01  0.13438361794E+01 -0.71149146585E+02  0.71356057589E+02  0.47000000000E+01 0.  1.
         -5    1    1    2    0  503 -0.23643179107E+01 -0.13438361794E+01 -0.11023858393E+03  0.11037223963E+03  0.47000000000E+01 0.  1.
<mgrwt>
<rscale>  2 0.54300916E+01</rscale>
<asrwt>0</asrwt>
<pdfrwt beam="1">  1       21 0.26197219E-04 0.54300916E+01</pdfrwt>
<pdfrwt beam="2">  1       21 0.27932237E-01 0.54300916E+01</pdfrwt>
<totfact> 0.27744789E+09</totfact>
</mgrwt>
</event>
<event>
 4    1  0.4043737E+006  0.9025502E+01  0.7546771E-02  0.2135096E+00
         21   -1    0    0  501  502  0.00000000000E+00  0.00000000000E+00  0.18192328970E+02  0.18192328970E+02  0.00000000000E+00 0. -1.
         21   -1    0    0  502  503 -0.00000000000E+00 -0.00000000000E+00 -0.75798569455E+01  0.75798569455E+01  0.00000000000E+00 0.  1.
          5    1    1    2  501    0 -0.26728152969E+01 -0.72267385561E+01  0.13549952013E+02  0.16280690751E+02  0.47000000000E+01 0. -1.
         -5    1    1    2    0  503  0.26728152969E+01  0.72267385561E+01 -0.29374799889E+01  0.94914951643E+01  0.47000000000E+01 0.  1.
<mgrwt>
<rscale>  2 0.90255023E+01</rscale>
<asrwt>0</asrwt>
<pdfrwt beam="1">  1       21 0.27988198E-02 0.90255023E+01</pdfrwt>
<pdfrwt beam="2">  1       21 0.11661318E-02 0.90255023E+01</pdfrwt>
<totfact> 0.77317484E+08</totfact>
</mgrwt>
</event>
<event>
 4    1  0.4043737E+006  0.4915667E+01  0.7546771E-02  0.2582335E+00
         21   -1    0    0  501  502  0.00000000000E+00  0.00000000000E+00  0.72653163329E+01  0.72653163329E+01  0.00000000000E+00 0. -1.
         21   -1    0    0  502  503 -0.00000000000E+00 -0.00000000000E+00 -0.28460615019E+02  0.28460615019E+02  0.00000000000E+00 0. -1.
          5    1    1    2  501    0 -0.13402054455E+01 -0.52690856667E+00  0.61891664817E+01  0.79037690384E+01  0.47000000000E+01 0. -1.
         -5    1    1    2    0  503  0.13402054455E+01  0.52690856667E+00 -0.27384465167E+02  0.27822162313E+02  0.47000000000E+01 0. -1.
<mgrwt>
<rscale>  2 0.49156671E+01</rscale>
<asrwt>0</asrwt>
<pdfrwt beam="1">  1       21 0.11177409E-02 0.49156671E+01</pdfrwt>
<pdfrwt beam="2">  1       21 0.43785563E-02 0.49156671E+01</pdfrwt>
<totfact> 0.27430169E+08</totfact>
</mgrwt>
</event>
<event>
 4    1  0.4043737E+006  0.5985738E+01  0.7546771E-02  0.2417284E+00
         21   -1    0    0  503  502  0.00000000000E+00  0.00000000000E+00  0.25875263191E+01  0.25875263191E+01  0.00000000000E+00 0.  1.
         21   -1    0    0  501  503 -0.00000000000E+00 -0.00000000000E+00 -0.15438831085E+02  0.15438831085E+02  0.00000000000E+00 0. -1.
          5    1    1    2  501    0 -0.92284987254E+00  0.35899029949E+01 -0.93199386702E+01  0.11076565904E+02  0.47000000000E+01 0. -1.
         -5    1    1    2    0  502  0.92284987254E+00 -0.35899029949E+01 -0.35313660961E+01  0.69497915008E+01  0.47000000000E+01 0. -1.
<mgrwt>
<rscale>  2 0.59857377E+01</rscale>
<asrwt>0</asrwt>
<pdfrwt beam="1">  1       21 0.39808098E-03 0.59857377E+01</pdfrwt>
<pdfrwt beam="2">  1       21 0.23752048E-02 0.59857377E+01</pdfrwt>
<totfact> 0.33182964E+09</totfact>
</mgrwt>
</event>
<event>
 4    1  0.4043737E+006  0.5233994E+01  0.7546771E-02  0.2527246E+00
         21   -1    0    0  503  502  0.00000000000E+00  0.00000000000E+00  0.14873249393E+01  0.14873249393E+01  0.00000000000E+00 0.  1.
         21   -1    0    0  501  503 -0.00000000000E+00 -0.00000000000E+00 -0.21422827806E+02  0.21422827806E+02  0.00000000000E+00 0.  1.
          5    1    1    2  501    0 -0.35559491950E+00  0.22755755472E+01 -0.14257323170E+02  0.15187690930E+02  0.47000000000E+01 0.  1.
         -5    1    1    2    0  502  0.35559491950E+00 -0.22755755472E+01 -0.56781796967E+01  0.77224618151E+01  0.47000000000E+01 0.  1.
<mgrwt>
<rscale>  2 0.52339939E+01</rscale>
<asrwt>0</asrwt>
<pdfrwt beam="1">  1       21 0.22881923E-03 0.52339939E+01</pdfrwt>
<pdfrwt beam="2">  1       21 0.32958195E-02 0.52339939E+01</pdfrwt>
<totfact> 0.38875131E+09</totfact>
</mgrwt>
</event>
<event>
 4    1  0.4043737E+006  0.4969837E+01  0.7546771E-02  0.2572533E+00
         21   -1    0    0  501  502  0.00000000000E+00  0.00000000000E+00  0.61633327327E+00  0.61633327327E+00  0.00000000000E+00 0. -1.
         21   -1    0    0  502  503 -0.00000000000E+00 -0.00000000000E+00 -0.16473163004E+03  0.16473163004E+03  0.00000000000E+00 0. -1.
          5    1    1    2  501    0  0.77246937037E+00 -0.14186502775E+01 -0.10139444257E+02  0.11291926646E+02  0.47000000000E+01 0. -1.
         -5    1    1    2    0  503 -0.77246937037E+00  0.14186502775E+01 -0.15397585251E+03  0.15405603666E+03  0.47000000000E+01 0. -1.
<mgrwt>
<rscale>  2 0.49698368E+01</rscale>
<asrwt>0</asrwt>
<pdfrwt beam="1">  1       21 0.94820386E-04 0.49698368E+01</pdfrwt>
<pdfrwt beam="2">  1       21 0.25343359E-01 0.49698368E+01</pdfrwt>
<totfact> 0.54628802E+08</totfact>
</mgrwt>
</event>
<event>
 4    1  0.4043737E+006  0.1024282E+02  0.7546771E-02  0.2061426E+00
         21   -1    0    0  503  502  0.00000000000E+00  0.00000000000E+00  0.16533123106E+03  0.16533123106E+03  0.00000000000E+00 0.  1.
         21   -1    0    0  501  503 -0.00000000000E+00 -0.00000000000E+00 -0.64098171227E+00  0.64098171227E+00  0.00000000000E+00 0. -1.
          5    1    1    2  501    0  0.88638674159E+01  0.20633110001E+01  0.74049824098E+02  0.74754878415E+02  0.47000000000E+01 0.  1.
         -5    1    1    2    0  502 -0.88638674159E+01 -0.20633110001E+01  0.90640425251E+02  0.91217334358E+02  0.47000000000E+01 0.  1.
<mgrwt>
<rscale>  2 0.10242822E+02</rscale>
<asrwt>0</asrwt>
<pdfrwt beam="1">  1       21 0.25435540E-01 0.10242822E+02</pdfrwt>
<pdfrwt beam="2">  1       21 0.98612703E-04 0.10242822E+02</pdfrwt>
<totfact> 0.83568110E+08</totfact>
</mgrwt>
</event>
<event>
 4    1  0.4043737E+006  0.1017995E+02  0.7546771E-02  0.2064889E+00
         21   -1    0    0  501  502  0.00000000000E+00  0.00000000000E+00  0.21570986345E+03  0.21570986345E+03  0.00000000000E+00 0. -1.
         21   -1    0    0  502  503 -0.00000000000E+00 -0.00000000000E+00 -0.49924280764E+00  0.49924280764E+00  0.00000000000E+00 0. -1.
          5    1    1    2  501    0  0.44552338231E+01  0.78544369682E+01  0.86614334052E+02  0.87210516292E+02  0.47000000000E+01 0. -1.
         -5    1    1    2    0  503 -0.44552338231E+01 -0.78544369682E+01  0.12859628659E+03  0.12899858997E+03  0.47000000000E+01 0. -1.
<mgrwt>
<rscale>  2 0.10179945E+02</rscale>
<asrwt>0</asrwt>
<pdfrwt beam="1">  1       21 0.33186059E-01 0.10179945E+02</pdfrwt>
<pdfrwt beam="2">  1       21 0.76806758E-04 0.10179945E+02</pdfrwt>
<totfact> 0.74002493E+08</totfact>
</mgrwt>
</event>
<event>
 4    1  0.4043737E+006  0.5732481E+01  0.7546771E-02  0.2451599E+00
         21   -1    0    0  503  502  0.00000000000E+00  0.00000000000E+00  0.19938238289E+02  0.19938238289E+02  0.00000000000E+00 0. -1.
         21   -1    0    0  501  503 -0.00000000000E+00 -0.00000000000E+00 -0.22761853284E+01  0.22761853284E+01  0.00000000000E+00 0.  1.
          5    1    1    2  501    0 -0.30076242587E+01  0.13135945045E+01  0.14665357727E+02  0.15745921741E+02  0.47000000000E+01 0.  1.
         -5    1    1    2    0  502  0.30076242587E+01 -0.13135945045E+01  0.29966952334E+01  0.64685018765E+01  0.47000000000E+01 0.  1.
<mgrwt>
<rscale>  2 0.57324806E+01</rscale>
<asrwt>0</asrwt>
<pdfrwt beam="1">  1       21 0.30674212E-02 0.57324806E+01</pdfrwt>
<pdfrwt beam="2">  1       21 0.35018237E-03 0.57324806E+01</pdfrwt>
<totfact> 0.26313135E+09</totfact>
</mgrwt>
</event>
<event>
 4    1  0.4043737E+006  0.5715087E+01  0.7546771E-02  0.2454049E+00
         21   -1    0    0  501  502  0.00000000000E+00  0.00000000000E+00  0.92507893160E+01  0.92507893160E+01  0.00000000000E+00 0. -1.
         21   -1    0    0  502  503 -0.00000000000E+00 -0.00000000000E+00 -0.46162688158E+01  0.46162688158E+01  0.00000000000E+00 0. -1.
          5    1    1    2  501    0 -0.84473353702E+00  0.31398485977E+01  0.56794907374E+01  0.80572227846E+01  0.47000000000E+01 0. -1.
         -5    1    1    2    0  503  0.84473353702E+00 -0.31398485977E+01 -0.10449702372E+01  0.58098353472E+01  0.47000000000E+01 0. -1.
<mgrwt>
<rscale>  2 0.57150874E+01</rscale>
<asrwt>0</asrwt>
<pdfrwt beam="1">  1       21 0.14231983E-02 0.57150874E+01</pdfrwt>
<pdfrwt beam="2">  1       21 0.71019521E-03 0.57150874E+01</pdfrwt>
<totfact> 0.29636847E+09</totfact>
</mgrwt>
</event>
<event>
 4    1  0.4043737E+006  0.6738998E+01  0.7546771E-02  0.2328139E+00
         21   -1    0    0  501  502  0.00000000000E+00  0.00000000000E+00  0.97509252573E+02  0.97509252573E+02  0.00000000000E+00 0.  1.
         21   -1    0    0  502  503 -0.00000000000E+00 -0.00000000000E+00 -0.11751877288E+01  0.11751877288E+01  0.00000000000E+00 0. -1.
          5    1    1    2  501    0  0.18417609819E+01  0.44645274234E+01  0.86504626794E+02  0.86766724874E+02  0.47000000000E+01 0.  1.
         -5    1    1    2    0  503 -0.18417609819E+01 -0.44645274234E+01  0.98294380498E+01  0.11917715427E+02  0.47000000000E+01 0. -1.
<mgrwt>
<rscale>  2 0.67389976E+01</rscale>
<asrwt>0</asrwt>
<pdfrwt beam="1">  1       21 0.15001417E-01 0.67389976E+01</pdfrwt>
<pdfrwt beam="2">  1       21 0.18079819E-03 0.67389976E+01</pdfrwt>
<totfact> 0.67305130E+08</totfact>
</mgrwt>
</event>
<event>
 4    1  0.4043737E+006  0.6131814E+01  0.7546771E-02  0.2398577E+00
         21   -1    0    0  503  502  0.00000000000E+00  0.00000000000E+00  0.25142397816E+01  0.25142397816E+01  0.00000000000E+00 0.  1.
         21   -1    0    0  501  503 -0.00000000000E+00 -0.00000000000E+00 -0.36386439266E+02  0.36386439266E+02  0.00000000000E+00 0. -1.
          5    1    1    2  501    0  0.24563103548E+01 -0.30782587290E+01 -0.31863644784E+02  0.32448281870E+02  0.47000000000E+01 0. -1.
         -5    1    1    2    0  502 -0.24563103548E+01  0.30782587290E+01 -0.20085547006E+01  0.64523971783E+01  0.47000000000E+01 0.  1.
<mgrwt>
<rscale>  2 0.61318135E+01</rscale>
<asrwt>0</asrwt>
<pdfrwt beam="1">  1       21 0.38680612E-03 0.61318135E+01</pdfrwt>
<pdfrwt beam="2">  1       21 0.55979138E-02 0.61318135E+01</pdfrwt>
<totfact> 0.10028418E+09</totfact>
</mgrwt>
</event>
<event>
 4    1  0.4043737E+006  0.1163880E+02  0.7546771E-02  0.1992194E+00
         21   -1    0    0  501  502  0.00000000000E+00  0.00000000000E+00  0.81561198116E+01  0.81561198116E+01  0.00000000000E+00 0. -1.
         21   -1    0    0  502  503 -0.00000000000E+00 -0.00000000000E+00 -0.13676628811E+03  0.13676628811E+03  0.00000000000E+00 0.  1.
          5    1    1    2  501    0  0.17548943634E+01  0.10501998355E+02  0.36140000434E+01  0.12186985681E+02  0.47000000000E+01 0. -1.
         -5    1    1    2    0  503 -0.17548943634E+01 -0.10501998355E+02 -0.13222416834E+03  0.13273542224E+03  0.47000000000E+01 0.  1.
<mgrwt>
<rscale>  2 0.11638798E+02</rscale>
<asrwt>0</asrwt>
<pdfrwt beam="1">  1       21 0.12547878E-02 0.11638798E+02</pdfrwt>
<pdfrwt beam="2">  1       21 0.21040965E-01 0.11638798E+02</pdfrwt>
<totfact> 0.32812383E+07</totfact>
</mgrwt>
</event>
<event>
 4    1  0.4043737E+006  0.4864499E+01  0.7546771E-02  0.2591768E+00
         21   -1    0    0  501  502  0.00000000000E+00  0.00000000000E+00  0.70843665755E+01  0.70843665755E+01  0.00000000000E+00 0. -1.
         21   -1    0    0  502  503 -0.00000000000E+00 -0.00000000000E+00 -0.33406556594E+01  0.33406556594E+01  0.00000000000E+00 0. -1.
          5    1    1    2  501    0  0.11100475129E+01  0.58407530489E+00  0.19313182713E+01  0.52338647009E+01  0.47000000000E+01 0. -1.
         -5    1    1    2    0  503 -0.11100475129E+01 -0.58407530489E+00  0.18123926448E+01  0.51911575339E+01  0.47000000000E+01 0. -1.
<mgrwt>
<rscale>  2 0.48644989E+01</rscale>
<asrwt>0</asrwt>
<pdfrwt beam="1">  1       21 0.10899026E-02 0.48644989E+01</pdfrwt>
<pdfrwt beam="2">  1       21 0.51394702E-03 0.48644989E+01</pdfrwt>
<totfact> 0.57372186E+09</totfact>
</mgrwt>
</event>
<event>
 4    1  0.4043737E+006  0.6570593E+01  0.7546771E-02  0.2346592E+00
         21   -1    0    0  501  502  0.00000000000E+00  0.00000000000E+00  0.89904101730E+00  0.89904101730E+00  0.00000000000E+00 0. -1.
         21   -1    0    0  502  503 -0.00000000000E+00 -0.00000000000E+00 -0.95485767461E+02  0.95485767461E+02  0.00000000000E+00 0. -1.
          5    1    1    2  501    0 -0.15007826118E+01  0.43393945555E+01 -0.13315525351E+02  0.14848431194E+02  0.47000000000E+01 0. -1.
         -5    1    1    2    0  503  0.15007826118E+01 -0.43393945555E+01 -0.81271201093E+02  0.81536377285E+02  0.47000000000E+01 0. -1.
<mgrwt>
<rscale>  2 0.65705931E+01</rscale>
<asrwt>0</asrwt>
<pdfrwt beam="1">  1       21 0.13831416E-03 0.65705931E+01</pdfrwt>
<pdfrwt beam="2">  1       21 0.14690101E-01 0.65705931E+01</pdfrwt>
<totfact> 0.98453758E+08</totfact>
</mgrwt>
</event>
<event>
 4    1  0.4043737E+006  0.5982772E+01  0.7546771E-02  0.2417671E+00
         21   -1    0    0  503  502  0.00000000000E+00  0.00000000000E+00  0.37467783307E+01  0.37467783307E+01  0.00000000000E+00 0.  1.
         21   -1    0    0  501  503 -0.00000000000E+00 -0.00000000000E+00 -0.10946535077E+02  0.10946535077E+02  0.00000000000E+00 0.  1.
          5    1    1    2  501    0 -0.32321789260E+01  0.18045994704E+01 -0.62209927384E+01  0.86310086612E+01  0.47000000000E+01 0.  1.
         -5    1    1    2    0  502  0.32321789260E+01 -0.18045994704E+01 -0.97876400814E+00  0.60623047467E+01  0.47000000000E+01 0.  1.
<mgrwt>
<rscale>  2 0.59827719E+01</rscale>
<asrwt>0</asrwt>
<pdfrwt beam="1">  1       21 0.57642745E-03 0.59827719E+01</pdfrwt>
<pdfrwt beam="2">  1       21 0.16840823E-02 0.59827719E+01</pdfrwt>
<totfact> 0.32515368E+09</totfact>
</mgrwt>
</event>
<event>
 4    1  0.4043737E+006  0.7336965E+01  0.7546771E-02  0.2268306E+00
         21   -1    0    0  501  502  0.00000000000E+00  0.00000000000E+00  0.13794844532E+03  0.13794844532E+03  0.00000000000E+00 0. -1.
         21   -1    0    0  502  503 -0.00000000000E+00 -0.00000000000E+00 -0.68567947492E+00  0.68567947492E+00  0.00000000000E+00 0. -1.
          5    1    1    2  501    0  0.48847213599E+01 -0.28072313869E+01  0.11413272725E+03  0.11436831065E+03  0.47000000000E+01 0. -1.
         -5    1    1    2    0  503 -0.48847213599E+01  0.28072313869E+01  0.23130038592E+02  0.24265814144E+02  0.47000000000E+01 0. -1.
<mgrwt>
<rscale>  2 0.73369647E+01</rscale>
<asrwt>0</asrwt>
<pdfrwt beam="1">  1       21 0.21222816E-01 0.73369647E+01</pdfrwt>
<pdfrwt beam="2">  1       21 0.10548926E-03 0.73369647E+01</pdfrwt>
<totfact> 0.84753391E+08</totfact>
</mgrwt>
</event>
<event>
 4    1  0.4043737E+006  0.4978963E+01  0.7546771E-02  0.2570899E+00
         21   -1    0    0  501  502  0.00000000000E+00  0.00000000000E+00  0.32740932019E+01  0.32740932019E+01  0.00000000000E+00 0.  1.
         21   -1    0    0  502  503 -0.00000000000E+00 -0.00000000000E+00 -0.14579335235E+02  0.14579335235E+02  0.00000000000E+00 0.  1.
          5    1    1    2  501    0  0.86638015802E+00 -0.13962287413E+01  0.53625997545E+00  0.50077583845E+01  0.47000000000E+01 0.  1.
         -5    1    1    2    0  503 -0.86638015802E+00  0.13962287413E+01 -0.11841502009E+02  0.12845670052E+02  0.47000000000E+01 0.  1.
<mgrwt>
<rscale>  2 0.49789627E+01</rscale>
<asrwt>0</asrwt>
<pdfrwt beam="1">  1       21 0.50370665E-03 0.49789627E+01</pdfrwt>
<pdfrwt beam="2">  1       21 0.22429746E-02 0.49789627E+01</pdfrwt>
<totfact> 0.21879457E+09</totfact>
</mgrwt>
</event>
<event>
 4    1  0.4043737E+006  0.5519324E+01  0.7546771E-02  0.2482525E+00
         21   -1    0    0  503  502  0.00000000000E+00  0.00000000000E+00  0.29495907225E+02  0.29495907225E+02  0.00000000000E+00 0. -1.
         21   -1    0    0  501  503 -0.00000000000E+00 -0.00000000000E+00 -0.42113530065E+01  0.42113530065E+01  0.00000000000E+00 0. -1.
          5    1    1    2  501    0 -0.20929071428E+00 -0.28860241904E+01 -0.19996544007E+01  0.58703965754E+01  0.47000000000E+01 0. -1.
         -5    1    1    2    0  502  0.20929071428E+00  0.28860241904E+01  0.27284208619E+02  0.27836863656E+02  0.47000000000E+01 0. -1.
<mgrwt>
<rscale>  2 0.55193241E+01</rscale>
<asrwt>0</asrwt>
<pdfrwt beam="1">  1       21 0.45378317E-02 0.55193241E+01</pdfrwt>
<pdfrwt beam="2">  1       21 0.64790048E-03 0.55193241E+01</pdfrwt>
<totfact> 0.61473345E+08</totfact>
</mgrwt>
</event>
<event>
 4    1  0.4043737E+006  0.1264805E+02  0.7546771E-02  0.1949665E+00
         21   -1    0    0  503  502  0.00000000000E+00  0.00000000000E+00  0.13186977801E+02  0.13186977801E+02  0.00000000000E+00 0.  1.
         21   -1    0    0  501  503 -0.00000000000E+00 -0.00000000000E+00 -0.17861235664E+02  0.17861235664E+02  0.00000000000E+00 0. -1.
          5    1    1    2  501    0 -0.62787133564E+01  0.99227535575E+01 -0.11130010321E+02  0.16847860675E+02  0.47000000000E+01 0. -1.
         -5    1    1    2    0  502  0.62787133564E+01 -0.99227535575E+01  0.64557524570E+01  0.14200352790E+02  0.47000000000E+01 0.  1.
<mgrwt>
<rscale>  2 0.12648054E+02</rscale>
<asrwt>0</asrwt>
<pdfrwt beam="1">  1       21 0.20287658E-02 0.12648054E+02</pdfrwt>
<pdfrwt beam="2">  1       21 0.27478824E-02 0.12648054E+02</pdfrwt>
<totfact> 0.42146316E+08</totfact>
</mgrwt>
</event>
<event>
 4    1  0.4043737E+006  0.6302421E+01  0.7546771E-02  0.2377650E+00
         21   -1    0    0  501  502  0.00000000000E+00  0.00000000000E+00  0.26297929559E+02  0.26297929559E+02  0.00000000000E+00 0. -1.
         21   -1    0    0  502  503 -0.00000000000E+00 -0.00000000000E+00 -0.20907444035E+01  0.20907444035E+01  0.00000000000E+00 0. -1.
          5    1    1    2  501    0 -0.37113643777E+01 -0.19637430913E+01  0.19581943450E+02  0.20571169674E+02  0.47000000000E+01 0. -1.
         -5    1    1    2    0  503  0.37113643777E+01  0.19637430913E+01  0.46252417061E+01  0.78175042893E+01  0.47000000000E+01 0. -1.
<mgrwt>
<rscale>  2 0.63024212E+01</rscale>
<asrwt>0</asrwt>
<pdfrwt beam="1">  1       21 0.40458351E-02 0.63024212E+01</pdfrwt>
<pdfrwt beam="2">  1       21 0.32165300E-03 0.63024212E+01</pdfrwt>
<totfact> 0.21417297E+09</totfact>
</mgrwt>
</event>
<event>
 4    1  0.4043737E+006  0.8979115E+01  0.7546771E-02  0.2138212E+00
         21   -1    0    0  501  502  0.00000000000E+00  0.00000000000E+00  0.39478403411E+01  0.39478403411E+01  0.00000000000E+00 0.  1.
         21   -1    0    0  502  503 -0.00000000000E+00 -0.00000000000E+00 -0.29351381112E+02  0.29351381112E+02  0.00000000000E+00 0. -1.
          5    1    1    2  501    0  0.33647289985E+01  0.68711788915E+01 -0.35186561018E+01  0.96439328780E+01  0.47000000000E+01 0.  1.
         -5    1    1    2    0  503 -0.33647289985E+01 -0.68711788915E+01 -0.21884884669E+02  0.23655288575E+02  0.47000000000E+01 0. -1.
<mgrwt>
<rscale>  2 0.89791147E+01</rscale>
<asrwt>0</asrwt>
<pdfrwt beam="1">  1       21 0.60736005E-03 0.89791147E+01</pdfrwt>
<pdfrwt beam="2">  1       21 0.45155971E-02 0.89791147E+01</pdfrwt>
<totfact> 0.96019536E+08</totfact>
</mgrwt>
</event>
<event>
 4    1  0.4043737E+006  0.6539728E+01  0.7546771E-02  0.2350059E+00
         21   -1    0    0  501  502  0.00000000000E+00  0.00000000000E+00  0.14981884411E+02  0.14981884411E+02  0.00000000000E+00 0.  1.
         21   -1    0    0  502  503 -0.00000000000E+00 -0.00000000000E+00 -0.30348613181E+01  0.30348613181E+01  0.00000000000E+00 0.  1.
          5    1    1    2  501    0  0.23429896518E+01 -0.38972351196E+01  0.81686782044E+01  0.10464002374E+02  0.47000000000E+01 0.  1.
         -5    1    1    2    0  503 -0.23429896518E+01  0.38972351196E+01  0.37783448886E+01  0.75527433548E+01  0.47000000000E+01 0.  1.
<mgrwt>
<rscale>  2 0.65397280E+01</rscale>
<asrwt>0</asrwt>
<pdfrwt beam="1">  1       21 0.23049053E-02 0.65397280E+01</pdfrwt>
<pdfrwt beam="2">  1       21 0.46690175E-03 0.65397280E+01</pdfrwt>
<totfact> 0.29998695E+09</totfact>
</mgrwt>
</event>
<event>
 4    1  0.4043737E+006  0.5516049E+01  0.7546771E-02  0.2483016E+00
         21   -1    0    0  503  502  0.00000000000E+00  0.00000000000E+00  0.19141790880E+02  0.19141790880E+02  0.00000000000E+00 0. -1.
         21   -1    0    0  501  503 -0.00000000000E+00 -0.00000000000E+00 -0.31793898861E+01  0.31793898861E+01  0.00000000000E+00 0. -1.
          5    1    1    2  501    0 -0.18362294205E+01  0.22282418485E+01  0.89107252187E-01  0.55167690111E+01  0.47000000000E+01 0. -1.
         -5    1    1    2    0  502  0.18362294205E+01 -0.22282418485E+01  0.15873293742E+02  0.16804411755E+02  0.47000000000E+01 0. -1.
<mgrwt>
<rscale>  2 0.55160493E+01</rscale>
<asrwt>0</asrwt>
<pdfrwt beam="1">  1       21 0.29448908E-02 0.55160493E+01</pdfrwt>
<pdfrwt beam="2">  1       21 0.48913692E-03 0.55160493E+01</pdfrwt>
<totfact> 0.17019192E+09</totfact>
</mgrwt>
</event>
<event>
 4    1  0.4043737E+006  0.4754701E+01  0.7546771E-02  0.2612600E+00
         21   -1    0    0  503  502  0.00000000000E+00  0.00000000000E+00  0.10885426365E+00  0.10885426365E+00  0.00000000000E+00 0. -1.
         21   -1    0    0  501  503 -0.00000000000E+00 -0.00000000000E+00 -0.13395392583E+04  0.13395392583E+04  0.00000000000E+00 0.  1.
          5    1    1    2  501    0 -0.67895399100E+00  0.23707206973E+00 -0.12854286697E+04  0.12854374634E+04  0.47000000000E+01 0.  1.
         -5    1    1    2    0  502  0.67895399100E+00 -0.23707206973E+00 -0.54001734325E+02  0.54210649248E+02  0.47000000000E+01 0. -1.
<mgrwt>
<rscale>  2 0.47547010E+01</rscale>
<asrwt>0</asrwt>
<pdfrwt beam="1">  1       21 0.16748202E-04 0.47547010E+01</pdfrwt>
<pdfrwt beam="2">  1       21 0.20606583E+00 0.47547010E+01</pdfrwt>
<totfact> 0.99326156E+07</totfact>
</mgrwt>
</event>
<event>
 4    1  0.4043737E+006  0.6569691E+01  0.7546771E-02  0.2346693E+00
         21   -1    0    0  503  502  0.00000000000E+00  0.00000000000E+00  0.35433089446E+02  0.35433089446E+02  0.00000000000E+00 0.  1.
         21   -1    0    0  501  503 -0.00000000000E+00 -0.00000000000E+00 -0.14618721696E+01  0.14618721696E+01  0.00000000000E+00 0. -1.
          5    1    1    2  501    0  0.37825166047E+01 -0.26006559082E+01  0.24518809346E+02  0.25383712391E+02  0.47000000000E+01 0.  1.
         -5    1    1    2    0  502 -0.37825166047E+01  0.26006559082E+01  0.94524079300E+01  0.11511249224E+02  0.47000000000E+01 0. -1.
<mgrwt>
<rscale>  2 0.65696912E+01</rscale>
<asrwt>0</asrwt>
<pdfrwt beam="1">  1       21 0.54512439E-02 0.65696912E+01</pdfrwt>
<pdfrwt beam="2">  1       21 0.22490344E-03 0.65696912E+01</pdfrwt>
<totfact> 0.23281111E+09</totfact>
</mgrwt>
</event>
<event>
 4    1  0.4043737E+006  0.7186842E+01  0.7546771E-02  0.2282560E+00
         21   -1    0    0  503  502  0.00000000000E+00  0.00000000000E+00  0.89310876389E+01  0.89310876389E+01  0.00000000000E+00 0.  1.
         21   -1    0    0  501  503 -0.00000000000E+00 -0.00000000000E+00 -0.76941234088E+01  0.76941234088E+01  0.00000000000E+00 0.  1.
          5    1    1    2  501    0  0.54133520080E+01 -0.50628395618E+00  0.47610885250E+01  0.86208275328E+01  0.47000000000E+01 0. -1.
         -5    1    1    2    0  502 -0.54133520080E+01  0.50628395618E+00 -0.35241242950E+01  0.80043835149E+01  0.47000000000E+01 0. -1.
<mgrwt>
<rscale>  2 0.71868424E+01</rscale>
<asrwt>0</asrwt>
<pdfrwt beam="1">  1       21 0.13740135E-02 0.71868424E+01</pdfrwt>
<pdfrwt beam="2">  1       21 0.11837113E-02 0.71868424E+01</pdfrwt>
<totfact> 0.18325439E+09</totfact>
</mgrwt>
</event>
<event>
 4    1  0.4043737E+006  0.1154625E+02  0.7546771E-02  0.1996379E+00
         21   -1    0    0  503  502  0.00000000000E+00  0.00000000000E+00  0.32035299232E+01  0.32035299232E+01  0.00000000000E+00 0. -1.
         21   -1    0    0  501  503 -0.00000000000E+00 -0.00000000000E+00 -0.64978417554E+02  0.64978417554E+02  0.00000000000E+00 0.  1.
          5    1    1    2  501    0 -0.52220905507E+01 -0.91627275513E+01 -0.51329302961E+02  0.52611910708E+02  0.47000000000E+01 0.  1.
         -5    1    1    2    0  502  0.52220905507E+01  0.91627275513E+01 -0.10445584670E+02  0.15570036770E+02  0.47000000000E+01 0. -1.
<mgrwt>
<rscale>  2 0.11546246E+02</rscale>
<asrwt>0</asrwt>
<pdfrwt beam="1">  1       21 0.49285074E-03 0.11546246E+02</pdfrwt>
<pdfrwt beam="2">  1       21 0.99966800E-02 0.11546246E+02</pdfrwt>
<totfact> 0.43212294E+08</totfact>
</mgrwt>
</event>
<event>
 4    1  0.4043737E+006  0.1147447E+02  0.7546771E-02  0.1999660E+00
         21   -1    0    0  503  502  0.00000000000E+00  0.00000000000E+00  0.43783945555E+02  0.43783945555E+02  0.00000000000E+00 0. -1.
         21   -1    0    0  501  503 -0.00000000000E+00 -0.00000000000E+00 -0.36456028677E+01  0.36456028677E+01  0.00000000000E+00 0.  1.
          5    1    1    2  501    0  0.18213237597E+01  0.10308066232E+02  0.10144641564E+02  0.15315913363E+02  0.47000000000E+01 0.  1.
         -5    1    1    2    0  502 -0.18213237597E+01 -0.10308066232E+02  0.29993701124E+02  0.32113635060E+02  0.47000000000E+01 0. -1.
<mgrwt>
<rscale>  2 0.11474469E+02</rscale>
<asrwt>0</asrwt>
<pdfrwt beam="1">  1       21 0.67359912E-02 0.11474469E+02</pdfrwt>
<pdfrwt beam="2">  1       21 0.56086201E-03 0.11474469E+02</pdfrwt>
<totfact> 0.66803509E+08</totfact>
</mgrwt>
</event>
<event>
 4    1  0.4043737E+006  0.5802725E+01  0.7546771E-02  0.2441829E+00
         21   -1    0    0  501  502  0.00000000000E+00  0.00000000000E+00  0.29777299079E+03  0.29777299079E+03  0.00000000000E+00 0.  1.
         21   -1    0    0  502  503 -0.00000000000E+00 -0.00000000000E+00 -0.12202559428E+00  0.12202559428E+00  0.00000000000E+00 0.  1.
          5    1    1    2  501    0 -0.85626693624E+00 -0.32936940039E+01  0.18915822375E+03  0.18924720665E+03  0.47000000000E+01 0.  1.
         -5    1    1    2    0  503  0.85626693624E+00  0.32936940039E+01  0.10849274145E+03  0.10864780973E+03  0.47000000000E+01 0.  1.
<mgrwt>
<rscale>  2 0.58027246E+01</rscale>
<asrwt>0</asrwt>
<pdfrwt beam="1">  1       21 0.45810648E-01 0.58027246E+01</pdfrwt>
<pdfrwt beam="2">  1       21 0.18773407E-04 0.58027246E+01</pdfrwt>
<totfact> 0.19567141E+09</totfact>
</mgrwt>
</event>
<event>
 4    1  0.4043737E+006  0.5074920E+01  0.7546771E-02  0.2554032E+00
         21   -1    0    0  501  502  0.00000000000E+00  0.00000000000E+00  0.77772958492E+02  0.77772958492E+02  0.00000000000E+00 0.  1.
         21   -1    0    0  502  503 -0.00000000000E+00 -0.00000000000E+00 -0.37747280206E+00  0.37747280206E+00  0.00000000000E+00 0.  1.
          5    1    1    2  501    0  0.18742723896E+01 -0.38975991921E+00  0.52385686400E+02  0.52630931488E+02  0.47000000000E+01 0.  1.
         -5    1    1    2    0  503 -0.18742723896E+01  0.38975991921E+00  0.25009799290E+02  0.25519499805E+02  0.47000000000E+01 0.  1.
<mgrwt>
<rscale>  2 0.50749197E+01</rscale>
<asrwt>0</asrwt>
<pdfrwt beam="1">  1       21 0.11965058E-01 0.50749197E+01</pdfrwt>
<pdfrwt beam="2">  1       21 0.58072801E-04 0.50749197E+01</pdfrwt>
<totfact> 0.34805800E+09</totfact>
</mgrwt>
</event>
<event>
 4    1  0.4043737E+006  0.5704769E+01  0.7546771E-02  0.2455509E+00
         21   -1    0    0  503  502  0.00000000000E+00  0.00000000000E+00  0.13653293701E+01  0.13653293701E+01  0.00000000000E+00 0.  1.
         21   -1    0    0  501  503 -0.00000000000E+00 -0.00000000000E+00 -0.47548378682E+02  0.47548378682E+02  0.00000000000E+00 0.  1.
          5    1    1    2  501    0  0.31922976300E+01 -0.51343997223E+00 -0.40362531409E+02  0.40763688824E+02  0.47000000000E+01 0.  1.
         -5    1    1    2    0  502 -0.31922976300E+01  0.51343997223E+00 -0.58205179022E+01  0.81500192278E+01  0.47000000000E+01 0.  1.
<mgrwt>
<rscale>  2 0.57047686E+01</rscale>
<asrwt>0</asrwt>
<pdfrwt beam="1">  1       21 0.21005070E-03 0.57047686E+01</pdfrwt>
<pdfrwt beam="2">  1       21 0.73151341E-02 0.57047686E+01</pdfrwt>
<totfact> 0.14621161E+09</totfact>
</mgrwt>
</event>
<event>
 4    1  0.4043737E+006  0.5823513E+01  0.7546771E-02  0.2438975E+00
         21   -1    0    0  503  502  0.00000000000E+00  0.00000000000E+00  0.92046115998E+01  0.92046115998E+01  0.00000000000E+00 0.  1.
         21   -1    0    0  501  503 -0.00000000000E+00 -0.00000000000E+00 -0.37018966181E+01  0.37018966181E+01  0.00000000000E+00 0.  1.
          5    1    1    2  501    0 -0.34362035401E+01 -0.12574183852E+00  0.31952382367E+01  0.66425035317E+01  0.47000000000E+01 0.  1.
         -5    1    1    2    0  502  0.34362035401E+01  0.12574183852E+00  0.23074767450E+01  0.62640046861E+01  0.47000000000E+01 0.  1.
<mgrwt>
<rscale>  2 0.58235132E+01</rscale>
<asrwt>0</asrwt>
<pdfrwt beam="1">  1       21 0.14160941E-02 0.58235132E+01</pdfrwt>
<pdfrwt beam="2">  1       21 0.56952256E-03 0.58235132E+01</pdfrwt>
<totfact> 0.41302200E+09</totfact>
</mgrwt>
</event>
<event>
 4    1  0.4043737E+006  0.4772020E+01  0.7546771E-02  0.2609259E+00
         21   -1    0    0  503  502  0.00000000000E+00  0.00000000000E+00  0.29670405085E+02  0.29670405085E+02  0.00000000000E+00 0.  1.
         21   -1    0    0  501  503 -0.00000000000E+00 -0.00000000000E+00 -0.27691584634E+01  0.27691584634E+01  0.00000000000E+00 0.  1.
          5    1    1    2  501    0 -0.64375517772E+00 -0.51744516014E+00 -0.33941903903E+00  0.47840751987E+01  0.47000000000E+01 0.  1.
         -5    1    1    2    0  502  0.64375517772E+00  0.51744516014E+00  0.27240665661E+02  0.27655488350E+02  0.47000000000E+01 0.  1.
<mgrwt>
<rscale>  2 0.47720195E+01</rscale>
<asrwt>0</asrwt>
<pdfrwt beam="1">  1       21 0.45646775E-02 0.47720195E+01</pdfrwt>
<pdfrwt beam="2">  1       21 0.42602440E-03 0.47720195E+01</pdfrwt>
<totfact> 0.95146259E+08</totfact>
</mgrwt>
</event>
<event>
 4    1  0.4043737E+006  0.8036606E+01  0.7546771E-02  0.2207655E+00
         21   -1    0    0  501  502  0.00000000000E+00  0.00000000000E+00  0.18787581421E+03  0.18787581421E+03  0.00000000000E+00 0.  1.
         21   -1    0    0  502  503 -0.00000000000E+00 -0.00000000000E+00 -0.90503796482E+00  0.90503796482E+00  0.00000000000E+00 0.  1.
          5    1    1    2  501    0 -0.21468403107E+01 -0.61553318241E+01  0.16781770832E+03  0.16801003023E+03  0.47000000000E+01 0.  1.
         -5    1    1    2    0  503  0.21468403107E+01  0.61553318241E+01  0.19153067926E+02  0.20770821942E+02  0.47000000000E+01 0.  1.
<mgrwt>
<rscale>  2 0.80366058E+01</rscale>
<asrwt>0</asrwt>
<pdfrwt beam="1">  1       21 0.28903940E-01 0.80366058E+01</pdfrwt>
<pdfrwt beam="2">  1       21 0.13923676E-03 0.80366058E+01</pdfrwt>
<totfact> 0.36533291E+08</totfact>
</mgrwt>
</event>
<event>
 4    1  0.4043737E+006  0.6556997E+01  0.7546771E-02  0.2348116E+00
         21   -1    0    0  503  502  0.00000000000E+00  0.00000000000E+00  0.42055705467E+02  0.42055705467E+02  0.00000000000E+00 0.  1.
         21   -1    0    0  501  503 -0.00000000000E+00 -0.00000000000E+00 -0.14901482982E+01  0.14901482982E+01  0.00000000000E+00 0.  1.
          5    1    1    2  501    0 -0.45713847179E+01  0.81532419070E-01  0.80831296652E+01  0.10408227080E+02  0.47000000000E+01 0.  1.
         -5    1    1    2    0  502  0.45713847179E+01 -0.81532419070E-01  0.32482427503E+02  0.33137626685E+02  0.47000000000E+01 0.  1.
<mgrwt>
<rscale>  2 0.65569967E+01</rscale>
<asrwt>0</asrwt>
<pdfrwt beam="1">  1       21 0.64701076E-02 0.65569967E+01</pdfrwt>
<pdfrwt beam="2">  1       21 0.22925362E-03 0.65569967E+01</pdfrwt>
<totfact> 0.17501380E+09</totfact>
</mgrwt>
</event>
<event>
 4    1  0.4043737E+006  0.5446943E+01  0.7546771E-02  0.2493492E+00
         21   -1    0    0  501  502  0.00000000000E+00  0.00000000000E+00  0.98772117365E-01  0.98772117365E-01  0.00000000000E+00 0. -1.
         21   -1    0    0  502  503 -0.00000000000E+00 -0.00000000000E+00 -0.57499207101E+03  0.57499207101E+03  0.00000000000E+00 0. -1.
          5    1    1    2  501    0  0.23334899156E+00  0.27431254202E+01 -0.88729577682E+02  0.88896609297E+02  0.47000000000E+01 0. -1.
         -5    1    1    2    0  503 -0.23334899156E+00 -0.27431254202E+01 -0.48616372121E+03  0.48619423383E+03  0.47000000000E+01 0. -1.
<mgrwt>
<rscale>  2 0.54469431E+01</rscale>
<asrwt>0</asrwt>
<pdfrwt beam="1">  1       21 0.15195490E-04 0.54469431E+01</pdfrwt>
<pdfrwt beam="2">  1       21 0.88461600E-01 0.54469431E+01</pdfrwt>
<totfact> 0.72420092E+08</totfact>
</mgrwt>
</event>
<event>
 4    1  0.4043737E+006  0.4976638E+01  0.7546771E-02  0.2571315E+00
         21   -1    0    0  503  502  0.00000000000E+00  0.00000000000E+00  0.47317563251E+02  0.47317563251E+02  0.00000000000E+00 0.  1.
         21   -1    0    0  501  503 -0.00000000000E+00 -0.00000000000E+00 -0.64796738260E+00  0.64796738260E+00  0.00000000000E+00 0. -1.
          5    1    1    2  501    0 -0.15587855161E+01 -0.49710199466E+00  0.12820232585E+02  0.13752282946E+02  0.47000000000E+01 0. -1.
         -5    1    1    2    0  502  0.15587855161E+01  0.49710199466E+00  0.33849363283E+02  0.34213247688E+02  0.47000000000E+01 0.  1.
<mgrwt>
<rscale>  2 0.49766377E+01</rscale>
<asrwt>0</asrwt>
<pdfrwt beam="1">  1       21 0.72796224E-02 0.49766377E+01</pdfrwt>
<pdfrwt beam="2">  1       21 0.99687327E-04 0.49766377E+01</pdfrwt>
<totfact> 0.35256350E+09</totfact>
</mgrwt>
</event>
<event>
 4    1  0.4043737E+006  0.5294754E+01  0.7546771E-02  0.2517379E+00
         21   -1    0    0  501  502  0.00000000000E+00  0.00000000000E+00  0.17355213159E+00  0.17355213159E+00  0.00000000000E+00 0. -1.
         21   -1    0    0  502  503 -0.00000000000E+00 -0.00000000000E+00 -0.26502354008E+03  0.26502354008E+03  0.00000000000E+00 0.  1.
          5    1    1    2  501    0 -0.18471011778E+00 -0.24311122231E+01 -0.49564689457E+02  0.49846693626E+02  0.47000000000E+01 0. -1.
         -5    1    1    2    0  503  0.18471011778E+00  0.24311122231E+01 -0.21528529849E+03  0.21535039859E+03  0.47000000000E+01 0.  1.
<mgrwt>
<rscale>  2 0.52947544E+01</rscale>
<asrwt>0</asrwt>
<pdfrwt beam="1">  1       21 0.26700374E-04 0.52947544E+01</pdfrwt>
<pdfrwt beam="2">  1       21 0.40772782E-01 0.52947544E+01</pdfrwt>
<totfact> 0.13955223E+09</totfact>
</mgrwt>
</event>
<event>
 4    1  0.4043737E+006  0.5593960E+01  0.7546771E-02  0.2471470E+00
         21   -1    0    0  501  502  0.00000000000E+00  0.00000000000E+00  0.95228920424E+00  0.95228920424E+00  0.00000000000E+00 0.  1.
         21   -1    0    0  502  503 -0.00000000000E+00 -0.00000000000E+00 -0.63695070306E+02  0.63695070306E+02  0.00000000000E+00 0.  1.
          5    1    1    2  501    0  0.30334165170E+01 -0.27807562208E-01 -0.88814073888E+01  0.10496274874E+02  0.47000000000E+01 0.  1.
         -5    1    1    2    0  503 -0.30334165170E+01  0.27807562208E-01 -0.53861373712E+02  0.54151084636E+02  0.47000000000E+01 0.  1.
<mgrwt>
<rscale>  2 0.55939600E+01</rscale>
<asrwt>0</asrwt>
<pdfrwt beam="1">  1       21 0.14650598E-03 0.55939600E+01</pdfrwt>
<pdfrwt beam="2">  1       21 0.97992447E-02 0.55939600E+01</pdfrwt>
<totfact> 0.15036335E+09</totfact>
</mgrwt>
</event>
<event>
 4    1  0.4043737E+006  0.5283699E+01  0.7546771E-02  0.2519160E+00
         21   -1    0    0  503  502  0.00000000000E+00  0.00000000000E+00  0.24866797884E+00  0.24866797884E+00  0.00000000000E+00 0. -1.
         21   -1    0    0  501  503 -0.00000000000E+00 -0.00000000000E+00 -0.20529466547E+03  0.20529466547E+03  0.00000000000E+00 0. -1.
          5    1    1    2  501    0 -0.46430545588E+00 -0.23689436822E+01 -0.17170420566E+03  0.17178548168E+03  0.47000000000E+01 0. -1.
         -5    1    1    2    0  502  0.46430545588E+00  0.23689436822E+01 -0.33341791831E+02  0.33757851772E+02  0.47000000000E+01 0. -1.
<mgrwt>
<rscale>  2 0.52836989E+01</rscale>
<asrwt>0</asrwt>
<pdfrwt beam="1">  1       21 0.38256605E-04 0.52836989E+01</pdfrwt>
<pdfrwt beam="2">  1       21 0.31583801E-01 0.52836989E+01</pdfrwt>
<totfact> 0.13350945E+09</totfact>
</mgrwt>
</event>
<event>
 4    1  0.4043737E+006  0.5212277E+01  0.7546771E-02  0.2530820E+00
         21   -1    0    0  503  502  0.00000000000E+00  0.00000000000E+00  0.40629515973E+02  0.40629515973E+02  0.00000000000E+00 0.  1.
         21   -1    0    0  501  503 -0.00000000000E+00 -0.00000000000E+00 -0.68671705044E+00  0.68671705044E+00  0.00000000000E+00 0.  1.
          5    1    1    2  501    0 -0.22524486651E+01  0.65653207132E-01  0.23320099357E+02  0.23895498935E+02  0.47000000000E+01 0.  1.
         -5    1    1    2    0  502  0.22524486651E+01 -0.65653207132E-01  0.16622699565E+02  0.17420734088E+02  0.47000000000E+01 0.  1.
<mgrwt>
<rscale>  2 0.52122774E+01</rscale>
<asrwt>0</asrwt>
<pdfrwt beam="1">  1       21 0.62506929E-02 0.52122774E+01</pdfrwt>
<pdfrwt beam="2">  1       21 0.10564881E-03 0.52122774E+01</pdfrwt>
<totfact> 0.42870490E+09</totfact>
</mgrwt>
</event>
<event>
 4    1  0.4043737E+006  0.4981091E+01  0.7546771E-02  0.2570519E+00
         21   -1    0    0  503  502  0.00000000000E+00  0.00000000000E+00  0.28050718141E+01  0.28050718141E+01  0.00000000000E+00 0. -1.
         21   -1    0    0  501  503 -0.00000000000E+00 -0.00000000000E+00 -0.91125184414E+01  0.91125184414E+01  0.00000000000E+00 0. -1.
          5    1    1    2  501    0  0.16162936099E+01 -0.32994532704E+00 -0.41744225545E+01  0.64990055097E+01  0.47000000000E+01 0. -1.
         -5    1    1    2    0  502 -0.16162936099E+01  0.32994532704E+00 -0.21330240728E+01  0.54185847458E+01  0.47000000000E+01 0. -1.
<mgrwt>
<rscale>  2 0.49810911E+01</rscale>
<asrwt>0</asrwt>
<pdfrwt beam="1">  1       21 0.43154951E-03 0.49810911E+01</pdfrwt>
<pdfrwt beam="2">  1       21 0.14019259E-02 0.49810911E+01</pdfrwt>
<totfact> 0.52571772E+09</totfact>
</mgrwt>
</event>
<event>
 4    1  0.4043737E+006  0.5702366E+01  0.7546771E-02  0.2455849E+00
         21   -1    0    0  501  502  0.00000000000E+00  0.00000000000E+00  0.11484948229E+04  0.11484948229E+04  0.00000000000E+00 0.  1.
         21   -1    0    0  502  503 -0.00000000000E+00 -0.00000000000E+00 -0.76069781217E+00  0.76069781217E+00  0.00000000000E+00 0. -1.
          5    1    1    2  501    0  0.30075735159E+01  0.11753641430E+01  0.11376997835E+04  0.11377140740E+04  0.47000000000E+01 0.  1.
         -5    1    1    2    0  503 -0.30075735159E+01 -0.11753641430E+01  0.10034341593E+02  0.11541446639E+02  0.47000000000E+01 0. -1.
<mgrwt>
<rscale>  2 0.57023661E+01</rscale>
<asrwt>0</asrwt>
<pdfrwt beam="1">  1       21 0.17669012E+00 0.57023661E+01</pdfrwt>
<pdfrwt beam="2">  1       21 0.11703135E-03 0.57023661E+01</pdfrwt>
<totfact> 0.11629405E+07</totfact>
</mgrwt>
</event>
<event>
 4    1  0.4043737E+006  0.1340321E+02  0.7546771E-02  0.1921103E+00
         21   -1    0    0  503  502  0.00000000000E+00  0.00000000000E+00  0.20368949208E+03  0.20368949208E+03  0.00000000000E+00 0. -1.
         21   -1    0    0  501  503 -0.00000000000E+00 -0.00000000000E+00 -0.13534937047E+01  0.13534937047E+01  0.00000000000E+00 0.  1.
          5    1    1    2  501    0  0.30256334336E+01 -0.12182020581E+02  0.40655798289E+02  0.42808176995E+02  0.47000000000E+01 0.  1.
         -5    1    1    2    0  502 -0.30256334336E+01  0.12182020581E+02  0.16168020008E+03  0.16223480879E+03  0.47000000000E+01 0. -1.
<mgrwt>
<rscale>  2 0.13403212E+02</rscale>
<asrwt>0</asrwt>
<pdfrwt beam="1">  1       21 0.31336821E-01 0.13403212E+02</pdfrwt>
<pdfrwt beam="2">  1       21 0.20822996E-03 0.13403212E+02</pdfrwt>
<totfact> 0.23108592E+08</totfact>
</mgrwt>
</event>
<event>
 4    1  0.4043737E+006  0.5508586E+01  0.7546771E-02  0.2484137E+00
         21   -1    0    0  501  502  0.00000000000E+00  0.00000000000E+00  0.31629046797E+02  0.31629046797E+02  0.00000000000E+00 0. -1.
         21   -1    0    0  502  503 -0.00000000000E+00 -0.00000000000E+00 -0.10181315810E+01  0.10181315810E+01  0.00000000000E+00 0. -1.
          5    1    1    2  501    0  0.23209028958E+01 -0.16934977306E+01  0.19226434447E+02  0.20000007659E+02  0.47000000000E+01 0.  1.
         -5    1    1    2    0  503 -0.23209028958E+01  0.16934977306E+01  0.11384480769E+02  0.12647170719E+02  0.47000000000E+01 0.  1.
<mgrwt>
<rscale>  2 0.55085865E+01</rscale>
<asrwt>0</asrwt>
<pdfrwt beam="1">  1       21 0.48660064E-02 0.55085865E+01</pdfrwt>
<pdfrwt beam="2">  1       21 0.15663565E-03 0.55085865E+01</pdfrwt>
<totfact> 0.38636797E+09</totfact>
</mgrwt>
</event>
<event>
 4    1  0.4043737E+006  0.7612443E+01  0.7546771E-02  0.2243348E+00
         21   -1    0    0  503  502  0.00000000000E+00  0.00000000000E+00  0.53742074267E+01  0.53742074267E+01  0.00000000000E+00 0. -1.
         21   -1    0    0  501  503 -0.00000000000E+00 -0.00000000000E+00 -0.13700317996E+02  0.13700317996E+02  0.00000000000E+00 0. -1.
          5    1    1    2  501    0  0.59375100298E+01 -0.77799004978E+00 -0.85641546821E+01  0.11458361108E+02  0.47000000000E+01 0.  1.
         -5    1    1    2    0  502 -0.59375100298E+01  0.77799004978E+00  0.23804411230E+00  0.76161643148E+01  0.47000000000E+01 0.  1.
<mgrwt>
<rscale>  2 0.76124434E+01</rscale>
<asrwt>0</asrwt>
<pdfrwt beam="1">  1       21 0.82680115E-03 0.76124434E+01</pdfrwt>
<pdfrwt beam="2">  1       21 0.21077412E-02 0.76124434E+01</pdfrwt>
<totfact> 0.17183819E+09</totfact>
</mgrwt>
</event>
<event>
 4    1  0.4043737E+006  0.4973849E+01  0.7546771E-02  0.2571814E+00
         21   -1    0    0  501  502  0.00000000000E+00  0.00000000000E+00  0.32211664657E+00  0.32211664657E+00  0.00000000000E+00 0. -1.
         21   -1    0    0  502  503 -0.00000000000E+00 -0.00000000000E+00 -0.84495145984E+02  0.84495145984E+02  0.00000000000E+00 0. -1.
          5    1    1    2  501    0 -0.12160494616E+00 -0.16230791758E+01 -0.29289964705E+02  0.29709278117E+02  0.47000000000E+01 0. -1.
         -5    1    1    2    0  503  0.12160494616E+00  0.16230791758E+01 -0.54883064632E+02  0.55107984514E+02  0.47000000000E+01 0. -1.
<mgrwt>
<rscale>  2 0.49738490E+01</rscale>
<asrwt>0</asrwt>
<pdfrwt beam="1">  1       21 0.49556365E-04 0.49738490E+01</pdfrwt>
<pdfrwt beam="2">  1       21 0.12999264E-01 0.49738490E+01</pdfrwt>
<totfact> 0.37067355E+09</totfact>
</mgrwt>
</event>
<event>
 4    1  0.4043737E+006  0.7296003E+01  0.7546771E-02  0.2272148E+00
         21   -1    0    0  503  502  0.00000000000E+00  0.00000000000E+00  0.85323812692E+01  0.85323812692E+01  0.00000000000E+00 0. -1.
         21   -1    0    0  501  503 -0.00000000000E+00 -0.00000000000E+00 -0.96963866360E+01  0.96963866360E+01  0.00000000000E+00 0.  1.
          5    1    1    2  501    0  0.54171576208E+01 -0.13401730482E+01 -0.60246484473E+01  0.94619263050E+01  0.47000000000E+01 0.  1.
         -5    1    1    2    0  502 -0.54171576208E+01  0.13401730482E+01  0.48606430804E+01  0.87668416002E+01  0.47000000000E+01 0. -1.
<mgrwt>
<rscale>  2 0.72960030E+01</rscale>
<asrwt>0</asrwt>
<pdfrwt beam="1">  1       21 0.13126740E-02 0.72960030E+01</pdfrwt>
<pdfrwt beam="2">  1       21 0.14917518E-02 0.72960030E+01</pdfrwt>
<totfact> 0.14194160E+09</totfact>
</mgrwt>
</event>
<event>
 4    1  0.4043737E+006  0.1204337E+02  0.7546771E-02  0.1974488E+00
         21   -1    0    0  501  502  0.00000000000E+00  0.00000000000E+00  0.37655596795E+00  0.37655596795E+00  0.00000000000E+00 0. -1.
         21   -1    0    0  502  503 -0.00000000000E+00 -0.00000000000E+00 -0.80351257208E+03  0.80351257208E+03  0.00000000000E+00 0. -1.
          5    1    1    2  501    0 -0.11009324964E+02  0.13219492339E+01 -0.11154707800E+03  0.11219533590E+03  0.47000000000E+01 0. -1.
         -5    1    1    2    0  503  0.11009324964E+02 -0.13219492339E+01 -0.69158893811E+03  0.69169379215E+03  0.47000000000E+01 0. -1.
<mgrwt>
<rscale>  2 0.12043371E+02</rscale>
<asrwt>0</asrwt>
<pdfrwt beam="1">  1       21 0.57932016E-04 0.12043371E+02</pdfrwt>
<pdfrwt beam="2">  1       21 0.12361662E+00 0.12043371E+02</pdfrwt>
<totfact> 0.89259561E+07</totfact>
</mgrwt>
</event>
<event>
 4    1  0.4043737E+006  0.5151197E+01  0.7546771E-02  0.2541011E+00
         21   -1    0    0  503  502  0.00000000000E+00  0.00000000000E+00  0.91375071833E+01  0.91375071833E+01  0.00000000000E+00 0.  1.
         21   -1    0    0  501  503 -0.00000000000E+00 -0.00000000000E+00 -0.31770902097E+01  0.31770902097E+01  0.00000000000E+00 0.  1.
          5    1    1    2  501    0 -0.11637419092E+01 -0.17579921756E+01  0.11748183090E+01  0.52834675905E+01  0.47000000000E+01 0.  1.
         -5    1    1    2    0  502  0.11637419092E+01  0.17579921756E+01  0.47855986646E+01  0.70311298025E+01  0.47000000000E+01 0.  1.
<mgrwt>
<rscale>  2 0.51511971E+01</rscale>
<asrwt>0</asrwt>
<pdfrwt beam="1">  1       21 0.14057703E-02 0.51511971E+01</pdfrwt>
<pdfrwt beam="2">  1       21 0.48878311E-03 0.51511971E+01</pdfrwt>
<totfact> 0.45735557E+09</totfact>
</mgrwt>
</event>
<event>
 4    1  0.4043737E+006  0.5293415E+01  0.7546771E-02  0.2517594E+00
         21   -1    0    0  501  502  0.00000000000E+00  0.00000000000E+00  0.36788741820E+02  0.36788741820E+02  0.00000000000E+00 0.  1.
         21   -1    0    0  502  503 -0.00000000000E+00 -0.00000000000E+00 -0.76962393295E+00  0.76962393295E+00  0.00000000000E+00 0. -1.
          5    1    1    2  501    0 -0.22078866043E+01 -0.10273628104E+01  0.16098362648E+02  0.16946312801E+02  0.47000000000E+01 0.  1.
         -5    1    1    2    0  503  0.22078866043E+01  0.10273628104E+01  0.19920755240E+02  0.20612052953E+02  0.47000000000E+01 0. -1.
<mgrwt>
<rscale>  2 0.52934146E+01</rscale>
<asrwt>0</asrwt>
<pdfrwt beam="1">  1       21 0.56598051E-02 0.52934146E+01</pdfrwt>
<pdfrwt beam="2">  1       21 0.11840371E-03 0.52934146E+01</pdfrwt>
<totfact> 0.43304956E+09</totfact>
</mgrwt>
</event>
<event>
 4    1  0.4043737E+006  0.7457339E+01  0.7546771E-02  0.2257216E+00
         21   -1    0    0  503  502  0.00000000000E+00  0.00000000000E+00  0.59843048811E+02  0.59843048811E+02  0.00000000000E+00 0. -1.
         21   -1    0    0  501  503 -0.00000000000E+00 -0.00000000000E+00 -0.12285473285E+01  0.12285473285E+01  0.00000000000E+00 0. -1.
          5    1    1    2  501    0  0.28858483835E+01  0.50193416276E+01  0.14236624218E+02  0.16071508343E+02  0.47000000000E+01 0. -1.
         -5    1    1    2    0  502 -0.28858483835E+01 -0.50193416276E+01  0.44377877265E+02  0.45000087797E+02  0.47000000000E+01 0. -1.
<mgrwt>
<rscale>  2 0.74573394E+01</rscale>
<asrwt>0</asrwt>
<pdfrwt beam="1">  1       21 0.92066206E-02 0.74573394E+01</pdfrwt>
<pdfrwt beam="2">  1       21 0.18900733E-03 0.74573394E+01</pdfrwt>
<totfact> 0.14632306E+09</totfact>
</mgrwt>
</event>
<event>
 4    1  0.4043737E+006  0.1596622E+02  0.7546771E-02  0.1839940E+00
         21   -1    0    0  503  502  0.00000000000E+00  0.00000000000E+00  0.13870774678E+02  0.13870774678E+02  0.00000000000E+00 0.  1.
         21   -1    0    0  501  503 -0.00000000000E+00 -0.00000000000E+00 -0.22310706716E+02  0.22310706716E+02  0.00000000000E+00 0. -1.
          5    1    1    2  501    0 -0.13230941608E+02 -0.76008145929E+01 -0.11815059428E+02  0.19862422500E+02  0.47000000000E+01 0. -1.
         -5    1    1    2    0  502  0.13230941608E+02  0.76008145929E+01  0.33751273895E+01  0.16319058894E+02  0.47000000000E+01 0.  1.
<mgrwt>
<rscale>  2 0.15966221E+02</rscale>
<asrwt>0</asrwt>
<pdfrwt beam="1">  1       21 0.21339653E-02 0.15966221E+02</pdfrwt>
<pdfrwt beam="2">  1       21 0.34324164E-02 0.15966221E+02</pdfrwt>
<totfact> 0.30770392E+08</totfact>
</mgrwt>
</event>
<event>
 4    1  0.4043737E+006  0.5072958E+01  0.7546771E-02  0.2554372E+00
         21   -1    0    0  503  502  0.00000000000E+00  0.00000000000E+00  0.27714528251E+01  0.27714528251E+01  0.00000000000E+00 0. -1.
         21   -1    0    0  501  503 -0.00000000000E+00 -0.00000000000E+00 -0.28054868703E+02  0.28054868703E+02  0.00000000000E+00 0. -1.
          5    1    1    2  501    0  0.95597378473E+00  0.16525786157E+01 -0.25248657439E+02  0.25753244542E+02  0.47000000000E+01 0. -1.
         -5    1    1    2    0  502 -0.95597378473E+00 -0.16525786157E+01 -0.34758438720E-01  0.50730769861E+01  0.47000000000E+01 0. -1.
<mgrwt>
<rscale>  2 0.50729579E+01</rscale>
<asrwt>0</asrwt>
<pdfrwt beam="1">  1       21 0.42637736E-03 0.50729579E+01</pdfrwt>
<pdfrwt beam="2">  1       21 0.43161336E-02 0.50729579E+01</pdfrwt>
<totfact> 0.10928016E+09</totfact>
</mgrwt>
</event>
<event>
 4    1  0.4043737E+006  0.1156292E+02  0.7546771E-02  0.1995621E+00
         21   -1    0    0  501  502  0.00000000000E+00  0.00000000000E+00  0.57638550313E+01  0.57638550313E+01  0.00000000000E+00 0.  1.
         21   -1    0    0  502  503 -0.00000000000E+00 -0.00000000000E+00 -0.45228299155E+02  0.45228299155E+02  0.00000000000E+00 0. -1.
          5    1    1    2  501    0 -0.10561384085E+02  0.26127247426E+00 -0.19374060652E+01  0.11724105056E+02  0.47000000000E+01 0.  1.
         -5    1    1    2    0  503  0.10561384085E+02 -0.26127247426E+00 -0.37527038059E+02  0.39268049131E+02  0.47000000000E+01 0. -1.
<mgrwt>
<rscale>  2 0.11562919E+02</rscale>
<asrwt>0</asrwt>
<pdfrwt beam="1">  1       21 0.88674693E-03 0.11562919E+02</pdfrwt>
<pdfrwt beam="2">  1       21 0.69581998E-02 0.11562919E+02</pdfrwt>
<totfact> 0.32832944E+08</totfact>
</mgrwt>
</event>
<event>
 4    1  0.4043737E+006  0.7625366E+01  0.7546771E-02  0.2242214E+00
         21   -1    0    0  501  502  0.00000000000E+00  0.00000000000E+00  0.44365302070E+00  0.44365302070E+00  0.00000000000E+00 0.  1.
         21   -1    0    0  502  503 -0.00000000000E+00 -0.00000000000E+00 -0.34288392005E+03  0.34288392005E+03  0.00000000000E+00 0.  1.
          5    1    1    2  501    0  0.59808225949E+01  0.53476618921E+00 -0.36295823667E+02  0.37088179107E+02  0.47000000000E+01 0.  1.
         -5    1    1    2    0  503 -0.59808225949E+01 -0.53476618921E+00 -0.30614444336E+03  0.30623939396E+03  0.47000000000E+01 0.  1.
<mgrwt>
<rscale>  2 0.76253665E+01</rscale>
<asrwt>0</asrwt>
<pdfrwt beam="1">  1       21 0.68254130E-04 0.76253665E+01</pdfrwt>
<pdfrwt beam="2">  1       21 0.52751512E-01 0.76253665E+01</pdfrwt>
<totfact> 0.32207632E+08</totfact>
</mgrwt>
</event>
<event>
 4    1  0.4043737E+006  0.7214521E+01  0.7546771E-02  0.2279895E+00
         21   -1    0    0  501  502  0.00000000000E+00  0.00000000000E+00  0.10119442579E+02  0.10119442579E+02  0.00000000000E+00 0.  1.
         21   -1    0    0  502  503 -0.00000000000E+00 -0.00000000000E+00 -0.52787900566E+01  0.52787900566E+01  0.00000000000E+00 0. -1.
          5    1    1    2  501    0 -0.16237217245E+01  0.52271254660E+01  0.36529001797E+01  0.80865933865E+01  0.47000000000E+01 0.  1.
         -5    1    1    2    0  503  0.16237217245E+01 -0.52271254660E+01  0.11877523422E+01  0.73116392486E+01  0.47000000000E+01 0. -1.
<mgrwt>
<rscale>  2 0.72145210E+01</rscale>
<asrwt>0</asrwt>
<pdfrwt beam="1">  1       21 0.15568373E-02 0.72145210E+01</pdfrwt>
<pdfrwt beam="2">  1       21 0.81212155E-03 0.72145210E+01</pdfrwt>
<totfact> 0.26272154E+09</totfact>
</mgrwt>
</event>
<event>
 4    1  0.4043737E+006  0.5000379E+01  0.7546771E-02  0.2567087E+00
         21   -1    0    0  501  502  0.00000000000E+00  0.00000000000E+00  0.39484886590E+03  0.39484886590E+03  0.00000000000E+00 0.  1.
         21   -1    0    0  502  503 -0.00000000000E+00 -0.00000000000E+00 -0.52431781869E+00  0.52431781869E+00  0.00000000000E+00 0.  1.
          5    1    1    2  501    0  0.47944103797E+00  0.16382695742E+01  0.38252696084E+03  0.38255964184E+03  0.47000000000E+01 0.  1.
         -5    1    1    2    0  503 -0.47944103797E+00 -0.16382695742E+01  0.11797587241E+02  0.12813541884E+02  0.47000000000E+01 0.  1.
<mgrwt>
<rscale>  2 0.50003791E+01</rscale>
<asrwt>0</asrwt>
<pdfrwt beam="1">  1       21 0.60745742E-01 0.50003791E+01</pdfrwt>
<pdfrwt beam="2">  1       21 0.80664595E-04 0.50003791E+01</pdfrwt>
<totfact> 0.15134137E+08</totfact>
</mgrwt>
</event>
<event>
 4    1  0.4043737E+006  0.5812081E+01  0.7546771E-02  0.2440542E+00
         21   -1    0    0  503  502  0.00000000000E+00  0.00000000000E+00  0.12852356876E+00  0.12852356876E+00  0.00000000000E+00 0.  1.
         21   -1    0    0  501  503 -0.00000000000E+00 -0.00000000000E+00 -0.80574522525E+03  0.80574522525E+03  0.00000000000E+00 0.  1.
          5    1    1    2  501    0  0.17741365407E+01 -0.29227936069E+01 -0.73356059902E+03  0.73358362354E+03  0.47000000000E+01 0.  1.
         -5    1    1    2    0  502 -0.17741365407E+01  0.29227936069E+01 -0.72056102660E+02  0.72290125284E+02  0.47000000000E+01 0.  1.
<mgrwt>
<rscale>  2 0.58120808E+01</rscale>
<asrwt>0</asrwt>
<pdfrwt beam="1">  1       21 0.19772749E-04 0.58120808E+01</pdfrwt>
<pdfrwt beam="2">  1       21 0.12396148E+00 0.58120808E+01</pdfrwt>
<totfact> 0.26907761E+08</totfact>
</mgrwt>
</event>
<event>
 4    1  0.4043737E+006  0.7437909E+01  0.7546771E-02  0.2258987E+00
         21   -1    0    0  501  502  0.00000000000E+00  0.00000000000E+00  0.49265186039E+02  0.49265186039E+02  0.00000000000E+00 0. -1.
         21   -1    0    0  502  503 -0.00000000000E+00 -0.00000000000E+00 -0.28852184011E+01  0.28852184011E+01  0.00000000000E+00 0.  1.
          5    1    1    2  501    0 -0.57355997379E+01 -0.57912566413E+00  0.43568567157E+02  0.44198897441E+02  0.47000000000E+01 0. -1.
         -5    1    1    2    0  503  0.57355997379E+01  0.57912566413E+00  0.28114004805E+01  0.79515069987E+01  0.47000000000E+01 0.  1.
<mgrwt>
<rscale>  2 0.74379090E+01</rscale>
<asrwt>0</asrwt>
<pdfrwt beam="1">  1       21 0.75792588E-02 0.74379090E+01</pdfrwt>
<pdfrwt beam="2">  1       21 0.44387979E-03 0.74379090E+01</pdfrwt>
<totfact> 0.60227314E+08</totfact>
</mgrwt>
</event>
<event>
 4    1  0.4043737E+006  0.5162073E+01  0.7546771E-02  0.2539181E+00
         21   -1    0    0  501  502  0.00000000000E+00  0.00000000000E+00  0.13309438413E+03  0.13309438413E+03  0.00000000000E+00 0. -1.
         21   -1    0    0  502  503 -0.00000000000E+00 -0.00000000000E+00 -0.19491115479E+01  0.19491115479E+01  0.00000000000E+00 0. -1.
          5    1    1    2  501    0  0.20819534322E+01  0.47166386458E+00  0.12953254728E+03  0.12963536478E+03  0.47000000000E+01 0. -1.
         -5    1    1    2    0  503 -0.20819534322E+01 -0.47166386458E+00  0.16127253009E+01  0.54081308963E+01  0.47000000000E+01 0. -1.
<mgrwt>
<rscale>  2 0.51620729E+01</rscale>
<asrwt>0</asrwt>
<pdfrwt beam="1">  1       21 0.20476052E-01 0.51620729E+01</pdfrwt>
<pdfrwt beam="2">  1       21 0.29986342E-03 0.51620729E+01</pdfrwt>
<totfact> 0.16937971E+08</totfact>
</mgrwt>
</event>
<event>
 4    1  0.4043737E+006  0.7447337E+01  0.7546771E-02  0.2258127E+00
         21   -1    0    0  501  502  0.00000000000E+00  0.00000000000E+00  0.26810385866E+03  0.26810385866E+03  0.00000000000E+00 0. -1.
         21   -1    0    0  502  503 -0.00000000000E+00 -0.00000000000E+00 -0.11898227951E+01  0.11898227951E+01  0.00000000000E+00 0.  1.
          5    1    1    2  501    0 -0.46751803286E+01  0.33934532061E+01  0.25584004734E+03  0.25594841796E+03  0.47000000000E+01 0. -1.
         -5    1    1    2    0  503  0.46751803286E+01 -0.33934532061E+01  0.11073988524E+02  0.13345263489E+02  0.47000000000E+01 0.  1.
<mgrwt>
<rscale>  2 0.74473375E+01</rscale>
<asrwt>0</asrwt>
<pdfrwt beam="1">  1       21 0.41246700E-01 0.74473375E+01</pdfrwt>
<pdfrwt beam="2">  1       21 0.18304987E-03 0.74473375E+01</pdfrwt>
<totfact> 0.12929796E+08</totfact>
</mgrwt>
</event>
<event>
 4    1  0.4043737E+006  0.6677784E+01  0.7546771E-02  0.2334758E+00
         21   -1    0    0  501  502  0.00000000000E+00  0.00000000000E+00  0.14140170364E+03  0.14140170364E+03  0.00000000000E+00 0. -1.
         21   -1    0    0  502  503 -0.00000000000E+00 -0.00000000000E+00 -0.34339978067E+00  0.34339978067E+00  0.00000000000E+00 0. -1.
          5    1    1    2  501    0  0.34426972318E+01 -0.32635302947E+01  0.90780131591E+02  0.91025409012E+02  0.47000000000E+01 0. -1.
         -5    1    1    2    0  503 -0.34426972318E+01  0.32635302947E+01  0.50278172269E+02  0.50719694409E+02  0.47000000000E+01 0. -1.
<mgrwt>
<rscale>  2 0.66777836E+01</rscale>
<asrwt>0</asrwt>
<pdfrwt beam="1">  1       21 0.21754062E-01 0.66777836E+01</pdfrwt>
<pdfrwt beam="2">  1       21 0.52830848E-04 0.66777836E+01</pdfrwt>
<totfact> 0.19387846E+09</totfact>
</mgrwt>
</event>
<event>
 4    1  0.4043737E+006  0.1008164E+02  0.7546771E-02  0.2070371E+00
         21   -1    0    0  503  502  0.00000000000E+00  0.00000000000E+00  0.72051776773E+01  0.72051776773E+01  0.00000000000E+00 0.  1.
         21   -1    0    0  501  503 -0.00000000000E+00 -0.00000000000E+00 -0.14215471110E+02  0.14215471110E+02  0.00000000000E+00 0. -1.
          5    1    1    2  501    0 -0.65482150812E+01  0.60556097887E+01 -0.25672329386E+01  0.10403375203E+02  0.47000000000E+01 0.  1.
         -5    1    1    2    0  502  0.65482150812E+01 -0.60556097887E+01 -0.44430604937E+01  0.11017273583E+02  0.47000000000E+01 0. -1.
<mgrwt>
<rscale>  2 0.10081643E+02</rscale>
<asrwt>0</asrwt>
<pdfrwt beam="1">  1       21 0.11084889E-02 0.10081643E+02</pdfrwt>
<pdfrwt beam="2">  1       21 0.21869955E-02 0.10081643E+02</pdfrwt>
<totfact> 0.12835940E+09</totfact>
</mgrwt>
</event>
<event>
 4    1  0.4043737E+006  0.7238234E+01  0.7546771E-02  0.2277626E+00
         21   -1    0    0  503  502  0.00000000000E+00  0.00000000000E+00  0.11639481485E+03  0.11639481485E+03  0.00000000000E+00 0. -1.
         21   -1    0    0  501  503 -0.00000000000E+00 -0.00000000000E+00 -0.90887717039E+00  0.90887717039E+00  0.00000000000E+00 0.  1.
          5    1    1    2  501    0  0.53874563550E+00 -0.54783011067E+01  0.16073409159E+02  0.17628003627E+02  0.47000000000E+01 0.  1.
         -5    1    1    2    0  502 -0.53874563550E+00  0.54783011067E+01  0.99412528521E+02  0.99675688394E+02  0.47000000000E+01 0. -1.
<mgrwt>
<rscale>  2 0.72382339E+01</rscale>
<asrwt>0</asrwt>
<pdfrwt beam="1">  1       21 0.17906883E-01 0.72382339E+01</pdfrwt>
<pdfrwt beam="2">  1       21 0.13982735E-03 0.72382339E+01</pdfrwt>
<totfact> 0.75527000E+08</totfact>
</mgrwt>
</event>
<event>
 4    1  0.4043737E+006  0.8276033E+01  0.7546771E-02  0.2188819E+00
         21   -1    0    0  503  502  0.00000000000E+00  0.00000000000E+00  0.13455013560E+00  0.13455013560E+00  0.00000000000E+00 0. -1.
         21   -1    0    0  501  503 -0.00000000000E+00 -0.00000000000E+00 -0.99829113507E+03  0.99829113507E+03  0.00000000000E+00 0.  1.
          5    1    1    2  501    0  0.50732327344E+01  0.45458799918E+01 -0.84855539606E+03  0.84859575353E+03  0.47000000000E+01 0.  1.
         -5    1    1    2    0  502 -0.50732327344E+01 -0.45458799918E+01 -0.14960118887E+03  0.14982993168E+03  0.47000000000E+01 0. -1.
<mgrwt>
<rscale>  2 0.82760326E+01</rscale>
<asrwt>0</asrwt>
<pdfrwt beam="1">  1       21 0.20700465E-04 0.82760326E+01</pdfrwt>
<pdfrwt beam="2">  1       21 0.15357996E+00 0.82760326E+01</pdfrwt>
<totfact> 0.19350541E+08</totfact>
</mgrwt>
</event>
<event>
 4    1  0.4043737E+006  0.7664946E+01  0.7546771E-02  0.2238758E+00
         21   -1    0    0  503  502  0.00000000000E+00  0.00000000000E+00  0.65185737851E+00  0.65185737851E+00  0.00000000000E+00 0.  1.
         21   -1    0    0  501  503 -0.00000000000E+00 -0.00000000000E+00 -0.94034523309E+02  0.94034523309E+02  0.00000000000E+00 0.  1.
          5    1    1    2  501    0  0.30914209563E+01 -0.52061996431E+01 -0.56339418419E+02  0.56858433553E+02  0.47000000000E+01 0.  1.
         -5    1    1    2    0  502 -0.30914209563E+01  0.52061996431E+01 -0.37043247511E+02  0.37827947135E+02  0.47000000000E+01 0.  1.
<mgrwt>
<rscale>  2 0.76649461E+01</rscale>
<asrwt>0</asrwt>
<pdfrwt beam="1">  1       21 0.10028574E-03 0.76649461E+01</pdfrwt>
<pdfrwt beam="2">  1       21 0.14466851E-01 0.76649461E+01</pdfrwt>
<totfact> 0.17426637E+09</totfact>
</mgrwt>
</event>
<event>
 4    1  0.4043737E+006  0.9568867E+01  0.7546771E-02  0.2100388E+00
         21   -1    0    0  501  502  0.00000000000E+00  0.00000000000E+00  0.11803084020E+04  0.11803084020E+04  0.00000000000E+00 0.  1.
         21   -1    0    0  502  503 -0.00000000000E+00 -0.00000000000E+00 -0.87542316931E-01  0.87542316931E-01  0.00000000000E+00 0. -1.
          5    1    1    2  501    0 -0.50177143440E+01 -0.66555057291E+01  0.78925260945E+03  0.78931061359E+03  0.47000000000E+01 0.  1.
         -5    1    1    2    0  503  0.50177143440E+01  0.66555057291E+01  0.39096825020E+03  0.39108533068E+03  0.47000000000E+01 0. -1.
<mgrwt>
<rscale>  2 0.95688669E+01</rscale>
<asrwt>0</asrwt>
<pdfrwt beam="1">  1       21 0.18157316E+00 0.95688669E+01</pdfrwt>
<pdfrwt beam="2">  1       21 0.13468994E-04 0.95688669E+01</pdfrwt>
<totfact> 0.25221744E+08</totfact>
</mgrwt>
</event>
<event>
 4    1  0.4043737E+006  0.1387152E+02  0.7546771E-02  0.1904593E+00
         21   -1    0    0  503  502  0.00000000000E+00  0.00000000000E+00  0.51211713649E+01  0.51211713649E+01  0.00000000000E+00 0. -1.
         21   -1    0    0  501  503 -0.00000000000E+00 -0.00000000000E+00 -0.38397491740E+02  0.38397491740E+02  0.00000000000E+00 0. -1.
          5    1    1    2  501    0  0.13013248822E+02 -0.99215258748E+00 -0.19826198254E+02  0.24197048350E+02  0.47000000000E+01 0. -1.
         -5    1    1    2    0  502 -0.13013248822E+02  0.99215258748E+00 -0.13450122121E+02  0.19321614755E+02  0.47000000000E+01 0. -1.
<mgrwt>
<rscale>  2 0.13871518E+02</rscale>
<asrwt>0</asrwt>
<pdfrwt beam="1">  1       21 0.78787249E-03 0.13871518E+02</pdfrwt>
<pdfrwt beam="2">  1       21 0.59073067E-02 0.13871518E+02</pdfrwt>
<totfact> 0.54907161E+08</totfact>
</mgrwt>
</event>
<event>
 4    1  0.4043737E+006  0.5501727E+01  0.7546771E-02  0.2485169E+00
         21   -1    0    0  501  502  0.00000000000E+00  0.00000000000E+00  0.28206810494E+01  0.28206810494E+01  0.00000000000E+00 0. -1.
         21   -1    0    0  502  503 -0.00000000000E+00 -0.00000000000E+00 -0.10809637522E+02  0.10809637522E+02  0.00000000000E+00 0. -1.
          5    1    1    2  501    0  0.14739350375E+01 -0.24508201289E+01 -0.34135593152E+01  0.64746730417E+01  0.47000000000E+01 0. -1.
         -5    1    1    2    0  503 -0.14739350375E+01  0.24508201289E+01 -0.45753971573E+01  0.71556455297E+01  0.47000000000E+01 0. -1.
<mgrwt>
<rscale>  2 0.55017273E+01</rscale>
<asrwt>0</asrwt>
<pdfrwt beam="1">  1       21 0.43395093E-03 0.55017273E+01</pdfrwt>
<pdfrwt beam="2">  1       21 0.16630212E-02 0.55017273E+01</pdfrwt>
<totfact> 0.45397421E+09</totfact>
</mgrwt>
</event>
<event>
 4    1  0.4043737E+006  0.5751263E+01  0.7546771E-02  0.2448967E+00
         21   -1    0    0  503  502  0.00000000000E+00  0.00000000000E+00  0.33818722713E+00  0.33818722713E+00  0.00000000000E+00 0. -1.
         21   -1    0    0  501  503 -0.00000000000E+00 -0.00000000000E+00 -0.10190068884E+03  0.10190068884E+03  0.00000000000E+00 0. -1.
          5    1    1    2  501    0  0.20662218636E+01  0.25918627449E+01 -0.61027459905E+02  0.61297862016E+02  0.47000000000E+01 0. -1.
         -5    1    1    2    0  502 -0.20662218636E+01 -0.25918627449E+01 -0.40535041712E+02  0.40941014055E+02  0.47000000000E+01 0. -1.
<mgrwt>
<rscale>  2 0.57512629E+01</rscale>
<asrwt>0</asrwt>
<pdfrwt beam="1">  1       21 0.52028746E-04 0.57512629E+01</pdfrwt>
<pdfrwt beam="2">  1       21 0.15677047E-01 0.57512629E+01</pdfrwt>
<totfact> 0.29714936E+09</totfact>
</mgrwt>
</event>
<event>
 4    1  0.4043737E+006  0.6174316E+01  0.7546771E-02  0.2393274E+00
         21   -1    0    0  503  502  0.00000000000E+00  0.00000000000E+00  0.79263210633E-01  0.79263210633E-01  0.00000000000E+00 0. -1.
         21   -1    0    0  501  503 -0.00000000000E+00 -0.00000000000E+00 -0.60021916726E+03  0.60021916726E+03  0.00000000000E+00 0. -1.
          5    1    1    2  501    0 -0.39994401641E+01  0.19146041557E+00 -0.43386314791E+03  0.43390707910E+03  0.47000000000E+01 0. -1.
         -5    1    1    2    0  502  0.39994401641E+01 -0.19146041557E+00 -0.16627675614E+03  0.16639135138E+03  0.47000000000E+01 0. -1.
<mgrwt>
<rscale>  2 0.61743161E+01</rscale>
<asrwt>0</asrwt>
<pdfrwt beam="1">  1       21 0.12194304E-04 0.61743161E+01</pdfrwt>
<pdfrwt beam="2">  1       21 0.92341687E-01 0.61743161E+01</pdfrwt>
<totfact> 0.97359635E+08</totfact>
</mgrwt>
</event>
<event>
 4    1  0.4043737E+006  0.5292817E+01  0.7546771E-02  0.2517690E+00
         21   -1    0    0  501  502  0.00000000000E+00  0.00000000000E+00  0.79136145180E-01  0.79136145180E-01  0.00000000000E+00 0. -1.
         21   -1    0    0  502  503 -0.00000000000E+00 -0.00000000000E+00 -0.36382711740E+03  0.36382711740E+03  0.00000000000E+00 0.  1.
          5    1    1    2  501    0  0.18520711543E+01 -0.15791593107E+01 -0.21178315403E+03  0.21184928191E+03  0.47000000000E+01 0. -1.
         -5    1    1    2    0  503 -0.18520711543E+01  0.15791593107E+01 -0.15196482722E+03  0.15205697164E+03  0.47000000000E+01 0.  1.
<mgrwt>
<rscale>  2 0.52928170E+01</rscale>
<asrwt>0</asrwt>
<pdfrwt beam="1">  1       21 0.12174766E-04 0.52928170E+01</pdfrwt>
<pdfrwt beam="2">  1       21 0.55973521E-01 0.52928170E+01</pdfrwt>
<totfact> 0.22542516E+09</totfact>
</mgrwt>
</event>
<event>
 4    1  0.4043737E+006  0.4870414E+01  0.7546771E-02  0.2590669E+00
         21   -1    0    0  501  502  0.00000000000E+00  0.00000000000E+00  0.16829055122E+03  0.16829055122E+03  0.00000000000E+00 0. -1.
         21   -1    0    0  502  503 -0.00000000000E+00 -0.00000000000E+00 -0.23159313692E+00  0.23159313692E+00  0.00000000000E+00 0. -1.
          5    1    1    2  501    0 -0.77613924748E+00 -0.10141681694E+01  0.13674351265E+03  0.13683022028E+03  0.47000000000E+01 0. -1.
         -5    1    1    2    0  503  0.77613924748E+00  0.10141681694E+01  0.31315445427E+02  0.31691924074E+02  0.47000000000E+01 0. -1.
<mgrwt>
<rscale>  2 0.48704137E+01</rscale>
<asrwt>0</asrwt>
<pdfrwt beam="1">  1       21 0.25890756E-01 0.48704137E+01</pdfrwt>
<pdfrwt beam="2">  1       21 0.35629848E-04 0.48704137E+01</pdfrwt>
<totfact> 0.18937783E+09</totfact>
</mgrwt>
</event>
<event>
 4    1  0.4043737E+006  0.5817102E+01  0.7546771E-02  0.2439854E+00
         21   -1    0    0  503  502  0.00000000000E+00  0.00000000000E+00  0.14784969809E+00  0.14784969809E+00  0.00000000000E+00 0.  1.
         21   -1    0    0  501  503 -0.00000000000E+00 -0.00000000000E+00 -0.37637651573E+03  0.37637651573E+03  0.00000000000E+00 0. -1.
          5    1    1    2  501    0  0.34166257437E+01 -0.27449611396E+00 -0.30597102715E+03  0.30602631935E+03  0.47000000000E+01 0. -1.
         -5    1    1    2    0  502 -0.34166257437E+01  0.27449611396E+00 -0.70257638882E+02  0.70498046078E+02  0.47000000000E+01 0.  1.
<mgrwt>
<rscale>  2 0.58171023E+01</rscale>
<asrwt>0</asrwt>
<pdfrwt beam="1">  1       21 0.22746299E-04 0.58171023E+01</pdfrwt>
<pdfrwt beam="2">  1       21 0.57903592E-01 0.58171023E+01</pdfrwt>
<totfact> 0.99468251E+08</totfact>
</mgrwt>
</event>
<event>
 4    1  0.4043737E+006  0.1245072E+02  0.7546771E-02  0.1957562E+00
         21   -1    0    0  501  502  0.00000000000E+00  0.00000000000E+00  0.30375952467E+02  0.30375952467E+02  0.00000000000E+00 0.  1.
         21   -1    0    0  502  503 -0.00000000000E+00 -0.00000000000E+00 -0.85213646328E+02  0.85213646328E+02  0.00000000000E+00 0. -1.
          5    1    1    2  501    0  0.10413623916E+02  0.49484264826E+01  0.28618586089E+02  0.31209677305E+02  0.47000000000E+01 0.  1.
         -5    1    1    2    0  503 -0.10413623916E+02 -0.49484264826E+01 -0.83456279949E+02  0.84379921490E+02  0.47000000000E+01 0. -1.
<mgrwt>
<rscale>  2 0.12450722E+02</rscale>
<asrwt>0</asrwt>
<pdfrwt beam="1">  1       21 0.46732236E-02 0.12450722E+02</pdfrwt>
<pdfrwt beam="2">  1       21 0.13109791E-01 0.12450722E+02</pdfrwt>
<totfact> 0.10194417E+07</totfact>
</mgrwt>
</event>
<event>
 4    1  0.4043737E+006  0.5192803E+01  0.7546771E-02  0.2534047E+00
         21   -1    0    0  501  502  0.00000000000E+00  0.00000000000E+00  0.27667744067E+03  0.27667744067E+03  0.00000000000E+00 0.  1.
         21   -1    0    0  502  503 -0.00000000000E+00 -0.00000000000E+00 -0.98209952344E-01  0.98209952344E-01  0.00000000000E+00 0.  1.
          5    1    1    2  501    0 -0.21484567219E+01  0.50924663492E+00  0.12620280262E+03  0.12630959024E+03  0.47000000000E+01 0.  1.
         -5    1    1    2    0  503  0.21484567219E+01 -0.50924663492E+00  0.15037642810E+03  0.15046606038E+03  0.47000000000E+01 0.  1.
<mgrwt>
<rscale>  2 0.51928026E+01</rscale>
<asrwt>0</asrwt>
<pdfrwt beam="1">  1       21 0.42565136E-01 0.51928026E+01</pdfrwt>
<pdfrwt beam="2">  1       21 0.15109445E-04 0.51928026E+01</pdfrwt>
<totfact> 0.27100681E+09</totfact>
</mgrwt>
</event>
<event>
 4    1  0.4043737E+006  0.7123154E+01  0.7546771E-02  0.2288754E+00
         21   -1    0    0  503  502  0.00000000000E+00  0.00000000000E+00  0.68401090354E+01  0.68401090354E+01  0.00000000000E+00 0.  1.
         21   -1    0    0  501  503 -0.00000000000E+00 -0.00000000000E+00 -0.74480549009E+01  0.74480549009E+01  0.00000000000E+00 0. -1.
          5    1    1    2  501    0  0.52909699712E+01  0.80929290716E+00  0.15051946781E+00  0.71247438098E+01  0.47000000000E+01 0.  1.
         -5    1    1    2    0  502 -0.52909699712E+01 -0.80929290716E+00 -0.75846533330E+00  0.71634201264E+01  0.47000000000E+01 0. -1.
<mgrwt>
<rscale>  2 0.71231537E+01</rscale>
<asrwt>0</asrwt>
<pdfrwt beam="1">  1       21 0.10523245E-02 0.71231537E+01</pdfrwt>
<pdfrwt beam="2">  1       21 0.11458546E-02 0.71231537E+01</pdfrwt>
<totfact> 0.27939019E+09</totfact>
</mgrwt>
</event>
<event>
 4    1  0.4043737E+006  0.9781499E+01  0.7546771E-02  0.2087640E+00
         21   -1    0    0  501  502  0.00000000000E+00  0.00000000000E+00  0.22250013186E+03  0.22250013186E+03  0.00000000000E+00 0.  1.
         21   -1    0    0  502  503 -0.00000000000E+00 -0.00000000000E+00 -0.90985588425E+00  0.90985588425E+00  0.00000000000E+00 0. -1.
          5    1    1    2  501    0  0.78224903625E+01  0.35208473568E+01  0.19191669494E+03  0.19216580216E+03  0.47000000000E+01 0.  1.
         -5    1    1    2    0  503 -0.78224903625E+01 -0.35208473568E+01  0.29673581034E+02  0.31244185587E+02  0.47000000000E+01 0. -1.
<mgrwt>
<rscale>  2 0.97814989E+01</rscale>
<asrwt>0</asrwt>
<pdfrwt beam="1">  1       21 0.34230746E-01 0.97814989E+01</pdfrwt>
<pdfrwt beam="2">  1       21 0.13997801E-03 0.97814989E+01</pdfrwt>
<totfact> 0.29989101E+08</totfact>
</mgrwt>
</event>
<event>
 4    1  0.4043737E+006  0.7191436E+01  0.7546771E-02  0.2282116E+00
         21   -1    0    0  501  502  0.00000000000E+00  0.00000000000E+00  0.11648683480E+01  0.11648683480E+01  0.00000000000E+00 0. -1.
         21   -1    0    0  502  503 -0.00000000000E+00 -0.00000000000E+00 -0.50400733981E+02  0.50400733981E+02  0.00000000000E+00 0.  1.
          5    1    1    2  501    0 -0.50238491897E+01  0.20946829931E+01 -0.33516485226E+02  0.34279316496E+02  0.47000000000E+01 0. -1.
         -5    1    1    2    0  503  0.50238491897E+01 -0.20946829931E+01 -0.15719380407E+02  0.17286285833E+02  0.47000000000E+01 0.  1.
<mgrwt>
<rscale>  2 0.71914364E+01</rscale>
<asrwt>0</asrwt>
<pdfrwt beam="1">  1       21 0.17921055E-03 0.71914364E+01</pdfrwt>
<pdfrwt beam="2">  1       21 0.77539578E-02 0.71914364E+01</pdfrwt>
<totfact> 0.19981131E+09</totfact>
</mgrwt>
</event>
<event>
 4    1  0.4043737E+006  0.4940856E+01  0.7546771E-02  0.2577754E+00
         21   -1    0    0  501  502  0.00000000000E+00  0.00000000000E+00  0.97442436994E+03  0.97442436994E+03  0.00000000000E+00 0.  1.
         21   -1    0    0  502  503 -0.00000000000E+00 -0.00000000000E+00 -0.28718694062E-01  0.28718694062E-01  0.00000000000E+00 0.  1.
          5    1    1    2  501    0 -0.13021603896E+01  0.79147563228E+00  0.31312187916E+03  0.31316085844E+03  0.47000000000E+01 0.  1.
         -5    1    1    2    0  503  0.13021603896E+01 -0.79147563228E+00  0.66127377209E+03  0.66129223019E+03  0.47000000000E+01 0.  1.
<mgrwt>
<rscale>  2 0.49408557E+01</rscale>
<asrwt>0</asrwt>
<pdfrwt beam="1">  1       21 0.14988497E+00 0.49408557E+01</pdfrwt>
<pdfrwt beam="2">  1       21 0.44190410E-05 0.49408557E+01</pdfrwt>
<totfact> 0.11914463E+09</totfact>
</mgrwt>
</event>
<event>
 4    1  0.4043737E+006  0.5470267E+01  0.7546771E-02  0.2489931E+00
         21   -1    0    0  503  502  0.00000000000E+00  0.00000000000E+00  0.20901380245E+01  0.20901380245E+01  0.00000000000E+00 0.  1.
         21   -1    0    0  501  503 -0.00000000000E+00 -0.00000000000E+00 -0.16405743186E+02  0.16405743186E+02  0.00000000000E+00 0.  1.
          5    1    1    2  501    0 -0.73694354388E+00 -0.27001355494E+01 -0.10457877763E+02  0.11802161882E+02  0.47000000000E+01 0.  1.
         -5    1    1    2    0  502  0.73694354388E+00  0.27001355494E+01 -0.38577273983E+01  0.66937193287E+01  0.47000000000E+01 0.  1.
<mgrwt>
<rscale>  2 0.54702667E+01</rscale>
<asrwt>0</asrwt>
<pdfrwt beam="1">  1       21 0.32155969E-03 0.54702667E+01</pdfrwt>
<pdfrwt beam="2">  1       21 0.25239605E-02 0.54702667E+01</pdfrwt>
<totfact> 0.37541994E+09</totfact>
</mgrwt>
</event>
<event>
 4    1  0.4043737E+006  0.4888530E+01  0.7546771E-02  0.2587317E+00
         21   -1    0    0  503  502  0.00000000000E+00  0.00000000000E+00  0.54241828202E+03  0.54241828202E+03  0.00000000000E+00 0. -1.
         21   -1    0    0  501  503 -0.00000000000E+00 -0.00000000000E+00 -0.44374383392E-01  0.44374383392E-01  0.00000000000E+00 0. -1.
          5    1    1    2  501    0 -0.66187475960E+00 -0.11703192519E+01  0.24827528410E+03  0.24832340691E+03  0.47000000000E+01 0. -1.
         -5    1    1    2    0  502  0.66187475960E+00  0.11703192519E+01  0.29409862354E+03  0.29413924950E+03  0.47000000000E+01 0. -1.
<mgrwt>
<rscale>  2 0.48885300E+01</rscale>
<asrwt>0</asrwt>
<pdfrwt beam="1">  1       21 0.83443657E-01 0.48885300E+01</pdfrwt>
<pdfrwt beam="2">  1       21 0.68272626E-05 0.48885300E+01</pdfrwt>
<totfact> 0.21568486E+09</totfact>
</mgrwt>
</event>
<event>
 4    1  0.4043737E+006  0.8649503E+01  0.7546771E-02  0.2161119E+00
         21   -1    0    0  501  502  0.00000000000E+00  0.00000000000E+00  0.27160242244E+01  0.27160242244E+01  0.00000000000E+00 0.  1.
         21   -1    0    0  502  503 -0.00000000000E+00 -0.00000000000E+00 -0.12224135127E+03  0.12224135127E+03  0.00000000000E+00 0. -1.
          5    1    1    2  501    0 -0.16063880518E+01  0.70812017071E+01 -0.47720460856E+01  0.98785790492E+01  0.47000000000E+01 0.  1.
         -5    1    1    2    0  503  0.16063880518E+01 -0.70812017071E+01 -0.11475328096E+03  0.11507879645E+03  0.47000000000E+01 0. -1.
<mgrwt>
<rscale>  2 0.86495029E+01</rscale>
<asrwt>0</asrwt>
<pdfrwt beam="1">  1       21 0.41784973E-03 0.86495029E+01</pdfrwt>
<pdfrwt beam="2">  1       21 0.18806368E-01 0.86495029E+01</pdfrwt>
<totfact> 0.16948713E+08</totfact>
</mgrwt>
</event>
<event>
 4    1  0.4043737E+006  0.6195432E+01  0.7546771E-02  0.2390661E+00
         21   -1    0    0  501  502  0.00000000000E+00  0.00000000000E+00  0.64811578123E+01  0.64811578123E+01  0.00000000000E+00 0. -1.
         21   -1    0    0  502  503 -0.00000000000E+00 -0.00000000000E+00 -0.60348722641E+01  0.60348722641E+01  0.00000000000E+00 0.  1.
          5    1    1    2  501    0  0.18313149666E+01  0.35971746302E+01  0.10778406649E+01  0.62884911009E+01  0.47000000000E+01 0. -1.
         -5    1    1    2    0  503 -0.18313149666E+01 -0.35971746302E+01 -0.63155511671E+00  0.62275389756E+01  0.47000000000E+01 0. -1.
<mgrwt>
<rscale>  2 0.61954322E+01</rscale>
<asrwt>0</asrwt>
<pdfrwt beam="1">  1       21 0.99710120E-03 0.61954322E+01</pdfrwt>
<pdfrwt beam="2">  1       21 0.92844189E-03 0.61954322E+01</pdfrwt>
<totfact> 0.36211540E+09</totfact>
</mgrwt>
</event>
<event>
 4    1  0.4043737E+006  0.6669984E+01  0.7546771E-02  0.2335608E+00
         21   -1    0    0  501  502  0.00000000000E+00  0.00000000000E+00  0.71595048031E+03  0.71595048031E+03  0.00000000000E+00 0.  1.
         21   -1    0    0  502  503 -0.00000000000E+00 -0.00000000000E+00 -0.23441373414E+00  0.23441373414E+00  0.00000000000E+00 0.  1.
          5    1    1    2  501    0 -0.21783748629E+01  0.42015908593E+01  0.66484081222E+03  0.66487426952E+03  0.47000000000E+01 0.  1.
         -5    1    1    2    0  503  0.21783748629E+01 -0.42015908593E+01  0.50875254357E+02  0.51310624520E+02  0.47000000000E+01 0.  1.
<mgrwt>
<rscale>  2 0.66699837E+01</rscale>
<asrwt>0</asrwt>
<pdfrwt beam="1">  1       21 0.11014448E+00 0.66699837E+01</pdfrwt>
<pdfrwt beam="2">  1       21 0.36064225E-04 0.66699837E+01</pdfrwt>
<totfact> 0.16732414E+08</totfact>
</mgrwt>
</event>
<event>
 4    1  0.4043737E+006  0.7234448E+01  0.7546771E-02  0.2277987E+00
         21   -1    0    0  503  502  0.00000000000E+00  0.00000000000E+00  0.15808505361E+02  0.15808505361E+02  0.00000000000E+00 0. -1.
         21   -1    0    0  501  503 -0.00000000000E+00 -0.00000000000E+00 -0.33251739955E+01  0.33251739955E+01  0.00000000000E+00 0.  1.
          5    1    1    2  501    0 -0.54342527876E+01  0.84624743673E+00  0.56105090843E+01  0.91550559949E+01  0.47000000000E+01 0. -1.
         -5    1    1    2    0  502  0.54342527876E+01 -0.84624743673E+00  0.68728222808E+01  0.99786233613E+01  0.47000000000E+01 0.  1.
<mgrwt>
<rscale>  2 0.72344480E+01</rscale>
<asrwt>0</asrwt>
<pdfrwt beam="1">  1       21 0.24320777E-02 0.72344480E+01</pdfrwt>
<pdfrwt beam="2">  1       21 0.51156524E-03 0.72344480E+01</pdfrwt>
<totfact> 0.26456282E+09</totfact>
</mgrwt>
</event>
<event>
 4    1  0.4043737E+006  0.7545551E+01  0.7546771E-02  0.2249273E+00
         21   -1    0    0  503  502  0.00000000000E+00  0.00000000000E+00  0.34139002697E+00  0.34139002697E+00  0.00000000000E+00 0. -1.
         21   -1    0    0  501  503 -0.00000000000E+00 -0.00000000000E+00 -0.21643742921E+04  0.21643742921E+04  0.00000000000E+00 0.  1.
          5    1    1    2  501    0 -0.54845665811E+01  0.21828572793E+01 -0.21218381291E+04  0.21218515455E+04  0.47000000000E+01 0.  1.
         -5    1    1    2    0  502  0.54845665811E+01 -0.21828572793E+01 -0.42194772959E+02  0.42864136542E+02  0.47000000000E+01 0. -1.
<mgrwt>
<rscale>  2 0.75455508E+01</rscale>
<asrwt>0</asrwt>
<pdfrwt beam="1">  1       21 0.52520795E-04 0.75455508E+01</pdfrwt>
<pdfrwt beam="2">  1       21 0.33298540E+00 0.75455508E+01</pdfrwt>
<totfact> 0.78489109E+06</totfact>
</mgrwt>
</event>
<event>
 4    1  0.4043737E+006  0.5429591E+01  0.7546771E-02  0.2496157E+00
         21   -1    0    0  501  502  0.00000000000E+00  0.00000000000E+00  0.99886048820E+03  0.99886048820E+03  0.00000000000E+00 0.  1.
         21   -1    0    0  502  503 -0.00000000000E+00 -0.00000000000E+00 -0.29521306382E-01  0.29521306382E-01  0.00000000000E+00 0.  1.
          5    1    1    2  501    0 -0.10170604188E+01  0.25211205139E+01  0.50722301070E+03  0.50725207052E+03  0.47000000000E+01 0.  1.
         -5    1    1    2    0  503  0.10170604188E+01 -0.25211205139E+01  0.49160795619E+03  0.49163793899E+03  0.47000000000E+01 0.  1.
<mgrwt>
<rscale>  2 0.54295912E+01</rscale>
<asrwt>0</asrwt>
<pdfrwt beam="1">  1       21 0.15364378E+00 0.54295912E+01</pdfrwt>
<pdfrwt beam="2">  1       21 0.45425394E-05 0.54295912E+01</pdfrwt>
<totfact> 0.11633267E+09</totfact>
</mgrwt>
</event>
<event>
 4    1  0.4043737E+006  0.5951347E+01  0.7546771E-02  0.2421799E+00
         21   -1    0    0  503  502  0.00000000000E+00  0.00000000000E+00  0.93047994089E+02  0.93047994089E+02  0.00000000000E+00 0. -1.
         21   -1    0    0  501  503 -0.00000000000E+00 -0.00000000000E+00 -0.45407987287E+00  0.45407987287E+00  0.00000000000E+00 0. -1.
          5    1    1    2  501    0 -0.26787735318E+01 -0.24804652939E+01  0.27496546522E+02  0.28133229575E+02  0.47000000000E+01 0.  1.
         -5    1    1    2    0  502  0.26787735318E+01  0.24804652939E+01  0.65097367694E+02  0.65368844386E+02  0.47000000000E+01 0.  1.
<mgrwt>
<rscale>  2 0.59513474E+01</rscale>
<asrwt>0</asrwt>
<pdfrwt beam="1">  1       21 0.14315061E-01 0.59513474E+01</pdfrwt>
<pdfrwt beam="2">  1       21 0.69858516E-04 0.59513474E+01</pdfrwt>
<totfact> 0.23808653E+09</totfact>
</mgrwt>
</event>
<event>
 4    1  0.4043737E+006  0.1340359E+02  0.7546771E-02  0.1921090E+00
         21   -1    0    0  503  502  0.00000000000E+00  0.00000000000E+00  0.24805644517E+02  0.24805644517E+02  0.00000000000E+00 0. -1.
         21   -1    0    0  501  503 -0.00000000000E+00 -0.00000000000E+00 -0.13756192046E+02  0.13756192046E+02  0.00000000000E+00 0.  1.
          5    1    1    2  501    0 -0.10094394338E+02  0.74611965753E+01 -0.77428125962E+01  0.15479257033E+02  0.47000000000E+01 0.  1.
         -5    1    1    2    0  502  0.10094394338E+02 -0.74611965753E+01  0.18792265068E+02  0.23082579530E+02  0.47000000000E+01 0. -1.
<mgrwt>
<rscale>  2 0.13403591E+02</rscale>
<asrwt>0</asrwt>
<pdfrwt beam="1">  1       21 0.38162530E-02 0.13403591E+02</pdfrwt>
<pdfrwt beam="2">  1       21 0.21163372E-02 0.13403591E+02</pdfrwt>
<totfact> 0.24617612E+08</totfact>
</mgrwt>
</event>
<event>
 4    1  0.4043737E+006  0.4983614E+01  0.7546771E-02  0.2570069E+00
         21   -1    0    0  503  502  0.00000000000E+00  0.00000000000E+00  0.60968861134E+01  0.60968861134E+01  0.00000000000E+00 0.  1.
         21   -1    0    0  501  503 -0.00000000000E+00 -0.00000000000E+00 -0.59144980730E+01  0.59144980730E+01  0.00000000000E+00 0. -1.
          5    1    1    2  501    0 -0.87775771817E+00  0.14056860632E+01 -0.32593578292E+01  0.59548153102E+01  0.47000000000E+01 0. -1.
         -5    1    1    2    0  502  0.87775771817E+00 -0.14056860632E+01  0.34417458696E+01  0.60565688761E+01  0.47000000000E+01 0.  1.
<mgrwt>
<rscale>  2 0.49836143E+01</rscale>
<asrwt>0</asrwt>
<pdfrwt beam="1">  1       21 0.93798248E-03 0.49836143E+01</pdfrwt>
<pdfrwt beam="2">  1       21 0.90992277E-03 0.49836143E+01</pdfrwt>
<totfact> 0.32962546E+09</totfact>
</mgrwt>
</event>
<event>
 4    1  0.4043737E+006  0.5491062E+01  0.7546771E-02  0.2486778E+00
         21   -1    0    0  501  502  0.00000000000E+00  0.00000000000E+00  0.85974360006E+01  0.85974360006E+01  0.00000000000E+00 0. -1.
         21   -1    0    0  502  503 -0.00000000000E+00 -0.00000000000E+00 -0.51334403251E+01  0.51334403251E+01  0.00000000000E+00 0. -1.
          5    1    1    2  501    0 -0.27474013635E+01 -0.71662596804E+00  0.55963294438E+01  0.78403233526E+01  0.47000000000E+01 0. -1.
         -5    1    1    2    0  503  0.27474013635E+01  0.71662596804E+00 -0.21323337682E+01  0.58905529731E+01  0.47000000000E+01 0. -1.
<mgrwt>
<rscale>  2 0.54910625E+01</rscale>
<asrwt>0</asrwt>
<pdfrwt beam="1">  1       21 0.13226825E-02 0.54910625E+01</pdfrwt>
<pdfrwt beam="2">  1       21 0.78976005E-03 0.54910625E+01</pdfrwt>
<totfact> 0.27324139E+09</totfact>
</mgrwt>
</event>
<event>
 4    1  0.4043737E+006  0.4788332E+01  0.7546771E-02  0.2606131E+00
         21   -1    0    0  503  502  0.00000000000E+00  0.00000000000E+00  0.43944176861E+01  0.43944176861E+01  0.00000000000E+00 0.  1.
         21   -1    0    0  501  503 -0.00000000000E+00 -0.00000000000E+00 -0.15185720056E+02  0.15185720056E+02  0.00000000000E+00 0.  1.
          5    1    1    2  501    0 -0.90641398833E+00  0.12859336405E+00 -0.13327521953E+02  0.14161601745E+02  0.47000000000E+01 0.  1.
         -5    1    1    2    0  502  0.90641398833E+00 -0.12859336405E+00  0.25362195836E+01  0.54185359967E+01  0.47000000000E+01 0.  1.
<mgrwt>
<rscale>  2 0.47883319E+01</rscale>
<asrwt>0</asrwt>
<pdfrwt beam="1">  1       21 0.67606427E-03 0.47883319E+01</pdfrwt>
<pdfrwt beam="2">  1       21 0.23362646E-02 0.47883319E+01</pdfrwt>
<totfact> 0.13244837E+09</totfact>
</mgrwt>
</event>
<event>
 4    1  0.4043737E+006  0.4808920E+01  0.7546771E-02  0.2602210E+00
         21   -1    0    0  503  502  0.00000000000E+00  0.00000000000E+00  0.88012115883E+02  0.88012115883E+02  0.00000000000E+00 0. -1.
         21   -1    0    0  501  503 -0.00000000000E+00 -0.00000000000E+00 -0.30337743781E+00  0.30337743781E+00  0.00000000000E+00 0. -1.
          5    1    1    2  501    0 -0.10046584285E+01  0.16238520094E+00  0.27696162756E+02  0.28110552092E+02  0.47000000000E+01 0.  1.
         -5    1    1    2    0  502  0.10046584285E+01 -0.16238520094E+00  0.60012575689E+02  0.60204941229E+02  0.47000000000E+01 0.  1.
<mgrwt>
<rscale>  2 0.48089196E+01</rscale>
<asrwt>0</asrwt>
<pdfrwt beam="1">  1       21 0.13540305E-01 0.48089196E+01</pdfrwt>
<pdfrwt beam="2">  1       21 0.46673522E-04 0.48089196E+01</pdfrwt>
<totfact> 0.36427123E+09</totfact>
</mgrwt>
</event>
<event>
 4    1  0.4043737E+006  0.5903914E+01  0.7546771E-02  0.2428100E+00
         21   -1    0    0  503  502  0.00000000000E+00  0.00000000000E+00  0.48094297991E+02  0.48094297991E+02  0.00000000000E+00 0. -1.
         21   -1    0    0  501  503 -0.00000000000E+00 -0.00000000000E+00 -0.11843057544E+01  0.11843057544E+01  0.00000000000E+00 0. -1.
          5    1    1    2  501    0  0.38074686266E+00  0.35526376994E+01  0.81064601878E+01  0.10028504354E+02  0.47000000000E+01 0. -1.
         -5    1    1    2    0  502 -0.38074686266E+00 -0.35526376994E+01  0.38803532049E+02  0.39250099392E+02  0.47000000000E+01 0. -1.
<mgrwt>
<rscale>  2 0.59039142E+01</rscale>
<asrwt>0</asrwt>
<pdfrwt beam="1">  1       21 0.73991212E-02 0.59039142E+01</pdfrwt>
<pdfrwt beam="2">  1       21 0.18220092E-03 0.59039142E+01</pdfrwt>
<totfact> 0.17945279E+09</totfact>
</mgrwt>
</event>
<event>
 4    1  0.4043737E+006  0.1241985E+02  0.7546771E-02  0.1958815E+00
         21   -1    0    0  501  502  0.00000000000E+00  0.00000000000E+00  0.30104917814E+00  0.30104917814E+00  0.00000000000E+00 0.  1.
         21   -1    0    0  502  503 -0.00000000000E+00 -0.00000000000E+00 -0.13169599062E+04  0.13169599062E+04  0.00000000000E+00 0. -1.
          5    1    1    2  501    0 -0.86581541197E+01  0.75630001519E+01 -0.14352862278E+03  0.14406497895E+03  0.47000000000E+01 0.  1.
         -5    1    1    2    0  503  0.86581541197E+01 -0.75630001519E+01 -0.11731302342E+04  0.11731959764E+04  0.47000000000E+01 0. -1.
<mgrwt>
<rscale>  2 0.12419847E+02</rscale>
<asrwt>0</asrwt>
<pdfrwt beam="1">  1       21 0.46314721E-04 0.12419847E+02</pdfrwt>
<pdfrwt beam="2">  1       21 0.20261157E+00 0.12419847E+02</pdfrwt>
<totfact> 0.39297470E+07</totfact>
</mgrwt>
</event>
<event>
 4    1  0.4043737E+006  0.5607419E+01  0.7546771E-02  0.2469503E+00
         21   -1    0    0  501  502  0.00000000000E+00  0.00000000000E+00  0.88872821866E+00  0.88872821866E+00  0.00000000000E+00 0. -1.
         21   -1    0    0  502  503 -0.00000000000E+00 -0.00000000000E+00 -0.15733274937E+03  0.15733274937E+03  0.00000000000E+00 0. -1.
          5    1    1    2  501    0  0.20321928692E+01  0.22854634882E+01 -0.85719050604E+01  0.10243080961E+02  0.47000000000E+01 0. -1.
         -5    1    1    2    0  503 -0.20321928692E+01 -0.22854634882E+01 -0.14787211609E+03  0.14797839663E+03  0.47000000000E+01 0. -1.
<mgrwt>
<rscale>  2 0.56074193E+01</rscale>
<asrwt>0</asrwt>
<pdfrwt beam="1">  1       21 0.13672736E-03 0.56074193E+01</pdfrwt>
<pdfrwt beam="2">  1       21 0.24205049E-01 0.56074193E+01</pdfrwt>
<totfact> 0.39798614E+08</totfact>
</mgrwt>
</event>
<event>
 4    1  0.4043737E+006  0.4872536E+01  0.7546771E-02  0.2590275E+00
         21   -1    0    0  503  502  0.00000000000E+00  0.00000000000E+00  0.25501968568E+01  0.25501968568E+01  0.00000000000E+00 0.  1.
         21   -1    0    0  501  503 -0.00000000000E+00 -0.00000000000E+00 -0.41167139984E+02  0.41167139984E+02  0.00000000000E+00 0.  1.
          5    1    1    2  501    0 -0.11436623688E+01  0.58621305464E+00 -0.38537337853E+02  0.38844150372E+02  0.47000000000E+01 0.  1.
         -5    1    1    2    0  502  0.11436623688E+01 -0.58621305464E+00 -0.79605274625E-01  0.48731864687E+01  0.47000000000E+01 0.  1.
<mgrwt>
<rscale>  2 0.48725362E+01</rscale>
<asrwt>0</asrwt>
<pdfrwt beam="1">  1       21 0.39233797E-03 0.48725362E+01</pdfrwt>
<pdfrwt beam="2">  1       21 0.63334062E-02 0.48725362E+01</pdfrwt>
<totfact> 0.67263217E+08</totfact>
</mgrwt>
</event>
<event>
 4    1  0.4043737E+006  0.4887152E+01  0.7546771E-02  0.2587571E+00
         21   -1    0    0  503  502  0.00000000000E+00  0.00000000000E+00  0.14042880977E+01  0.14042880977E+01  0.00000000000E+00 0. -1.
         21   -1    0    0  501  503 -0.00000000000E+00 -0.00000000000E+00 -0.67207476310E+02  0.67207476310E+02  0.00000000000E+00 0. -1.
          5    1    1    2  501    0 -0.12016073762E+01 -0.59194407566E+00 -0.62550522625E+02  0.62741151876E+02  0.47000000000E+01 0. -1.
         -5    1    1    2    0  502  0.12016073762E+01  0.59194407566E+00 -0.32526655875E+01  0.58706125319E+01  0.47000000000E+01 0. -1.
<mgrwt>
<rscale>  2 0.48871523E+01</rscale>
<asrwt>0</asrwt>
<pdfrwt beam="1">  1       21 0.21604439E-03 0.48871523E+01</pdfrwt>
<pdfrwt beam="2">  1       21 0.10339609E-01 0.48871523E+01</pdfrwt>
<totfact> 0.72835497E+08</totfact>
</mgrwt>
</event>
<event>
 4    1  0.4043737E+006  0.7565015E+01  0.7546771E-02  0.2247540E+00
         21   -1    0    0  501  502  0.00000000000E+00  0.00000000000E+00  0.50744234326E+03  0.50744234326E+03  0.00000000000E+00 0.  1.
         21   -1    0    0  502  503 -0.00000000000E+00 -0.00000000000E+00 -0.15562671290E+00  0.15562671290E+00  0.00000000000E+00 0. -1.
          5    1    1    2  501    0  0.53252679323E+01 -0.26040291394E+01  0.38681310577E+03  0.38688707427E+03  0.47000000000E+01 0.  1.
         -5    1    1    2    0  503 -0.53252679323E+01  0.26040291394E+01  0.12047361078E+03  0.12071089570E+03  0.47000000000E+01 0. -1.
<mgrwt>
<rscale>  2 0.75650146E+01</rscale>
<asrwt>0</asrwt>
<pdfrwt beam="1">  1       21 0.78066728E-01 0.75650146E+01</pdfrwt>
<pdfrwt beam="2">  1       21 0.23942978E-04 0.75650146E+01</pdfrwt>
<totfact> 0.62514523E+08</totfact>
</mgrwt>
</event>
<event>
 4    1  0.4043737E+006  0.5665541E+01  0.7546771E-02  0.2461099E+00
         21   -1    0    0  501  502  0.00000000000E+00  0.00000000000E+00  0.18403979021E+01  0.18403979021E+01  0.00000000000E+00 0.  1.
         21   -1    0    0  502  503 -0.00000000000E+00 -0.00000000000E+00 -0.18107364091E+02  0.18107364091E+02  0.00000000000E+00 0.  1.
          5    1    1    2  501    0  0.31224674160E+01  0.50848224533E+00 -0.10046841833E+02  0.11534183447E+02  0.47000000000E+01 0. -1.
         -5    1    1    2    0  503 -0.31224674160E+01 -0.50848224533E+00 -0.62201243556E+01  0.84135785465E+01  0.47000000000E+01 0. -1.
<mgrwt>
<rscale>  2 0.56655412E+01</rscale>
<asrwt>0</asrwt>
<pdfrwt beam="1">  1       21 0.28313813E-03 0.56655412E+01</pdfrwt>
<pdfrwt beam="2">  1       21 0.27857484E-02 0.56655412E+01</pdfrwt>
<totfact> 0.40048692E+09</totfact>
</mgrwt>
</event>
<event>
 4    1  0.4043737E+006  0.5151565E+01  0.7546771E-02  0.2540949E+00
         21   -1    0    0  501  502  0.00000000000E+00  0.00000000000E+00  0.29321283278E+02  0.29321283278E+02  0.00000000000E+00 0. -1.
         21   -1    0    0  502  503 -0.00000000000E+00 -0.00000000000E+00 -0.35044780717E+01  0.35044780717E+01  0.00000000000E+00 0. -1.
          5    1    1    2  501    0  0.19425625676E+01 -0.82162536140E+00  0.27043801884E+02  0.27530089682E+02  0.47000000000E+01 0. -1.
         -5    1    1    2    0  503 -0.19425625676E+01  0.82162536140E+00 -0.12269966778E+01  0.52956716676E+01  0.47000000000E+01 0. -1.
<mgrwt>
<rscale>  2 0.51515646E+01</rscale>
<asrwt>0</asrwt>
<pdfrwt beam="1">  1       21 0.45109665E-02 0.51515646E+01</pdfrwt>
<pdfrwt beam="2">  1       21 0.53915049E-03 0.51515646E+01</pdfrwt>
<totfact> 0.75289501E+08</totfact>
</mgrwt>
</event>
<event>
 4    1  0.4043737E+006  0.9122112E+01  0.7546771E-02  0.2128686E+00
         21   -1    0    0  501  502  0.00000000000E+00  0.00000000000E+00  0.15176762294E+01  0.15176762294E+01  0.00000000000E+00 0.  1.
         21   -1    0    0  502  503 -0.00000000000E+00 -0.00000000000E+00 -0.15593262384E+03  0.15593262384E+03  0.00000000000E+00 0. -1.
          5    1    1    2  501    0  0.49372079253E+01 -0.60619229833E+01 -0.13816416797E+02  0.16556156120E+02  0.47000000000E+01 0.  1.
         -5    1    1    2    0  503 -0.49372079253E+01  0.60619229833E+01 -0.14059853082E+03  0.14089414395E+03  0.47000000000E+01 0. -1.
<mgrwt>
<rscale>  2 0.91221123E+01</rscale>
<asrwt>0</asrwt>
<pdfrwt beam="1">  1       21 0.23348864E-03 0.91221123E+01</pdfrwt>
<pdfrwt beam="2">  1       21 0.23989636E-01 0.91221123E+01</pdfrwt>
<totfact> 0.26269377E+08</totfact>
</mgrwt>
</event>
<event>
 4    1  0.4043737E+006  0.7868415E+01  0.7546771E-02  0.2221436E+00
         21   -1    0    0  503  502  0.00000000000E+00  0.00000000000E+00  0.12329680013E+02  0.12329680013E+02  0.00000000000E+00 0. -1.
         21   -1    0    0  501  503 -0.00000000000E+00 -0.00000000000E+00 -0.50820720926E+01  0.50820720926E+01  0.00000000000E+00 0. -1.
          5    1    1    2  501    0  0.50960460156E+01 -0.37218644410E+01  0.26723839949E+01  0.83098493444E+01  0.47000000000E+01 0. -1.
         -5    1    1    2    0  502 -0.50960460156E+01  0.37218644410E+01  0.45752239260E+01  0.91019027617E+01  0.47000000000E+01 0. -1.
<mgrwt>
<rscale>  2 0.78684153E+01</rscale>
<asrwt>0</asrwt>
<pdfrwt beam="1">  1       21 0.18968738E-02 0.78684153E+01</pdfrwt>
<pdfrwt beam="2">  1       21 0.78185725E-03 0.78684153E+01</pdfrwt>
<totfact> 0.22236841E+09</totfact>
</mgrwt>
</event>
<event>
 4    1  0.4043737E+006  0.4881825E+01  0.7546771E-02  0.2588555E+00
         21   -1    0    0  503  502  0.00000000000E+00  0.00000000000E+00  0.15562328197E+03  0.15562328197E+03  0.00000000000E+00 0. -1.
         21   -1    0    0  501  503 -0.00000000000E+00 -0.00000000000E+00 -0.15325170474E+00  0.15325170474E+00  0.00000000000E+00 0.  1.
          5    1    1    2  501    0  0.93834853062E+00 -0.92828653679E+00  0.79833947889E+02  0.79983069768E+02  0.47000000000E+01 0.  1.
         -5    1    1    2    0  502 -0.93834853062E+00  0.92828653679E+00  0.75636082377E+02  0.75793463908E+02  0.47000000000E+01 0. -1.
<mgrwt>
<rscale>  2 0.48818248E+01</rscale>
<asrwt>0</asrwt>
<pdfrwt beam="1">  1       21 0.23941917E-01 0.48818248E+01</pdfrwt>
<pdfrwt beam="2">  1       21 0.23577310E-04 0.48818248E+01</pdfrwt>
<totfact> 0.37208385E+09</totfact>
</mgrwt>
</event>
<event>
 4    1  0.4043737E+006  0.7707027E+01  0.7546771E-02  0.2235115E+00
         21   -1    0    0  501  502  0.00000000000E+00  0.00000000000E+00  0.29574737068E+01  0.29574737068E+01  0.00000000000E+00 0. -1.
         21   -1    0    0  502  503 -0.00000000000E+00 -0.00000000000E+00 -0.39830873970E+02  0.39830873970E+02  0.00000000000E+00 0.  1.
          5    1    1    2  501    0 -0.56462868620E+01 -0.23297432911E+01 -0.33729379220E+01  0.84127860638E+01  0.47000000000E+01 0. -1.
         -5    1    1    2    0  503  0.56462868620E+01  0.23297432911E+01 -0.33500462342E+02  0.34375561613E+02  0.47000000000E+01 0.  1.
<mgrwt>
<rscale>  2 0.77070266E+01</rscale>
<asrwt>0</asrwt>
<pdfrwt beam="1">  1       21 0.45499598E-03 0.77070266E+01</pdfrwt>
<pdfrwt beam="2">  1       21 0.61278264E-02 0.77070266E+01</pdfrwt>
<totfact> 0.82444459E+08</totfact>
</mgrwt>
</event>
<event>
 4    1  0.4043737E+006  0.6077377E+01  0.7546771E-02  0.2405460E+00
         21   -1    0    0  503  502  0.00000000000E+00  0.00000000000E+00  0.18363505231E+03  0.18363505231E+03  0.00000000000E+00 0.  1.
         21   -1    0    0  501  503 -0.00000000000E+00 -0.00000000000E+00 -0.24602311620E+00  0.24602311620E+00  0.00000000000E+00 0.  1.
          5    1    1    2  501    0 -0.13481121196E+00 -0.38504977152E+01  0.52420141894E+02  0.52771259061E+02  0.47000000000E+01 0.  1.
         -5    1    1    2    0  502  0.13481121196E+00  0.38504977152E+01  0.13096888730E+03  0.13110981637E+03  0.47000000000E+01 0.  1.
<mgrwt>
<rscale>  2 0.60773766E+01</rscale>
<asrwt>0</asrwt>
<pdfrwt beam="1">  1       21 0.28251437E-01 0.60773766E+01</pdfrwt>
<pdfrwt beam="2">  1       21 0.37849857E-04 0.60773766E+01</pdfrwt>
<totfact> 0.18292576E+09</totfact>
</mgrwt>
</event>
<event>
 4    1  0.4043737E+006  0.4979721E+01  0.7546771E-02  0.2570764E+00
         21   -1    0    0  503  502  0.00000000000E+00  0.00000000000E+00  0.33703145784E+01  0.33703145784E+01  0.00000000000E+00 0. -1.
         21   -1    0    0  501  503 -0.00000000000E+00 -0.00000000000E+00 -0.19664936344E+02  0.19664936344E+02  0.00000000000E+00 0.  1.
          5    1    1    2  501    0 -0.16429952932E+01  0.90475372287E-01 -0.17258975058E+02  0.17963013093E+02  0.47000000000E+01 0.  1.
         -5    1    1    2    0  502  0.16429952932E+01 -0.90475372287E-01  0.96435329234E+00  0.50722378295E+01  0.47000000000E+01 0. -1.
<mgrwt>
<rscale>  2 0.49797208E+01</rscale>
<asrwt>0</asrwt>
<pdfrwt beam="1">  1       21 0.51850994E-03 0.49797208E+01</pdfrwt>
<pdfrwt beam="2">  1       21 0.30253748E-02 0.49797208E+01</pdfrwt>
<totfact> 0.13715016E+09</totfact>
</mgrwt>
</event>
<event>
 4    1  0.4043737E+006  0.6656560E+01  0.7546771E-02  0.2337076E+00
         21   -1    0    0  501  502  0.00000000000E+00  0.00000000000E+00  0.56311846413E+00  0.56311846413E+00  0.00000000000E+00 0. -1.
         21   -1    0    0  502  503 -0.00000000000E+00 -0.00000000000E+00 -0.11245053757E+03  0.11245053757E+03  0.00000000000E+00 0.  1.
          5    1    1    2  501    0  0.39053218806E+01 -0.26397453763E+01 -0.24980380375E+02  0.25852063715E+02  0.47000000000E+01 0.  1.
         -5    1    1    2    0  503 -0.39053218806E+01  0.26397453763E+01 -0.86907038730E+02  0.87161592318E+02  0.47000000000E+01 0.  1.
<mgrwt>
<rscale>  2 0.66565603E+01</rscale>
<asrwt>0</asrwt>
<pdfrwt beam="1">  1       21 0.86633542E-04 0.66565603E+01</pdfrwt>
<pdfrwt beam="2">  1       21 0.17300096E-01 0.66565603E+01</pdfrwt>
<totfact> 0.14417912E+09</totfact>
</mgrwt>
</event>
<event>
 4    1  0.4043737E+006  0.6372080E+01  0.7546771E-02  0.2369374E+00
         21   -1    0    0  503  502  0.00000000000E+00  0.00000000000E+00  0.23953159856E+03  0.23953159856E+03  0.00000000000E+00 0. -1.
         21   -1    0    0  501  503 -0.00000000000E+00 -0.00000000000E+00 -0.19730477704E+00  0.19730477704E+00  0.00000000000E+00 0. -1.
          5    1    1    2  501    0 -0.17469199521E+01 -0.39321332049E+01  0.74679822241E+02  0.74951179115E+02  0.47000000000E+01 0. -1.
         -5    1    1    2    0  502  0.17469199521E+01  0.39321332049E+01  0.16465447154E+03  0.16477772422E+03  0.47000000000E+01 0. -1.
<mgrwt>
<rscale>  2 0.63720798E+01</rscale>
<asrwt>0</asrwt>
<pdfrwt beam="1">  1       21 0.36850783E-01 0.63720798E+01</pdfrwt>
<pdfrwt beam="2">  1       21 0.30354773E-04 0.63720798E+01</pdfrwt>
<totfact> 0.16200992E+09</totfact>
</mgrwt>
</event>
<event>
 4    1  0.4043737E+006  0.9323135E+01  0.7546771E-02  0.2115687E+00
         21   -1    0    0  503  502  0.00000000000E+00  0.00000000000E+00  0.48681669986E+02  0.48681669986E+02  0.00000000000E+00 0. -1.
         21   -1    0    0  501  503 -0.00000000000E+00 -0.00000000000E+00 -0.73176312885E+01  0.73176312885E+01  0.00000000000E+00 0.  1.
          5    1    1    2  501    0  0.18078409760E+00 -0.80497308793E+01 -0.36632065742E+01  0.10016982206E+02  0.47000000000E+01 0.  1.
         -5    1    1    2    0  502 -0.18078409760E+00  0.80497308793E+01  0.45027245272E+02  0.45982319068E+02  0.47000000000E+01 0. -1.
<mgrwt>
<rscale>  2 0.93231352E+01</rscale>
<asrwt>0</asrwt>
<pdfrwt beam="1">  1       21 0.74894875E-02 0.93231352E+01</pdfrwt>
<pdfrwt beam="2">  1       21 0.11257895E-02 0.93231352E+01</pdfrwt>
<totfact> 0.18587371E+08</totfact>
</mgrwt>
</event>
<event>
 4    1  0.4043737E+006  0.5629713E+01  0.7546771E-02  0.2466262E+00
         21   -1    0    0  501  502  0.00000000000E+00  0.00000000000E+00  0.83810760445E+00  0.83810760445E+00  0.00000000000E+00 0.  1.
         21   -1    0    0  502  503 -0.00000000000E+00 -0.00000000000E+00 -0.39597014783E+02  0.39597014783E+02  0.00000000000E+00 0.  1.
          5    1    1    2  501    0 -0.27773566582E+01  0.13747562242E+01 -0.15091380148E+02  0.16107247420E+02  0.47000000000E+01 0.  1.
         -5    1    1    2    0  503  0.27773566582E+01 -0.13747562242E+01 -0.23667527031E+02  0.24327874967E+02  0.47000000000E+01 0.  1.
<mgrwt>
<rscale>  2 0.56297127E+01</rscale>
<asrwt>0</asrwt>
<pdfrwt beam="1">  1       21 0.12893968E-03 0.56297127E+01</pdfrwt>
<pdfrwt beam="2">  1       21 0.60918463E-02 0.56297127E+01</pdfrwt>
<totfact> 0.36732092E+09</totfact>
</mgrwt>
</event>
<event>
 4    1  0.4043737E+006  0.5149141E+02  0.7546771E-02  0.1437459E+00
         21   -1    0    0  501  502  0.00000000000E+00  0.00000000000E+00  0.49468942198E+03  0.49468942198E+03  0.00000000000E+00 0. -1.
         21   -1    0    0  502  503 -0.00000000000E+00 -0.00000000000E+00 -0.54952536748E+01  0.54952536748E+01  0.00000000000E+00 0.  1.
          5    1    1    2  501    0 -0.46581801779E+02 -0.21433865345E+02  0.20531146817E+03  0.21166994071E+03  0.47000000000E+01 0.  1.
         -5    1    1    2    0  503  0.46581801779E+02  0.21433865345E+02  0.28388270013E+03  0.28851473494E+03  0.47000000000E+01 0. -1.
<mgrwt>
<rscale>  2 0.51491406E+02</rscale>
<asrwt>0</asrwt>
<pdfrwt beam="1">  1       21 0.76106030E-01 0.51491406E+02</pdfrwt>
<pdfrwt beam="2">  1       21 0.84542403E-03 0.51491406E+02</pdfrwt>
<totfact> 0.69861641E+06</totfact>
</mgrwt>
</event>
<event>
 4    1  0.4043737E+006  0.5171026E+01  0.7546771E-02  0.2537680E+00
         21   -1    0    0  503  502  0.00000000000E+00  0.00000000000E+00  0.16156608889E+03  0.16156608889E+03  0.00000000000E+00 0. -1.
         21   -1    0    0  501  503 -0.00000000000E+00 -0.00000000000E+00 -0.43482310043E+00  0.43482310043E+00  0.00000000000E+00 0.  1.
          5    1    1    2  501    0 -0.63228806913E+00  0.20614861710E+01  0.16817666241E+02  0.17594698384E+02  0.47000000000E+01 0.  1.
         -5    1    1    2    0  502  0.63228806913E+00 -0.20614861710E+01  0.14431359955E+03  0.14440621360E+03  0.47000000000E+01 0. -1.
<mgrwt>
<rscale>  2 0.51710263E+01</rscale>
<asrwt>0</asrwt>
<pdfrwt beam="1">  1       21 0.24856273E-01 0.51710263E+01</pdfrwt>
<pdfrwt beam="2">  1       21 0.66895991E-04 0.51710263E+01</pdfrwt>
<totfact> 0.92707471E+08</totfact>
</mgrwt>
</event>
<event>
 4    1  0.4043737E+006  0.5060561E+01  0.7546771E-02  0.2556521E+00
         21   -1    0    0  501  502  0.00000000000E+00  0.00000000000E+00  0.69905997531E+02  0.69905997531E+02  0.00000000000E+00 0.  1.
         21   -1    0    0  502  503 -0.00000000000E+00 -0.00000000000E+00 -0.26043343822E+01  0.26043343822E+01  0.00000000000E+00 0.  1.
          5    1    1    2  501    0  0.12620163360E+01  0.13880159358E+01  0.67259487585E+02  0.67449595578E+02  0.47000000000E+01 0.  1.
         -5    1    1    2    0  503 -0.12620163360E+01 -0.13880159358E+01  0.42175563425E-01  0.50607363346E+01  0.47000000000E+01 0.  1.
<mgrwt>
<rscale>  2 0.50605606E+01</rscale>
<asrwt>0</asrwt>
<pdfrwt beam="1">  1       21 0.10754767E-01 0.50605606E+01</pdfrwt>
<pdfrwt beam="2">  1       21 0.40066688E-03 0.50605606E+01</pdfrwt>
<totfact> 0.30597937E+08</totfact>
</mgrwt>
</event>
<event>
 4    1  0.4043737E+006  0.7133638E+01  0.7546771E-02  0.2287728E+00
         21   -1    0    0  503  502  0.00000000000E+00  0.00000000000E+00  0.10435789741E+04  0.10435789741E+04  0.00000000000E+00 0.  1.
         21   -1    0    0  501  503 -0.00000000000E+00 -0.00000000000E+00 -0.71047061567E-01  0.71047061567E-01  0.00000000000E+00 0.  1.
          5    1    1    2  501    0 -0.53657313376E+01  0.87888946394E-01  0.22951242324E+03  0.22962325931E+03  0.47000000000E+01 0.  1.
         -5    1    1    2    0  502  0.53657313376E+01 -0.87888946394E-01  0.81399550384E+03  0.81402676189E+03  0.47000000000E+01 0.  1.
<mgrwt>
<rscale>  2 0.71336384E+01</rscale>
<asrwt>0</asrwt>
<pdfrwt beam="1">  1       21 0.16053834E+00 0.71336384E+01</pdfrwt>
<pdfrwt beam="2">  1       21 0.10931153E-04 0.71336384E+01</pdfrwt>
<totfact> 0.38438448E+08</totfact>
</mgrwt>
</event>
<event>
 4    1  0.4043737E+006  0.4974324E+01  0.7546771E-02  0.2571729E+00
         21   -1    0    0  501  502  0.00000000000E+00  0.00000000000E+00  0.67198147657E+03  0.67198147657E+03  0.00000000000E+00 0. -1.
         21   -1    0    0  502  503 -0.00000000000E+00 -0.00000000000E+00 -0.40300882941E+00  0.40300882941E+00  0.00000000000E+00 0.  1.
          5    1    1    2  501    0  0.62101886282E+00  0.15060643957E+01  0.65625496699E+03  0.65627381907E+03  0.47000000000E+01 0. -1.
         -5    1    1    2    0  503 -0.62101886282E+00 -0.15060643957E+01  0.15323500742E+02  0.16110666324E+02  0.47000000000E+01 0.  1.
<mgrwt>
<rscale>  2 0.49743235E+01</rscale>
<asrwt>0</asrwt>
<pdfrwt beam="1">  1       21 0.10338087E+00 0.49743235E+01</pdfrwt>
<pdfrwt beam="2">  1       21 0.62001896E-04 0.49743235E+01</pdfrwt>
<totfact> 0.77165724E+07</totfact>
</mgrwt>
</event>
<event>
 4    1  0.4043737E+006  0.4742498E+01  0.7546771E-02  0.2614967E+00
         21   -1    0    0  503  502  0.00000000000E+00  0.00000000000E+00  0.55622788425E+02  0.55622788425E+02  0.00000000000E+00 0.  1.
         21   -1    0    0  501  503 -0.00000000000E+00 -0.00000000000E+00 -0.16631553748E+01  0.16631553748E+01  0.00000000000E+00 0.  1.
          5    1    1    2  501    0  0.35974211559E+00  0.52141120052E+00  0.20608337676E+01  0.51709109302E+01  0.47000000000E+01 0.  1.
         -5    1    1    2    0  502 -0.35974211559E+00 -0.52141120052E+00  0.51898799283E+02  0.52115032870E+02  0.47000000000E+01 0.  1.
<mgrwt>
<rscale>  2 0.47424977E+01</rscale>
<asrwt>0</asrwt>
<pdfrwt beam="1">  1       21 0.85573506E-02 0.47424977E+01</pdfrwt>
<pdfrwt beam="2">  1       21 0.25587010E-03 0.47424977E+01</pdfrwt>
<totfact> 0.74946900E+08</totfact>
</mgrwt>
</event>
<event>
 4    1  0.4043737E+006  0.4770450E+01  0.7546771E-02  0.2609561E+00
         21   -1    0    0  501  502  0.00000000000E+00  0.00000000000E+00  0.16338363255E+04  0.16338363255E+04  0.00000000000E+00 0. -1.
         21   -1    0    0  502  503 -0.00000000000E+00 -0.00000000000E+00 -0.19524669393E-01  0.19524669393E-01  0.00000000000E+00 0. -1.
          5    1    1    2  501    0  0.52386383338E+00 -0.62670787518E+00  0.12542593124E+04  0.12542683843E+04  0.47000000000E+01 0. -1.
         -5    1    1    2    0  503 -0.52386383338E+00  0.62670787518E+00  0.37955748843E+03  0.37958746584E+03  0.47000000000E+01 0. -1.
<mgrwt>
<rscale>  2 0.47704503E+01</rscale>
<asrwt>0</asrwt>
<pdfrwt beam="1">  1       21 0.25124998E+00 0.47704503E+01</pdfrwt>
<pdfrwt beam="2">  1       21 0.30051039E-05 0.47704503E+01</pdfrwt>
<totfact> 0.64376710E+08</totfact>
</mgrwt>
</event>
<event>
 4    1  0.4043737E+006  0.7563460E+01  0.7546771E-02  0.2247678E+00
         21   -1    0    0  503  502  0.00000000000E+00  0.00000000000E+00  0.50960199095E+00  0.50960199095E+00  0.00000000000E+00 0. -1.
         21   -1    0    0  501  503 -0.00000000000E+00 -0.00000000000E+00 -0.33139985277E+03  0.33139985277E+03  0.00000000000E+00 0.  1.
          5    1    1    2  501    0 -0.36755877978E+01 -0.46482236102E+01 -0.30039672199E+03  0.30049192421E+03  0.47000000000E+01 0.  1.
         -5    1    1    2    0  502  0.36755877978E+01  0.46482236102E+01 -0.30493528782E+02  0.31417530551E+02  0.47000000000E+01 0. -1.
<mgrwt>
<rscale>  2 0.75634601E+01</rscale>
<asrwt>0</asrwt>
<pdfrwt beam="1">  1       21 0.78400386E-04 0.75634601E+01</pdfrwt>
<pdfrwt beam="2">  1       21 0.50984541E-01 0.75634601E+01</pdfrwt>
<totfact> 0.28285852E+08</totfact>
</mgrwt>
</event>
<event>
 4    1  0.4043737E+006  0.5884382E+01  0.7546771E-02  0.2430719E+00
         21   -1    0    0  503  502  0.00000000000E+00  0.00000000000E+00  0.70805598659E+02  0.70805598659E+02  0.00000000000E+00 0.  1.
         21   -1    0    0  501  503 -0.00000000000E+00 -0.00000000000E+00 -0.61290479108E+00  0.61290479108E+00  0.00000000000E+00 0. -1.
          5    1    1    2  501    0  0.25572067870E+01  0.24488039032E+01  0.19042520939E+02  0.19930969640E+02  0.47000000000E+01 0. -1.
         -5    1    1    2    0  502 -0.25572067870E+01 -0.24488039032E+01  0.51150172929E+02  0.51487533809E+02  0.47000000000E+01 0.  1.
<mgrwt>
<rscale>  2 0.58843816E+01</rscale>
<asrwt>0</asrwt>
<pdfrwt beam="1">  1       21 0.10893163E-01 0.58843816E+01</pdfrwt>
<pdfrwt beam="2">  1       21 0.94293101E-04 0.58843816E+01</pdfrwt>
<totfact> 0.24131371E+09</totfact>
</mgrwt>
</event>
<event>
 4    1  0.4043737E+006  0.5383072E+01  0.7546771E-02  0.2503377E+00
         21   -1    0    0  503  502  0.00000000000E+00  0.00000000000E+00  0.38581680833E+03  0.38581680833E+03  0.00000000000E+00 0. -1.
         21   -1    0    0  501  503 -0.00000000000E+00 -0.00000000000E+00 -0.75393546959E-01  0.75393546959E-01  0.00000000000E+00 0. -1.
          5    1    1    2  501    0  0.66501133252E+00 -0.25387435481E+01  0.20477029852E+03  0.20484104231E+03  0.47000000000E+01 0. -1.
         -5    1    1    2    0  502 -0.66501133252E+00  0.25387435481E+01  0.18097111627E+03  0.18105115957E+03  0.47000000000E+01 0. -1.
<mgrwt>
<rscale>  2 0.53830715E+01</rscale>
<asrwt>0</asrwt>
<pdfrwt beam="1">  1       21 0.59354851E-01 0.53830715E+01</pdfrwt>
<pdfrwt beam="2">  1       21 0.11599316E-04 0.53830715E+01</pdfrwt>
<totfact> 0.21898452E+09</totfact>
</mgrwt>
</event>
<event>
 4    1  0.4043737E+006  0.5022641E+01  0.7546771E-02  0.2563153E+00
         21   -1    0    0  501  502  0.00000000000E+00  0.00000000000E+00  0.11460094093E+01  0.11460094093E+01  0.00000000000E+00 0.  1.
         21   -1    0    0  502  503 -0.00000000000E+00 -0.00000000000E+00 -0.84624671176E+02  0.84624671176E+02  0.00000000000E+00 0. -1.
          5    1    1    2  501    0  0.16654080952E+01  0.60277780512E+00 -0.48510381359E+01  0.69828000259E+01  0.47000000000E+01 0.  1.
         -5    1    1    2    0  503 -0.16654080952E+01 -0.60277780512E+00 -0.78627623631E+02  0.78787880559E+02  0.47000000000E+01 0. -1.
<mgrwt>
<rscale>  2 0.50226413E+01</rscale>
<asrwt>0</asrwt>
<pdfrwt beam="1">  1       21 0.17630918E-03 0.50226413E+01</pdfrwt>
<pdfrwt beam="2">  1       21 0.13019177E-01 0.50226413E+01</pdfrwt>
<totfact> 0.69018523E+08</totfact>
</mgrwt>
</event>
<event>
 4    1  0.4043737E+006  0.1584787E+02  0.7546771E-02  0.1843246E+00
         21   -1    0    0  501  502  0.00000000000E+00  0.00000000000E+00  0.24193384109E+02  0.24193384109E+02  0.00000000000E+00 0. -1.
         21   -1    0    0  502  503 -0.00000000000E+00 -0.00000000000E+00 -0.31070510622E+02  0.31070510622E+02  0.00000000000E+00 0.  1.
          5    1    1    2  501    0 -0.14896958715E+02  0.26731489924E+01  0.19109583455E+02  0.24826020307E+02  0.47000000000E+01 0. -1.
         -5    1    1    2    0  503  0.14896958715E+02 -0.26731489924E+01 -0.25986709967E+02  0.30437874424E+02  0.47000000000E+01 0.  1.
<mgrwt>
<rscale>  2 0.15847874E+02</rscale>
<asrwt>0</asrwt>
<pdfrwt beam="1">  1       21 0.37220591E-02 0.15847874E+02</pdfrwt>
<pdfrwt beam="2">  1       21 0.47800785E-02 0.15847874E+02</pdfrwt>
<totfact> 0.78313197E+07</totfact>
</mgrwt>
</event>
<event>
 4    1  0.4043737E+006  0.4713467E+01  0.7546771E-02  0.2620641E+00
         21   -1    0    0  501  502  0.00000000000E+00  0.00000000000E+00  0.10678508516E+03  0.10678508516E+03  0.00000000000E+00 0. -1.
         21   -1    0    0  502  503 -0.00000000000E+00 -0.00000000000E+00 -0.17121435004E+01  0.17121435004E+01  0.00000000000E+00 0. -1.
          5    1    1    2  501    0 -0.24431669864E-01 -0.35521606127E+00  0.10338235443E+03  0.10348974820E+03  0.47000000000E+01 0. -1.
         -5    1    1    2    0  503  0.24431669864E-01  0.35521606127E+00  0.16905872284E+01  0.50074804576E+01  0.47000000000E+01 0. -1.
<mgrwt>
<rscale>  2 0.47134674E+01</rscale>
<asrwt>0</asrwt>
<pdfrwt beam="1">  1       21 0.16428469E-01 0.47134674E+01</pdfrwt>
<pdfrwt beam="2">  1       21 0.26340678E-03 0.47134674E+01</pdfrwt>
<totfact> 0.26551486E+08</totfact>
</mgrwt>
</event>
<event>
 4    1  0.4043737E+006  0.6938168E+01  0.7546771E-02  0.2307273E+00
         21   -1    0    0  501  502  0.00000000000E+00  0.00000000000E+00  0.97675177965E+02  0.97675177965E+02  0.00000000000E+00 0.  1.
         21   -1    0    0  502  503 -0.00000000000E+00 -0.00000000000E+00 -0.52868913772E+01  0.52868913772E+01  0.00000000000E+00 0. -1.
          5    1    1    2  501    0 -0.50897721578E+01  0.37734788276E+00  0.95216980674E+02  0.95469427466E+02  0.47000000000E+01 0.  1.
         -5    1    1    2    0  503  0.50897721578E+01 -0.37734788276E+00 -0.28286940866E+01  0.74926418758E+01  0.47000000000E+01 0. -1.
<mgrwt>
<rscale>  2 0.69381678E+01</rscale>
<asrwt>0</asrwt>
<pdfrwt beam="1">  1       21 0.15026949E-01 0.69381678E+01</pdfrwt>
<pdfrwt beam="2">  1       21 0.81336798E-03 0.69381678E+01</pdfrwt>
<totfact> 0.84347058E+07</totfact>
</mgrwt>
</event>
<event>
 4    1  0.4043737E+006  0.1128029E+02  0.7546771E-02  0.2008698E+00
         21   -1    0    0  503  502  0.00000000000E+00  0.00000000000E+00  0.19524594097E+00  0.19524594097E+00  0.00000000000E+00 0.  1.
         21   -1    0    0  501  503 -0.00000000000E+00 -0.00000000000E+00 -0.92300457877E+03  0.92300457877E+03  0.00000000000E+00 0.  1.
          5    1    1    2  501    0 -0.98792460988E+01  0.27487147115E+01 -0.71165773553E+03  0.71174713029E+03  0.47000000000E+01 0.  1.
         -5    1    1    2    0  502  0.98792460988E+01 -0.27487147115E+01 -0.21115159730E+03  0.21145269442E+03  0.47000000000E+01 0.  1.
<mgrwt>
<rscale>  2 0.11280290E+02</rscale>
<asrwt>0</asrwt>
<pdfrwt beam="1">  1       21 0.30037194E-04 0.11280290E+02</pdfrwt>
<pdfrwt beam="2">  1       21 0.14200374E+00 0.11280290E+02</pdfrwt>
<totfact> 0.15803556E+08</totfact>
</mgrwt>
</event>
<event>
 4    1  0.4043737E+006  0.1243220E+02  0.7546771E-02  0.1958313E+00
         21   -1    0    0  503  502  0.00000000000E+00  0.00000000000E+00  0.46247172196E+02  0.46247172196E+02  0.00000000000E+00 0. -1.
         21   -1    0    0  501  503 -0.00000000000E+00 -0.00000000000E+00 -0.17042574571E+02  0.17042574571E+02  0.00000000000E+00 0.  1.
          5    1    1    2  501    0 -0.89663790604E+01  0.72162013169E+01 -0.13770661401E+02  0.18552375328E+02  0.47000000000E+01 0.  1.
         -5    1    1    2    0  502  0.89663790604E+01 -0.72162013169E+01  0.42975259026E+02  0.44737371439E+02  0.47000000000E+01 0. -1.
<mgrwt>
<rscale>  2 0.12432197E+02</rscale>
<asrwt>0</asrwt>
<pdfrwt beam="1">  1       21 0.71149495E-02 0.12432197E+02</pdfrwt>
<pdfrwt beam="2">  1       21 0.26219346E-02 0.12432197E+02</pdfrwt>
<totfact> 0.65615045E+07</totfact>
</mgrwt>
</event>
<event>
 4    1  0.4043737E+006  0.6122581E+01  0.7546771E-02  0.2399737E+00
         21   -1    0    0  501  502  0.00000000000E+00  0.00000000000E+00  0.13047126149E+02  0.13047126149E+02  0.00000000000E+00 0.  1.
         21   -1    0    0  502  503 -0.00000000000E+00 -0.00000000000E+00 -0.13972726525E+03  0.13972726525E+03  0.00000000000E+00 0.  1.
          5    1    1    2  501    0 -0.31581409671E+01  0.23285500725E+01  0.12257696209E+02  0.13701719460E+02  0.47000000000E+01 0.  1.
         -5    1    1    2    0  503  0.31581409671E+01 -0.23285500725E+01 -0.13893783531E+03  0.13907267194E+03  0.47000000000E+01 0.  1.
<mgrwt>
<rscale>  2 0.61225811E+01</rscale>
<asrwt>0</asrwt>
<pdfrwt beam="1">  1       21 0.20072503E-02 0.61225811E+01</pdfrwt>
<pdfrwt beam="2">  1       21 0.21496501E-01 0.61225811E+01</pdfrwt>
<totfact> 0.12210296E+07</totfact>
</mgrwt>
</event>
<event>
 4    1  0.4043737E+006  0.6675960E+01  0.7546771E-02  0.2334957E+00
         21   -1    0    0  503  502  0.00000000000E+00  0.00000000000E+00  0.36851011087E+01  0.36851011087E+01  0.00000000000E+00 0.  1.
         21   -1    0    0  501  503 -0.00000000000E+00 -0.00000000000E+00 -0.31541928191E+02  0.31541928191E+02  0.00000000000E+00 0. -1.
          5    1    1    2  501    0  0.47381418989E+01  0.16868200654E+00 -0.27758855661E+02  0.28550350434E+02  0.47000000000E+01 0. -1.
         -5    1    1    2    0  502 -0.47381418989E+01 -0.16868200654E+00 -0.97971420618E-01  0.66766788655E+01  0.47000000000E+01 0.  1.
<mgrwt>
<rscale>  2 0.66759600E+01</rscale>
<asrwt>0</asrwt>
<pdfrwt beam="1">  1       21 0.56693862E-03 0.66759600E+01</pdfrwt>
<pdfrwt beam="2">  1       21 0.48526044E-02 0.66759600E+01</pdfrwt>
<totfact> 0.77806178E+08</totfact>
</mgrwt>
</event>
<event>
 4    1  0.4043737E+006  0.6815038E+01  0.7546771E-02  0.2320054E+00
         21   -1    0    0  503  502  0.00000000000E+00  0.00000000000E+00  0.31592352312E+03  0.31592352312E+03  0.00000000000E+00 0. -1.
         21   -1    0    0  501  503 -0.00000000000E+00 -0.00000000000E+00 -0.50589366791E+00  0.50589366791E+00  0.00000000000E+00 0.  1.
          5    1    1    2  501    0  0.47052649818E+01 -0.14883651486E+01  0.24451061419E+02  0.25383048554E+02  0.47000000000E+01 0.  1.
         -5    1    1    2    0  502 -0.47052649818E+01  0.14883651486E+01  0.29096656803E+03  0.29104636823E+03  0.47000000000E+01 0. -1.
<mgrwt>
<rscale>  2 0.68150385E+01</rscale>
<asrwt>0</asrwt>
<pdfrwt beam="1">  1       21 0.48603461E-01 0.68150385E+01</pdfrwt>
<pdfrwt beam="2">  1       21 0.77830047E-04 0.68150385E+01</pdfrwt>
<totfact> 0.29312870E+08</totfact>
</mgrwt>
</event>
<event>
 4    1  0.4043737E+006  0.6978792E+01  0.7546771E-02  0.2303137E+00
         21   -1    0    0  503  502  0.00000000000E+00  0.00000000000E+00  0.18018156484E+03  0.18018156484E+03  0.00000000000E+00 0.  1.
         21   -1    0    0  501  503 -0.00000000000E+00 -0.00000000000E+00 -0.30777028646E+00  0.30777028646E+00  0.00000000000E+00 0.  1.
          5    1    1    2  501    0 -0.83785345371E+00  0.50903373654E+01  0.58449479444E+02  0.58864634376E+02  0.47000000000E+01 0.  1.
         -5    1    1    2    0  502  0.83785345371E+00 -0.50903373654E+01  0.12142431511E+03  0.12162470075E+03  0.47000000000E+01 0.  1.
<mgrwt>
<rscale>  2 0.69787917E+01</rscale>
<asrwt>0</asrwt>
<pdfrwt beam="1">  1       21 0.27720156E-01 0.69787917E+01</pdfrwt>
<pdfrwt beam="2">  1       21 0.47349419E-04 0.69787917E+01</pdfrwt>
<totfact> 0.15498842E+09</totfact>
</mgrwt>
</event>
<event>
 4    1  0.4043737E+006  0.6448712E+01  0.7546771E-02  0.2360442E+00
         21   -1    0    0  503  502  0.00000000000E+00  0.00000000000E+00  0.13475460746E+01  0.13475460746E+01  0.00000000000E+00 0.  1.
         21   -1    0    0  501  503 -0.00000000000E+00 -0.00000000000E+00 -0.62874141028E+02  0.62874141028E+02  0.00000000000E+00 0.  1.
          5    1    1    2  501    0  0.12046879165E+01 -0.42478949002E+01 -0.53676380437E+02  0.54062368621E+02  0.47000000000E+01 0.  1.
         -5    1    1    2    0  502 -0.12046879165E+01  0.42478949002E+01 -0.78502145157E+01  0.10159318481E+02  0.47000000000E+01 0.  1.
<mgrwt>
<rscale>  2 0.64487118E+01</rscale>
<asrwt>0</asrwt>
<pdfrwt beam="1">  1       21 0.20731476E-03 0.64487118E+01</pdfrwt>
<pdfrwt beam="2">  1       21 0.96729458E-02 0.64487118E+01</pdfrwt>
<totfact> 0.10741938E+09</totfact>
</mgrwt>
</event>
<event>
 4    1  0.4043737E+006  0.5021130E+01  0.7546771E-02  0.2563419E+00
         21   -1    0    0  501  502  0.00000000000E+00  0.00000000000E+00  0.22237426184E-01  0.22237426184E-01  0.00000000000E+00 0. -1.
         21   -1    0    0  502  503 -0.00000000000E+00 -0.00000000000E+00 -0.17683287478E+04  0.17683287478E+04  0.00000000000E+00 0. -1.
          5    1    1    2  501    0  0.16684503476E+01  0.58139642776E+00 -0.35449138602E+03  0.35452694469E+03  0.47000000000E+01 0. -1.
         -5    1    1    2    0  503 -0.16684503476E+01 -0.58139642776E+00 -0.14138151244E+04  0.14138240406E+04  0.47000000000E+01 0. -1.
<mgrwt>
<rscale>  2 0.50211302E+01</rscale>
<asrwt>0</asrwt>
<pdfrwt beam="1">  1       21 0.34207727E-05 0.50211302E+01</pdfrwt>
<pdfrwt beam="2">  1       21 0.27207999E+00 0.50211302E+01</pdfrwt>
<totfact> 0.46149261E+08</totfact>
</mgrwt>
</event>
<event>
 4    1  0.4043737E+006  0.8601201E+01  0.7546771E-02  0.2164593E+00
         21   -1    0    0  503  502  0.00000000000E+00  0.00000000000E+00  0.22798010553E+01  0.22798010553E+01  0.00000000000E+00 0. -1.
         21   -1    0    0  501  503 -0.00000000000E+00 -0.00000000000E+00 -0.12348465504E+03  0.12348465504E+03  0.00000000000E+00 0. -1.
          5    1    1    2  501    0  0.20764463806E+01  0.68977558788E+01 -0.11459370739E+03  0.11491604953E+03  0.47000000000E+01 0. -1.
         -5    1    1    2    0  502 -0.20764463806E+01 -0.68977558788E+01 -0.66111465926E+01  0.10848406565E+02  0.47000000000E+01 0. -1.
<mgrwt>
<rscale>  2 0.86012014E+01</rscale>
<asrwt>0</asrwt>
<pdfrwt beam="1">  1       21 0.35073867E-03 0.86012014E+01</pdfrwt>
<pdfrwt beam="2">  1       21 0.18997636E-01 0.86012014E+01</pdfrwt>
<totfact> 0.21266347E+08</totfact>
</mgrwt>
</event>
<event>
 4    1  0.4043737E+006  0.6200700E+01  0.7546771E-02  0.2390012E+00
         21   -1    0    0  503  502  0.00000000000E+00  0.00000000000E+00  0.44288498914E+02  0.44288498914E+02  0.00000000000E+00 0.  1.
         21   -1    0    0  501  503 -0.00000000000E+00 -0.00000000000E+00 -0.86815415208E+00  0.86815415208E+00  0.00000000000E+00 0. -1.
          5    1    1    2  501    0 -0.86716182257E+00 -0.39505328346E+01  0.21623627672E+02  0.22495109535E+02  0.47000000000E+01 0.  1.
         -5    1    1    2    0  502  0.86716182257E+00  0.39505328346E+01  0.21796717090E+02  0.22661543531E+02  0.47000000000E+01 0. -1.
<mgrwt>
<rscale>  2 0.62006999E+01</rscale>
<asrwt>0</asrwt>
<pdfrwt beam="1">  1       21 0.68136135E-02 0.62006999E+01</pdfrwt>
<pdfrwt beam="2">  1       21 0.13356221E-03 0.62006999E+01</pdfrwt>
<totfact> 0.32263456E+09</totfact>
</mgrwt>
</event>
<event>
 4    1  0.4043737E+006  0.5685132E+01  0.7546771E-02  0.2458299E+00
         21   -1    0    0  501  502  0.00000000000E+00  0.00000000000E+00  0.30310853696E+01  0.30310853696E+01  0.00000000000E+00 0. -1.
         21   -1    0    0  502  503 -0.00000000000E+00 -0.00000000000E+00 -0.13837787811E+02  0.13837787811E+02  0.00000000000E+00 0.  1.
          5    1    1    2  501    0  0.31878261387E+01 -0.26171272108E+00 -0.13634188069E+01  0.58463355944E+01  0.47000000000E+01 0. -1.
         -5    1    1    2    0  503 -0.31878261387E+01  0.26171272108E+00 -0.94432836346E+01  0.11022537586E+02  0.47000000000E+01 0.  1.
<mgrwt>
<rscale>  2 0.56851323E+01</rscale>
<asrwt>0</asrwt>
<pdfrwt beam="1">  1       21 0.46632083E-03 0.56851323E+01</pdfrwt>
<pdfrwt beam="2">  1       21 0.21288904E-02 0.56851323E+01</pdfrwt>
<totfact> 0.29795806E+09</totfact>
</mgrwt>
</event>
<event>
 4    1  0.4043737E+006  0.4906927E+01  0.7546771E-02  0.2583934E+00
         21   -1    0    0  501  502  0.00000000000E+00  0.00000000000E+00  0.17383964063E+02  0.17383964063E+02  0.00000000000E+00 0. -1.
         21   -1    0    0  502  503 -0.00000000000E+00 -0.00000000000E+00 -0.18185290586E+01  0.18185290586E+01  0.00000000000E+00 0.  1.
          5    1    1    2  501    0 -0.13455695782E+01  0.42116151219E+00  0.12470242900E+02  0.13400928792E+02  0.47000000000E+01 0. -1.
         -5    1    1    2    0  503  0.13455695782E+01 -0.42116151219E+00  0.30951921051E+01  0.58015643301E+01  0.47000000000E+01 0.  1.
<mgrwt>
<rscale>  2 0.49069272E+01</rscale>
<asrwt>0</asrwt>
<pdfrwt beam="1">  1       21 0.26744559E-02 0.49069272E+01</pdfrwt>
<pdfrwt beam="2">  1       21 0.27977371E-03 0.49069272E+01</pdfrwt>
<totfact> 0.37402220E+09</totfact>
</mgrwt>
</event>
<event>
 4    1  0.4043737E+006  0.4982932E+01  0.7546771E-02  0.2570191E+00
         21   -1    0    0  503  502  0.00000000000E+00  0.00000000000E+00  0.37711627992E+03  0.37711627992E+03  0.00000000000E+00 0. -1.
         21   -1    0    0  501  503 -0.00000000000E+00 -0.00000000000E+00 -0.17257949735E+00  0.17257949735E+00  0.00000000000E+00 0.  1.
          5    1    1    2  501    0  0.16378090042E+01 -0.23915215210E+00  0.40114020127E+02  0.40422323324E+02  0.47000000000E+01 0.  1.
         -5    1    1    2    0  502 -0.16378090042E+01  0.23915215210E+00  0.33682968030E+03  0.33686653610E+03  0.47000000000E+01 0. -1.
<mgrwt>
<rscale>  2 0.49829321E+01</rscale>
<asrwt>0</asrwt>
<pdfrwt beam="1">  1       21 0.58017230E-01 0.49829321E+01</pdfrwt>
<pdfrwt beam="2">  1       21 0.26550994E-04 0.49829321E+01</pdfrwt>
<totfact> 0.71532252E+08</totfact>
</mgrwt>
</event>
<event>
 4    1  0.4043737E+006  0.7249652E+01  0.7546771E-02  0.2276538E+00
         21   -1    0    0  501  502  0.00000000000E+00  0.00000000000E+00  0.44984267176E+03  0.44984267176E+03  0.00000000000E+00 0. -1.
         21   -1    0    0  502  503 -0.00000000000E+00 -0.00000000000E+00 -0.14879611410E+00  0.14879611410E+00  0.00000000000E+00 0.  1.
          5    1    1    2  501    0 -0.12458510660E+01  0.53772953909E+01  0.32912386011E+03  0.32920369492E+03  0.47000000000E+01 0. -1.
         -5    1    1    2    0  503  0.12458510660E+01 -0.53772953909E+01  0.12057001553E+03  0.12078777296E+03  0.47000000000E+01 0.  1.
<mgrwt>
<rscale>  2 0.72496518E+01</rscale>
<asrwt>0</asrwt>
<pdfrwt beam="1">  1       21 0.69205476E-01 0.72496518E+01</pdfrwt>
<pdfrwt beam="2">  1       21 0.22892070E-04 0.72496518E+01</pdfrwt>
<totfact> 0.81824389E+08</totfact>
</mgrwt>
</event>
<event>
 4    1  0.4043737E+006  0.5994634E+01  0.7546771E-02  0.2416123E+00
         21   -1    0    0  503  502  0.00000000000E+00  0.00000000000E+00  0.12687092217E+02  0.12687092217E+02  0.00000000000E+00 0.  1.
         21   -1    0    0  501  503 -0.00000000000E+00 -0.00000000000E+00 -0.28977189170E+01  0.28977189170E+01  0.00000000000E+00 0. -1.
          5    1    1    2  501    0  0.33919092415E+01  0.15298970428E+01  0.37252520786E+01  0.70578421853E+01  0.47000000000E+01 0.  1.
         -5    1    1    2    0  502 -0.33919092415E+01 -0.15298970428E+01  0.60641212219E+01  0.85269689490E+01  0.47000000000E+01 0. -1.
<mgrwt>
<rscale>  2 0.59946337E+01</rscale>
<asrwt>0</asrwt>
<pdfrwt beam="1">  1       21 0.19518603E-02 0.59946337E+01</pdfrwt>
<pdfrwt beam="2">  1       21 0.44580292E-03 0.59946337E+01</pdfrwt>
<totfact> 0.37682742E+09</totfact>
</mgrwt>
</event>
<event>
 4    1  0.4043737E+006  0.4768098E+01  0.7546771E-02  0.2610014E+00
         21   -1    0    0  501  502  0.00000000000E+00  0.00000000000E+00  0.26723647882E+01  0.26723647882E+01  0.00000000000E+00 0. -1.
         21   -1    0    0  502  503 -0.00000000000E+00 -0.00000000000E+00 -0.96713908403E+01  0.96713908403E+01  0.00000000000E+00 0. -1.
          5    1    1    2  501    0 -0.46223268090E+00  0.65658355155E+00 -0.13583207166E+01  0.49578015471E+01  0.47000000000E+01 0.  1.
         -5    1    1    2    0  503  0.46223268090E+00 -0.65658355155E+00 -0.56407053354E+01  0.73859540814E+01  0.47000000000E+01 0.  1.
<mgrwt>
<rscale>  2 0.47680983E+01</rscale>
<asrwt>0</asrwt>
<pdfrwt beam="1">  1       21 0.41113304E-03 0.47680983E+01</pdfrwt>
<pdfrwt beam="2">  1       21 0.14879063E-02 0.47680983E+01</pdfrwt>
<totfact> 0.49281037E+09</totfact>
</mgrwt>
</event>
<event>
 4    1  0.4043737E+006  0.6438692E+01  0.7546771E-02  0.2361600E+00
         21   -1    0    0  503  502  0.00000000000E+00  0.00000000000E+00  0.23853758145E+01  0.23853758145E+01  0.00000000000E+00 0.  1.
         21   -1    0    0  501  503 -0.00000000000E+00 -0.00000000000E+00 -0.10430255998E+03  0.10430255998E+03  0.00000000000E+00 0.  1.
          5    1    1    2  501    0  0.29553178775E+01  0.32608044251E+01 -0.99655929983E+02  0.99863712779E+02  0.47000000000E+01 0.  1.
         -5    1    1    2    0  502 -0.29553178775E+01 -0.32608044251E+01 -0.22612541793E+01  0.68242230121E+01  0.47000000000E+01 0.  1.
<mgrwt>
<rscale>  2 0.64386916E+01</rscale>
<asrwt>0</asrwt>
<pdfrwt beam="1">  1       21 0.36698094E-03 0.64386916E+01</pdfrwt>
<pdfrwt beam="2">  1       21 0.16046546E-01 0.64386916E+01</pdfrwt>
<totfact> 0.22132233E+08</totfact>
</mgrwt>
</event>
<event>
 4    1  0.4043737E+006  0.4841298E+01  0.7546771E-02  0.2596101E+00
         21   -1    0    0  503  502  0.00000000000E+00  0.00000000000E+00  0.16191088764E+01  0.16191088764E+01  0.00000000000E+00 0. -1.
         21   -1    0    0  501  503 -0.00000000000E+00 -0.00000000000E+00 -0.14892738685E+02  0.14892738685E+02  0.00000000000E+00 0.  1.
          5    1    1    2  501    0  0.98837659645E+00 -0.60932469465E+00 -0.80179242604E+01  0.93661771457E+01  0.47000000000E+01 0.  1.
         -5    1    1    2    0  502 -0.98837659645E+00  0.60932469465E+00 -0.52557055483E+01  0.71456704158E+01  0.47000000000E+01 0. -1.
<mgrwt>
<rscale>  2 0.48412979E+01</rscale>
<asrwt>0</asrwt>
<pdfrwt beam="1">  1       21 0.24909368E-03 0.48412979E+01</pdfrwt>
<pdfrwt beam="2">  1       21 0.22911905E-02 0.48412979E+01</pdfrwt>
<totfact> 0.53763563E+09</totfact>
</mgrwt>
</event>
<event>
 4    1  0.4043737E+006  0.7715894E+01  0.7546771E-02  0.2234351E+00
         21   -1    0    0  501  502  0.00000000000E+00  0.00000000000E+00  0.47411194495E+01  0.47411194495E+01  0.00000000000E+00 0. -1.
         21   -1    0    0  502  503 -0.00000000000E+00 -0.00000000000E+00 -0.12568132063E+02  0.12568132063E+02  0.00000000000E+00 0.  1.
          5    1    1    2  501    0 -0.49559025723E+01 -0.35894361404E+01 -0.36578561990E+01  0.85390241881E+01  0.47000000000E+01 0. -1.
         -5    1    1    2    0  503  0.49559025723E+01  0.35894361404E+01 -0.41691564146E+01  0.87702273244E+01  0.47000000000E+01 0.  1.
<mgrwt>
<rscale>  2 0.77158941E+01</rscale>
<asrwt>0</asrwt>
<pdfrwt beam="1">  1       21 0.72940301E-03 0.77158941E+01</pdfrwt>
<pdfrwt beam="2">  1       21 0.19335587E-02 0.77158941E+01</pdfrwt>
<totfact> 0.23525770E+09</totfact>
</mgrwt>
</event>
<event>
 4    1  0.4043737E+006  0.4806848E+01  0.7546771E-02  0.2602603E+00
         21   -1    0    0  501  502  0.00000000000E+00  0.00000000000E+00  0.28257372608E+00  0.28257372608E+00  0.00000000000E+00 0.  1.
         21   -1    0    0  502  503 -0.00000000000E+00 -0.00000000000E+00 -0.82932169491E+02  0.82932169491E+02  0.00000000000E+00 0. -1.
          5    1    1    2  501    0  0.42115259633E+00 -0.91565283804E+00 -0.46252199562E+02  0.46501309163E+02  0.47000000000E+01 0. -1.
         -5    1    1    2    0  503 -0.42115259633E+00  0.91565283804E+00 -0.36397396204E+02  0.36713434054E+02  0.47000000000E+01 0.  1.
<mgrwt>
<rscale>  2 0.48068482E+01</rscale>
<asrwt>0</asrwt>
<pdfrwt beam="1">  1       21 0.43472888E-04 0.48068482E+01</pdfrwt>
<pdfrwt beam="2">  1       21 0.12758793E-01 0.48068482E+01</pdfrwt>
<totfact> 0.43816319E+09</totfact>
</mgrwt>
</event>
<event>
 4    1  0.4043737E+006  0.6960651E+01  0.7546771E-02  0.2304979E+00
         21   -1    0    0  501  502  0.00000000000E+00  0.00000000000E+00  0.13174239591E+03  0.13174239591E+03  0.00000000000E+00 0.  1.
         21   -1    0    0  502  503 -0.00000000000E+00 -0.00000000000E+00 -0.41950021298E+00  0.41950021298E+00  0.00000000000E+00 0.  1.
          5    1    1    2  501    0  0.18611963292E+01  0.47850402477E+01  0.88866893880E+02  0.89139079476E+02  0.47000000000E+01 0.  1.
         -5    1    1    2    0  503 -0.18611963292E+01 -0.47850402477E+01  0.42456001812E+02  0.43022816642E+02  0.47000000000E+01 0.  1.
<mgrwt>
<rscale>  2 0.69606510E+01</rscale>
<asrwt>0</asrwt>
<pdfrwt beam="1">  1       21 0.20268028E-01 0.69606510E+01</pdfrwt>
<pdfrwt beam="2">  1       21 0.64538599E-04 0.69606510E+01</pdfrwt>
<totfact> 0.17141471E+09</totfact>
</mgrwt>
</event>
<event>
 4    1  0.4043737E+006  0.7829192E+01  0.7546771E-02  0.2224718E+00
         21   -1    0    0  501  502  0.00000000000E+00  0.00000000000E+00  0.14989662074E+03  0.14989662074E+03  0.00000000000E+00 0. -1.
         21   -1    0    0  502  503 -0.00000000000E+00 -0.00000000000E+00 -0.42981951973E+00  0.42981951973E+00  0.00000000000E+00 0.  1.
          5    1    1    2  501    0 -0.51799531340E+01 -0.35177171944E+01  0.58160663618E+02  0.58685254036E+02  0.47000000000E+01 0. -1.
         -5    1    1    2    0  503  0.51799531340E+01  0.35177171944E+01  0.91306137599E+02  0.91641186221E+02  0.47000000000E+01 0.  1.
<mgrwt>
<rscale>  2 0.78291921E+01</rscale>
<asrwt>0</asrwt>
<pdfrwt beam="1">  1       21 0.23060977E-01 0.78291921E+01</pdfrwt>
<pdfrwt beam="2">  1       21 0.66126199E-04 0.78291921E+01</pdfrwt>
<totfact> 0.14537835E+09</totfact>
</mgrwt>
</event>
<event>
 4    1  0.4043737E+006  0.7954246E+01  0.7546771E-02  0.2214345E+00
         21   -1    0    0  503  502  0.00000000000E+00  0.00000000000E+00  0.20806015312E+02  0.20806015312E+02  0.00000000000E+00 0.  1.
         21   -1    0    0  501  503 -0.00000000000E+00 -0.00000000000E+00 -0.39291380661E+01  0.39291380661E+01  0.00000000000E+00 0.  1.
          5    1    1    2  501    0 -0.16351464846E+01 -0.62053461308E+01  0.25582838332E+01  0.83555275597E+01  0.47000000000E+01 0.  1.
         -5    1    1    2    0  502  0.16351464846E+01  0.62053461308E+01  0.14318593413E+02  0.16379625818E+02  0.47000000000E+01 0.  1.
<mgrwt>
<rscale>  2 0.79542457E+01</rscale>
<asrwt>0</asrwt>
<pdfrwt beam="1">  1       21 0.32009254E-02 0.79542457E+01</pdfrwt>
<pdfrwt beam="2">  1       21 0.60448279E-03 0.79542457E+01</pdfrwt>
<totfact> 0.14963254E+09</totfact>
</mgrwt>
</event>
<event>
 4    1  0.4043737E+006  0.4934440E+01  0.7546771E-02  0.2578917E+00
         21   -1    0    0  501  502  0.00000000000E+00  0.00000000000E+00  0.56235038596E+03  0.56235038596E+03  0.00000000000E+00 0.  1.
         21   -1    0    0  502  503 -0.00000000000E+00 -0.00000000000E+00 -0.45298540454E-01  0.45298540454E-01  0.00000000000E+00 0.  1.
          5    1    1    2  501    0 -0.14916199185E+01  0.18375642663E+00  0.34024526824E+03  0.34028104746E+03  0.47000000000E+01 0.  1.
         -5    1    1    2    0  503  0.14916199185E+01 -0.18375642663E+00  0.22205981918E+03  0.22211463704E+03  0.47000000000E+01 0.  1.
<mgrwt>
<rscale>  2 0.49344398E+01</rscale>
<asrwt>0</asrwt>
<pdfrwt beam="1">  1       21 0.86509853E-01 0.49344398E+01</pdfrwt>
<pdfrwt beam="2">  1       21 0.69694566E-05 0.49344398E+01</pdfrwt>
<totfact> 0.19720828E+09</totfact>
</mgrwt>
</event>
<event>
 4    1  0.4043737E+006  0.5219060E+01  0.7546771E-02  0.2529701E+00
         21   -1    0    0  503  502  0.00000000000E+00  0.00000000000E+00  0.50980182976E+02  0.50980182976E+02  0.00000000000E+00 0.  1.
         21   -1    0    0  501  503 -0.00000000000E+00 -0.00000000000E+00 -0.10527502454E+01  0.10527502454E+01  0.00000000000E+00 0.  1.
          5    1    1    2  501    0 -0.17495727078E+01  0.14448464021E+01  0.67062623831E+01  0.84977962400E+01  0.47000000000E+01 0.  1.
         -5    1    1    2    0  502  0.17495727078E+01 -0.14448464021E+01  0.43221170348E+02  0.43535136982E+02  0.47000000000E+01 0.  1.
<mgrwt>
<rscale>  2 0.52190599E+01</rscale>
<asrwt>0</asrwt>
<pdfrwt beam="1">  1       21 0.78431032E-02 0.52190599E+01</pdfrwt>
<pdfrwt beam="2">  1       21 0.16196162E-03 0.52190599E+01</pdfrwt>
<totfact> 0.17284166E+09</totfact>
</mgrwt>
</event>
<event>
 4    1  0.4043737E+006  0.7126777E+01  0.7546771E-02  0.2288399E+00
         21   -1    0    0  503  502  0.00000000000E+00  0.00000000000E+00  0.56407956713E+01  0.56407956713E+01  0.00000000000E+00 0.  1.
         21   -1    0    0  501  503 -0.00000000000E+00 -0.00000000000E+00 -0.96952815173E+01  0.96952815173E+01  0.00000000000E+00 0.  1.
          5    1    1    2  501    0  0.52878093836E+01 -0.86024588933E+00  0.19970969373E-01  0.71268050280E+01  0.47000000000E+01 0.  1.
         -5    1    1    2    0  502 -0.52878093836E+01  0.86024588933E+00 -0.40744568153E+01  0.82092721606E+01  0.47000000000E+01 0.  1.
<mgrwt>
<rscale>  2 0.71267770E+01</rscale>
<asrwt>0</asrwt>
<pdfrwt beam="1">  1       21 0.86781472E-03 0.71267770E+01</pdfrwt>
<pdfrwt beam="2">  1       21 0.14915818E-02 0.71267770E+01</pdfrwt>
<totfact> 0.25191613E+09</totfact>
</mgrwt>
</event>
<event>
 4    1  0.4043737E+006  0.5039953E+01  0.7546771E-02  0.2560115E+00
         21   -1    0    0  503  502  0.00000000000E+00  0.00000000000E+00  0.10478061022E+03  0.10478061022E+03  0.00000000000E+00 0.  1.
         21   -1    0    0  501  503 -0.00000000000E+00 -0.00000000000E+00 -0.35353076856E+01  0.35353076856E+01  0.00000000000E+00 0.  1.
          5    1    1    2  501    0  0.14433168537E+01  0.11081330042E+01 -0.16454843086E+01  0.53017677151E+01  0.47000000000E+01 0.  1.
         -5    1    1    2    0  502 -0.14433168537E+01 -0.11081330042E+01  0.10289078685E+03  0.10301415019E+03  0.47000000000E+01 0.  1.
<mgrwt>
<rscale>  2 0.50399526E+01</rscale>
<asrwt>0</asrwt>
<pdfrwt beam="1">  1       21 0.16120091E-01 0.50399526E+01</pdfrwt>
<pdfrwt beam="2">  1       21 0.54389357E-03 0.50399526E+01</pdfrwt>
<totfact> 0.10745067E+08</totfact>
</mgrwt>
</event>
<event>
 4    1  0.4043737E+006  0.6113589E+01  0.7546771E-02  0.2400870E+00
         21   -1    0    0  503  502  0.00000000000E+00  0.00000000000E+00  0.14073675366E+01  0.14073675366E+01  0.00000000000E+00 0. -1.
         21   -1    0    0  501  503 -0.00000000000E+00 -0.00000000000E+00 -0.29476471928E+02  0.29476471928E+02  0.00000000000E+00 0.  1.
          5    1    1    2  501    0 -0.37855408981E+01  0.97757116184E+00 -0.18894022914E+02  0.19858501130E+02  0.47000000000E+01 0. -1.
         -5    1    1    2    0  502  0.37855408981E+01 -0.97757116184E+00 -0.91750814768E+01  0.11025338334E+02  0.47000000000E+01 0. -1.
<mgrwt>
<rscale>  2 0.61135886E+01</rscale>
<asrwt>0</asrwt>
<pdfrwt beam="1">  1       21 0.21651808E-03 0.61135886E+01</pdfrwt>
<pdfrwt beam="2">  1       21 0.45348418E-02 0.61135886E+01</pdfrwt>
<totfact> 0.30355220E+09</totfact>
</mgrwt>
</event>
<event>
 4    1  0.4043737E+006  0.7339932E+01  0.7546771E-02  0.2268029E+00
         21   -1    0    0  501  502  0.00000000000E+00  0.00000000000E+00  0.58579804437E+00  0.58579804437E+00  0.00000000000E+00 0.  1.
         21   -1    0    0  502  503 -0.00000000000E+00 -0.00000000000E+00 -0.12869703635E+03  0.12869703635E+03  0.00000000000E+00 0.  1.
          5    1    1    2  501    0  0.40733794775E+01  0.38977154546E+01 -0.29522798448E+02  0.30421542274E+02  0.47000000000E+01 0.  1.
         -5    1    1    2    0  503 -0.40733794775E+01 -0.38977154546E+01 -0.98588439859E+02  0.98861292122E+02  0.47000000000E+01 0.  1.
<mgrwt>
<rscale>  2 0.73399323E+01</rscale>
<asrwt>0</asrwt>
<pdfrwt beam="1">  1       21 0.90122679E-04 0.73399323E+01</pdfrwt>
<pdfrwt beam="2">  1       21 0.19799565E-01 0.73399323E+01</pdfrwt>
<totfact> 0.11767842E+09</totfact>
</mgrwt>
</event>
<event>
 4    1  0.4043737E+006  0.4834808E+01  0.7546771E-02  0.2597320E+00
         21   -1    0    0  503  502  0.00000000000E+00  0.00000000000E+00  0.10876554055E+03  0.10876554055E+03  0.00000000000E+00 0.  1.
         21   -1    0    0  501  503 -0.00000000000E+00 -0.00000000000E+00 -0.27148411973E+00  0.27148411973E+00  0.00000000000E+00 0.  1.
          5    1    1    2  501    0 -0.10412632453E+01 -0.44848745504E+00  0.29360710310E+02  0.29756120044E+02  0.47000000000E+01 0.  1.
         -5    1    1    2    0  502  0.10412632453E+01  0.44848745504E+00  0.79133346120E+02  0.79280904626E+02  0.47000000000E+01 0.  1.
<mgrwt>
<rscale>  2 0.48348082E+01</rscale>
<asrwt>0</asrwt>
<pdfrwt beam="1">  1       21 0.16733125E-01 0.48348082E+01</pdfrwt>
<pdfrwt beam="2">  1       21 0.41766874E-04 0.48348082E+01</pdfrwt>
<totfact> 0.30553327E+09</totfact>
</mgrwt>
</event>
<event>
 4    1  0.4043737E+006  0.4932130E+01  0.7546771E-02  0.2579336E+00
         21   -1    0    0  501  502  0.00000000000E+00  0.00000000000E+00  0.29518415734E+01  0.29518415734E+01  0.00000000000E+00 0.  1.
         21   -1    0    0  502  503 -0.00000000000E+00 -0.00000000000E+00 -0.20270168390E+02  0.20270168390E+02  0.00000000000E+00 0.  1.
          5    1    1    2  501    0 -0.34430480287E+00 -0.14551154766E+01  0.28542329121E+00  0.49403818985E+01  0.47000000000E+01 0.  1.
         -5    1    1    2    0  503  0.34430480287E+00  0.14551154766E+01 -0.17603750107E+02  0.18281628065E+02  0.47000000000E+01 0.  1.
<mgrwt>
<rscale>  2 0.49321301E+01</rscale>
<asrwt>0</asrwt>
<pdfrwt beam="1">  1       21 0.45412948E-03 0.49321301E+01</pdfrwt>
<pdfrwt beam="2">  1       21 0.31184874E-02 0.49321301E+01</pdfrwt>
<totfact> 0.15602560E+09</totfact>
</mgrwt>
</event>
<event>
 4    1  0.4043737E+006  0.5413054E+01  0.7546771E-02  0.2498712E+00
         21   -1    0    0  503  502  0.00000000000E+00  0.00000000000E+00  0.17743294257E+03  0.17743294257E+03  0.00000000000E+00 0. -1.
         21   -1    0    0  501  503 -0.00000000000E+00 -0.00000000000E+00 -0.75850315690E+00  0.75850315690E+00  0.00000000000E+00 0. -1.
          5    1    1    2  501    0 -0.20114782553E+01 -0.17790760671E+01  0.95349557734E+01  0.10964330259E+02  0.47000000000E+01 0. -1.
         -5    1    1    2    0  502  0.20114782553E+01  0.17790760671E+01  0.16713948364E+03  0.16722711547E+03  0.47000000000E+01 0. -1.
<mgrwt>
<rscale>  2 0.54130543E+01</rscale>
<asrwt>0</asrwt>
<pdfrwt beam="1">  1       21 0.27297343E-01 0.54130543E+01</pdfrwt>
<pdfrwt beam="2">  1       21 0.11669294E-03 0.54130543E+01</pdfrwt>
<totfact> 0.39339374E+08</totfact>
</mgrwt>
</event>
<event>
 4    1  0.4043737E+006  0.9446962E+01  0.7546771E-02  0.2107899E+00
         21   -1    0    0  501  502  0.00000000000E+00  0.00000000000E+00  0.42043120767E+01  0.42043120767E+01  0.00000000000E+00 0.  1.
         21   -1    0    0  502  503 -0.00000000000E+00 -0.00000000000E+00 -0.21477318872E+02  0.21477318872E+02  0.00000000000E+00 0. -1.
          5    1    1    2  501    0  0.56079619134E+01  0.59754369357E+01 -0.72503278832E+01  0.11908498554E+02  0.47000000000E+01 0. -1.
         -5    1    1    2    0  503 -0.56079619134E+01 -0.59754369357E+01 -0.10022678912E+02  0.13773132395E+02  0.47000000000E+01 0.  1.
<mgrwt>
<rscale>  2 0.94469616E+01</rscale>
<asrwt>0</asrwt>
<pdfrwt beam="1">  1       21 0.64681725E-03 0.94469616E+01</pdfrwt>
<pdfrwt beam="2">  1       21 0.33042028E-02 0.94469616E+01</pdfrwt>
<totfact> 0.14509716E+09</totfact>
</mgrwt>
</event>
<event>
 4    1  0.4043737E+006  0.5515622E+01  0.7546771E-02  0.2483080E+00
         21   -1    0    0  501  502  0.00000000000E+00  0.00000000000E+00  0.50793850421E+03  0.50793850421E+03  0.00000000000E+00 0.  1.
         21   -1    0    0  502  503 -0.00000000000E+00 -0.00000000000E+00 -0.72681409816E-01  0.72681409816E-01  0.00000000000E+00 0.  1.
          5    1    1    2  501    0  0.24238294264E+01 -0.15675240386E+01  0.36047859822E+03  0.36052079254E+03  0.47000000000E+01 0.  1.
         -5    1    1    2    0  503 -0.24238294264E+01  0.15675240386E+01  0.14738722458E+03  0.14749039308E+03  0.47000000000E+01 0.  1.
<mgrwt>
<rscale>  2 0.55156215E+01</rscale>
<asrwt>0</asrwt>
<pdfrwt beam="1">  1       21 0.78141543E-01 0.55156215E+01</pdfrwt>
<pdfrwt beam="2">  1       21 0.11182162E-04 0.55156215E+01</pdfrwt>
<totfact> 0.13978816E+09</totfact>
</mgrwt>
</event>
<event>
 4    1  0.4043737E+006  0.5002986E+01  0.7546771E-02  0.2566624E+00
         21   -1    0    0  501  502  0.00000000000E+00  0.00000000000E+00  0.10776078175E+03  0.10776078175E+03  0.00000000000E+00 0. -1.
         21   -1    0    0  502  503 -0.00000000000E+00 -0.00000000000E+00 -0.98865454151E+00  0.98865454151E+00  0.00000000000E+00 0. -1.
          5    1    1    2  501    0 -0.16545739898E+01  0.44973090116E+00  0.10094644431E+03  0.10107034427E+03  0.47000000000E+01 0. -1.
         -5    1    1    2    0  503  0.16545739898E+01 -0.44973090116E+00  0.58256828991E+01  0.76790920174E+01  0.47000000000E+01 0. -1.
<mgrwt>
<rscale>  2 0.50029864E+01</rscale>
<asrwt>0</asrwt>
<pdfrwt beam="1">  1       21 0.16578573E-01 0.50029864E+01</pdfrwt>
<pdfrwt beam="2">  1       21 0.15210078E-03 0.50029864E+01</pdfrwt>
<totfact> 0.57608126E+08</totfact>
</mgrwt>
</event>
<event>
 4    1  0.4043737E+006  0.5673594E+01  0.7546771E-02  0.2459946E+00
         21   -1    0    0  503  502  0.00000000000E+00  0.00000000000E+00  0.94392751976E+00  0.94392751976E+00  0.00000000000E+00 0. -1.
         21   -1    0    0  501  503 -0.00000000000E+00 -0.00000000000E+00 -0.35522081905E+02  0.35522081905E+02  0.00000000000E+00 0.  1.
          5    1    1    2  501    0  0.27649173125E+01 -0.15668138462E+01 -0.13643310407E+02  0.14775980246E+02  0.47000000000E+01 0.  1.
         -5    1    1    2    0  502 -0.27649173125E+01  0.15668138462E+01 -0.20934843978E+02  0.21690029179E+02  0.47000000000E+01 0. -1.
<mgrwt>
<rscale>  2 0.56735944E+01</rscale>
<asrwt>0</asrwt>
<pdfrwt beam="1">  1       21 0.14521961E-03 0.56735944E+01</pdfrwt>
<pdfrwt beam="2">  1       21 0.54649359E-02 0.56735944E+01</pdfrwt>
<totfact> 0.37040602E+09</totfact>
</mgrwt>
</event>
<event>
 4    1  0.4043737E+006  0.6494715E+01  0.7546771E-02  0.2355164E+00
         21   -1    0    0  503  502  0.00000000000E+00  0.00000000000E+00  0.80663337689E+01  0.80663337689E+01  0.00000000000E+00 0.  1.
         21   -1    0    0  501  503 -0.00000000000E+00 -0.00000000000E+00 -0.57970355924E+01  0.57970355924E+01  0.00000000000E+00 0.  1.
          5    1    1    2  501    0  0.27321952840E+01 -0.35533688475E+01 -0.10345873042E+01  0.65766018677E+01  0.47000000000E+01 0.  1.
         -5    1    1    2    0  502 -0.27321952840E+01  0.35533688475E+01  0.33038854808E+01  0.72867674936E+01  0.47000000000E+01 0.  1.
<mgrwt>
<rscale>  2 0.64947149E+01</rscale>
<asrwt>0</asrwt>
<pdfrwt beam="1">  1       21 0.12409744E-02 0.64947149E+01</pdfrwt>
<pdfrwt beam="2">  1       21 0.89185163E-03 0.64947149E+01</pdfrwt>
<totfact> 0.29272794E+09</totfact>
</mgrwt>
</event>
<event>
 4    1  0.4043737E+006  0.7260159E+01  0.7546771E-02  0.2275539E+00
         21   -1    0    0  501  502  0.00000000000E+00  0.00000000000E+00  0.17933271130E+01  0.17933271130E+01  0.00000000000E+00 0.  1.
         21   -1    0    0  502  503 -0.00000000000E+00 -0.00000000000E+00 -0.48363768536E+02  0.48363768536E+02  0.00000000000E+00 0. -1.
          5    1    1    2  501    0 -0.47603131786E+01 -0.28212274688E+01 -0.75782133509E+01  0.10494723607E+02  0.47000000000E+01 0.  1.
         -5    1    1    2    0  503  0.47603131786E+01  0.28212274688E+01 -0.38992228072E+02  0.39662372042E+02  0.47000000000E+01 0. -1.
<mgrwt>
<rscale>  2 0.72601588E+01</rscale>
<asrwt>0</asrwt>
<pdfrwt beam="1">  1       21 0.27589647E-03 0.72601588E+01</pdfrwt>
<pdfrwt beam="2">  1       21 0.74405799E-02 0.72601588E+01</pdfrwt>
<totfact> 0.11822765E+09</totfact>
</mgrwt>
</event>
<event>
 4    1  0.4043737E+006  0.6209427E+01  0.7546771E-02  0.2388938E+00
         21   -1    0    0  503  502  0.00000000000E+00  0.00000000000E+00  0.11541375005E+03  0.11541375005E+03  0.00000000000E+00 0. -1.
         21   -1    0    0  501  503 -0.00000000000E+00 -0.00000000000E+00 -0.11853704630E+01  0.11853704630E+01  0.00000000000E+00 0. -1.
          5    1    1    2  501    0 -0.40391762524E+01  0.38992172479E+00  0.77083723959E+01  0.98982821107E+01  0.47000000000E+01 0. -1.
         -5    1    1    2    0  502  0.40391762524E+01 -0.38992172479E+00  0.10652000720E+03  0.10670083841E+03  0.47000000000E+01 0. -1.
<mgrwt>
<rscale>  2 0.62094270E+01</rscale>
<asrwt>0</asrwt>
<pdfrwt beam="1">  1       21 0.17755953E-01 0.62094270E+01</pdfrwt>
<pdfrwt beam="2">  1       21 0.18236478E-03 0.62094270E+01</pdfrwt>
<totfact> 0.47955496E+08</totfact>
</mgrwt>
</event>
<event>
 4    1  0.4043737E+006  0.5714180E+01  0.7546771E-02  0.2454177E+00
         21   -1    0    0  503  502  0.00000000000E+00  0.00000000000E+00  0.53712210798E+03  0.53712210798E+03  0.00000000000E+00 0. -1.
         21   -1    0    0  501  503 -0.00000000000E+00 -0.00000000000E+00 -0.66756812254E-01  0.66756812254E-01  0.00000000000E+00 0.  1.
          5    1    1    2  501    0  0.32191696823E+01  0.44587294679E+00  0.18822932391E+03  0.18831603818E+03  0.47000000000E+01 0.  1.
         -5    1    1    2    0  502 -0.32191696823E+01 -0.44587294679E+00  0.34882602725E+03  0.34887282661E+03  0.47000000000E+01 0. -1.
<mgrwt>
<rscale>  2 0.57141803E+01</rscale>
<asrwt>0</asrwt>
<pdfrwt beam="1">  1       21 0.82630710E-01 0.57141803E+01</pdfrwt>
<pdfrwt beam="2">  1       21 0.10270709E-04 0.57141803E+01</pdfrwt>
<totfact> 0.14425656E+09</totfact>
</mgrwt>
</event>
<event>
 4    1  0.4043737E+006  0.7828488E+01  0.7546771E-02  0.2224778E+00
         21   -1    0    0  503  502  0.00000000000E+00  0.00000000000E+00  0.12848942928E+04  0.12848942928E+04  0.00000000000E+00 0.  1.
         21   -1    0    0  501  503 -0.00000000000E+00 -0.00000000000E+00 -0.13196716676E+00  0.13196716676E+00  0.00000000000E+00 0.  1.
          5    1    1    2  501    0  0.11335009252E+01 -0.61571426811E+01  0.12894466805E+03  0.12918209105E+03  0.47000000000E+01 0.  1.
         -5    1    1    2    0  502 -0.11335009252E+01  0.61571426811E+01  0.11558176576E+04  0.11558441689E+04  0.47000000000E+01 0.  1.
<mgrwt>
<rscale>  2 0.78284884E+01</rscale>
<asrwt>0</asrwt>
<pdfrwt beam="1">  1       21 0.19766603E+00 0.78284884E+01</pdfrwt>
<pdfrwt beam="2">  1       21 0.20303670E-04 0.78284884E+01</pdfrwt>
<totfact> 0.10955373E+08</totfact>
</mgrwt>
</event>
<event>
 4    1  0.4043737E+006  0.9451731E+01  0.7546771E-02  0.2107602E+00
         21   -1    0    0  503  502  0.00000000000E+00  0.00000000000E+00  0.30162152085E+00  0.30162152085E+00  0.00000000000E+00 0. -1.
         21   -1    0    0  501  503 -0.00000000000E+00 -0.00000000000E+00 -0.33695292616E+03  0.33695292616E+03  0.00000000000E+00 0.  1.
          5    1    1    2  501    0  0.43505498760E+00  0.81887699908E+01 -0.22698160699E+03  0.22717831133E+03  0.47000000000E+01 0. -1.
         -5    1    1    2    0  502 -0.43505498760E+00 -0.81887699908E+01 -0.10966969765E+03  0.11007623635E+03  0.47000000000E+01 0.  1.
<mgrwt>
<rscale>  2 0.94517314E+01</rscale>
<asrwt>0</asrwt>
<pdfrwt beam="1">  1       21 0.46403288E-04 0.94517314E+01</pdfrwt>
<pdfrwt beam="2">  1       21 0.51838937E-01 0.94517314E+01</pdfrwt>
<totfact> 0.63201826E+08</totfact>
</mgrwt>
</event>
<event>
 4    1  0.4043737E+006  0.6731602E+01  0.7546771E-02  0.2328934E+00
         21   -1    0    0  501  502  0.00000000000E+00  0.00000000000E+00  0.33229447901E+02  0.33229447901E+02  0.00000000000E+00 0.  1.
         21   -1    0    0  502  503 -0.00000000000E+00 -0.00000000000E+00 -0.10161654266E+02  0.10161654266E+02  0.00000000000E+00 0.  1.
          5    1    1    2  501    0 -0.46387329562E+01 -0.13063757833E+01  0.31721266101E+02  0.32427660788E+02  0.47000000000E+01 0.  1.
         -5    1    1    2    0  503  0.46387329562E+01  0.13063757833E+01 -0.86534724672E+01  0.10963441379E+02  0.47000000000E+01 0.  1.
<mgrwt>
<rscale>  2 0.67316017E+01</rscale>
<asrwt>0</asrwt>
<pdfrwt beam="1">  1       21 0.51122227E-02 0.67316017E+01</pdfrwt>
<pdfrwt beam="2">  1       21 0.15633314E-02 0.67316017E+01</pdfrwt>
<totfact> 0.17166030E+08</totfact>
</mgrwt>
</event>
<event>
 4    1  0.4043737E+006  0.5693996E+01  0.7546771E-02  0.2457037E+00
         21   -1    0    0  501  502  0.00000000000E+00  0.00000000000E+00  0.83780951036E+00  0.83780951036E+00  0.00000000000E+00 0. -1.
         21   -1    0    0  502  503 -0.00000000000E+00 -0.00000000000E+00 -0.55635843935E+02  0.55635843935E+02  0.00000000000E+00 0. -1.
          5    1    1    2  501    0  0.40922476247E+00  0.31881227020E+01 -0.11819032835E+02  0.13119113096E+02  0.47000000000E+01 0. -1.
         -5    1    1    2    0  503 -0.40922476247E+00 -0.31881227020E+01 -0.42979001589E+02  0.43354540349E+02  0.47000000000E+01 0. -1.
<mgrwt>
<rscale>  2 0.56939961E+01</rscale>
<asrwt>0</asrwt>
<pdfrwt beam="1">  1       21 0.12889371E-03 0.56939961E+01</pdfrwt>
<pdfrwt beam="2">  1       21 0.85593645E-02 0.56939961E+01</pdfrwt>
<totfact> 0.22280176E+09</totfact>
</mgrwt>
</event>
<event>
 4    1  0.4043737E+006  0.7725646E+01  0.7546771E-02  0.2233513E+00
         21   -1    0    0  503  502  0.00000000000E+00  0.00000000000E+00  0.62229754593E+00  0.62229754593E+00  0.00000000000E+00 0. -1.
         21   -1    0    0  501  503 -0.00000000000E+00 -0.00000000000E+00 -0.22864171506E+03  0.22864171506E+03  0.00000000000E+00 0.  1.
          5    1    1    2  501    0 -0.31357251330E+01 -0.52690445418E+01 -0.20134962379E+03  0.20149778312E+03  0.47000000000E+01 0.  1.
         -5    1    1    2    0  502  0.31357251330E+01  0.52690445418E+01 -0.26669793721E+02  0.27766229482E+02  0.47000000000E+01 0. -1.
<mgrwt>
<rscale>  2 0.77256458E+01</rscale>
<asrwt>0</asrwt>
<pdfrwt beam="1">  1       21 0.95738031E-04 0.77256458E+01</pdfrwt>
<pdfrwt beam="2">  1       21 0.35175668E-01 0.77256458E+01</pdfrwt>
<totfact> 0.42421134E+08</totfact>
</mgrwt>
</event>
<event>
 4    1  0.4043737E+006  0.5865189E+01  0.7546771E-02  0.2433307E+00
         21   -1    0    0  501  502  0.00000000000E+00  0.00000000000E+00  0.48180835030E+01  0.48180835030E+01  0.00000000000E+00 0.  1.
         21   -1    0    0  502  503 -0.00000000000E+00 -0.00000000000E+00 -0.74641302101E+01  0.74641302101E+01  0.00000000000E+00 0.  1.
          5    1    1    2  501    0  0.48997669224E+00  0.34742427917E+01 -0.43020929903E-01  0.58653466168E+01  0.47000000000E+01 0.  1.
         -5    1    1    2    0  503 -0.48997669224E+00 -0.34742427917E+01 -0.26030257772E+01  0.64168670963E+01  0.47000000000E+01 0.  1.
<mgrwt>
<rscale>  2 0.58651888E+01</rscale>
<asrwt>0</asrwt>
<pdfrwt beam="1">  1       21 0.74124362E-03 0.58651888E+01</pdfrwt>
<pdfrwt beam="2">  1       21 0.11483277E-02 0.58651888E+01</pdfrwt>
<totfact> 0.38738370E+09</totfact>
</mgrwt>
</event>
<event>
 4    1  0.4043737E+006  0.6836803E+01  0.7546771E-02  0.2317768E+00
         21   -1    0    0  501  502  0.00000000000E+00  0.00000000000E+00  0.44910366702E+01  0.44910366702E+01  0.00000000000E+00 0. -1.
         21   -1    0    0  502  503 -0.00000000000E+00 -0.00000000000E+00 -0.14195577639E+02  0.14195577639E+02  0.00000000000E+00 0. -1.
          5    1    1    2  501    0  0.18293948223E+01 -0.46157552128E+01 -0.25958035847E-01  0.68368527423E+01  0.47000000000E+01 0. -1.
         -5    1    1    2    0  503 -0.18293948223E+01  0.46157552128E+01 -0.96785829328E+01  0.11849761567E+02  0.47000000000E+01 0. -1.
<mgrwt>
<rscale>  2 0.68368035E+01</rscale>
<asrwt>0</asrwt>
<pdfrwt beam="1">  1       21 0.69092872E-03 0.68368035E+01</pdfrwt>
<pdfrwt beam="2">  1       21 0.21839350E-02 0.68368035E+01</pdfrwt>
<totfact> 0.19403879E+09</totfact>
</mgrwt>
</event>
<event>
 4    1  0.4043737E+006  0.7832698E+01  0.7546771E-02  0.2224424E+00
         21   -1    0    0  503  502  0.00000000000E+00  0.00000000000E+00  0.69859053113E+01  0.69859053113E+01  0.00000000000E+00 0.  1.
         21   -1    0    0  501  503 -0.00000000000E+00 -0.00000000000E+00 -0.22373172138E+02  0.22373172138E+02  0.00000000000E+00 0. -1.
          5    1    1    2  501    0 -0.41385485082E+01  0.47046338043E+01 -0.19134921676E+02  0.20675985842E+02  0.47000000000E+01 0. -1.
         -5    1    1    2    0  502  0.41385485082E+01 -0.47046338043E+01  0.37476548495E+01  0.86830916071E+01  0.47000000000E+01 0.  1.
<mgrwt>
<rscale>  2 0.78326983E+01</rscale>
<asrwt>0</asrwt>
<pdfrwt beam="1">  1       21 0.10747547E-02 0.78326983E+01</pdfrwt>
<pdfrwt beam="2">  1       21 0.34420264E-02 0.78326983E+01</pdfrwt>
<totfact> 0.58509756E+08</totfact>
</mgrwt>
</event>
<event>
 4    1  0.4043737E+006  0.5262840E+01  0.7546771E-02  0.2522537E+00
         21   -1    0    0  503  502  0.00000000000E+00  0.00000000000E+00  0.20518380347E+02  0.20518380347E+02  0.00000000000E+00 0.  1.
         21   -1    0    0  501  503 -0.00000000000E+00 -0.00000000000E+00 -0.16555234504E+01  0.16555234504E+01  0.00000000000E+00 0. -1.
          5    1    1    2  501    0  0.31539232333E+00 -0.23469153856E+01  0.46676951335E+01  0.70345477470E+01  0.47000000000E+01 0. -1.
         -5    1    1    2    0  502 -0.31539232333E+00  0.23469153856E+01  0.14195161763E+02  0.15139356050E+02  0.47000000000E+01 0. -1.
<mgrwt>
<rscale>  2 0.52628399E+01</rscale>
<asrwt>0</asrwt>
<pdfrwt beam="1">  1       21 0.31566737E-02 0.52628399E+01</pdfrwt>
<pdfrwt beam="2">  1       21 0.25469593E-03 0.52628399E+01</pdfrwt>
<totfact> 0.35978813E+09</totfact>
</mgrwt>
</event>
<event>
 4    1  0.4043737E+006  0.1228604E+02  0.7546771E-02  0.1964301E+00
         21   -1    0    0  501  502  0.00000000000E+00  0.00000000000E+00  0.40442429064E+02  0.40442429064E+02  0.00000000000E+00 0.  1.
         21   -1    0    0  502  503 -0.00000000000E+00 -0.00000000000E+00 -0.12893495167E+02  0.12893495167E+02  0.00000000000E+00 0. -1.
          5    1    1    2  501    0  0.10092513257E+02 -0.51959515731E+01  0.36253547272E+02  0.38278798654E+02  0.47000000000E+01 0.  1.
         -5    1    1    2    0  503 -0.10092513257E+02  0.51959515731E+01 -0.87046133751E+01  0.15057125576E+02  0.47000000000E+01 0. -1.
<mgrwt>
<rscale>  2 0.12286038E+02</rscale>
<asrwt>0</asrwt>
<pdfrwt beam="1">  1       21 0.62219121E-02 0.12286038E+02</pdfrwt>
<pdfrwt beam="2">  1       21 0.19836147E-02 0.12286038E+02</pdfrwt>
<totfact> 0.12255811E+08</totfact>
</mgrwt>
</event>
<event>
 4    1  0.4043737E+006  0.4705600E+01  0.7546771E-02  0.2622189E+00
         21   -1    0    0  501  502  0.00000000000E+00  0.00000000000E+00  0.99199443719E+01  0.99199443719E+01  0.00000000000E+00 0.  1.
         21   -1    0    0  502  503 -0.00000000000E+00 -0.00000000000E+00 -0.40308018535E+01  0.40308018535E+01  0.00000000000E+00 0.  1.
          5    1    1    2  501    0  0.21298057719E+00  0.85496680142E-01  0.76041525920E+01  0.89423602618E+01  0.47000000000E+01 0.  1.
         -5    1    1    2    0  503 -0.21298057719E+00 -0.85496680142E-01 -0.17150100736E+01  0.50083859637E+01  0.47000000000E+01 0.  1.
<mgrwt>
<rscale>  2 0.47055999E+01</rscale>
<asrwt>0</asrwt>
<pdfrwt beam="1">  1       21 0.15261453E-02 0.47055999E+01</pdfrwt>
<pdfrwt beam="2">  1       21 0.62012337E-03 0.47055999E+01</pdfrwt>
<totfact> 0.26714647E+09</totfact>
</mgrwt>
</event>
<event>
 4    1  0.4043737E+006  0.4767638E+01  0.7546771E-02  0.2610102E+00
         21   -1    0    0  501  502  0.00000000000E+00  0.00000000000E+00  0.54061753646E+02  0.54061753646E+02  0.00000000000E+00 0. -1.
         21   -1    0    0  502  503 -0.00000000000E+00 -0.00000000000E+00 -0.46172789186E+00  0.46172789186E+00  0.00000000000E+00 0. -1.
          5    1    1    2  501    0 -0.22239300278E+00 -0.76870787410E+00  0.34950976529E+02  0.35274652808E+02  0.47000000000E+01 0.  1.
         -5    1    1    2    0  503  0.22239300278E+00  0.76870787410E+00  0.18649049226E+02  0.19248828730E+02  0.47000000000E+01 0.  1.
<mgrwt>
<rscale>  2 0.47676378E+01</rscale>
<asrwt>0</asrwt>
<pdfrwt beam="1">  1       21 0.83171878E-02 0.47676378E+01</pdfrwt>
<pdfrwt beam="2">  1       21 0.71035103E-04 0.47676378E+01</pdfrwt>
<totfact> 0.43323859E+09</totfact>
</mgrwt>
</event>
<event>
 4    1  0.4043737E+006  0.7561247E+01  0.7546771E-02  0.2247875E+00
         21   -1    0    0  501  502  0.00000000000E+00  0.00000000000E+00  0.40994114538E+02  0.40994114538E+02  0.00000000000E+00 0. -1.
         21   -1    0    0  502  503 -0.00000000000E+00 -0.00000000000E+00 -0.14019634245E+01  0.14019634245E+01  0.00000000000E+00 0.  1.
          5    1    1    2  501    0 -0.54128020478E+01  0.24050000697E+01  0.21327095514E+02  0.22627802686E+02  0.47000000000E+01 0.  1.
         -5    1    1    2    0  503  0.54128020478E+01 -0.24050000697E+01  0.18265055599E+02  0.19768275276E+02  0.47000000000E+01 0.  1.
<mgrwt>
<rscale>  2 0.75612467E+01</rscale>
<asrwt>0</asrwt>
<pdfrwt beam="1">  1       21 0.63067859E-02 0.75612467E+01</pdfrwt>
<pdfrwt beam="2">  1       21 0.21568671E-03 0.75612467E+01</pdfrwt>
<totfact> 0.22027536E+09</totfact>
</mgrwt>
</event>
<event>
 4    1  0.4043737E+006  0.6243467E+01  0.7546771E-02  0.2384774E+00
         21   -1    0    0  501  502  0.00000000000E+00  0.00000000000E+00  0.24358434275E+01  0.24358434275E+01  0.00000000000E+00 0. -1.
         21   -1    0    0  502  503 -0.00000000000E+00 -0.00000000000E+00 -0.68467260204E+02  0.68467260204E+02  0.00000000000E+00 0. -1.
          5    1    1    2  501    0 -0.18568183386E+01  0.36664834760E+01 -0.19825892974E+01  0.65506897152E+01  0.47000000000E+01 0. -1.
         -5    1    1    2    0  503  0.18568183386E+01 -0.36664834760E+01 -0.64048827479E+02  0.64352413916E+02  0.47000000000E+01 0. -1.
<mgrwt>
<rscale>  2 0.62434666E+01</rscale>
<asrwt>0</asrwt>
<pdfrwt beam="1">  1       21 0.37474515E-03 0.62434666E+01</pdfrwt>
<pdfrwt beam="2">  1       21 0.10533424E-01 0.62434666E+01</pdfrwt>
<totfact> 0.40722458E+08</totfact>
</mgrwt>
</event>
<event>
 4    1  0.4043737E+006  0.5305557E+01  0.7546771E-02  0.2515645E+00
         21   -1    0    0  503  502  0.00000000000E+00  0.00000000000E+00  0.12453016619E+01  0.12453016619E+01  0.00000000000E+00 0. -1.
         21   -1    0    0  501  503 -0.00000000000E+00 -0.00000000000E+00 -0.23309429672E+02  0.23309429672E+02  0.00000000000E+00 0. -1.
          5    1    1    2  501    0  0.22297748175E+01 -0.10426097826E+01 -0.88963968640E+01  0.10358320716E+02  0.47000000000E+01 0. -1.
         -5    1    1    2    0  502 -0.22297748175E+01  0.10426097826E+01 -0.13167731146E+02  0.14196410618E+02  0.47000000000E+01 0. -1.
<mgrwt>
<rscale>  2 0.53055566E+01</rscale>
<asrwt>0</asrwt>
<pdfrwt beam="1">  1       21 0.19158486E-03 0.53055566E+01</pdfrwt>
<pdfrwt beam="2">  1       21 0.35860663E-02 0.53055566E+01</pdfrwt>
<totfact> 0.44339604E+09</totfact>
</mgrwt>
</event>
<event>
 4    1  0.4043737E+006  0.8917846E+01  0.7546771E-02  0.2142368E+00
         21   -1    0    0  501  502  0.00000000000E+00  0.00000000000E+00  0.58047214713E+02  0.58047214713E+02  0.00000000000E+00 0. -1.
         21   -1    0    0  502  503 -0.00000000000E+00 -0.00000000000E+00 -0.27863974181E+01  0.27863974181E+01  0.00000000000E+00 0.  1.
          5    1    1    2  501    0  0.74260455647E+01 -0.15138789743E+01  0.49316232788E+02  0.50116053303E+02  0.47000000000E+01 0. -1.
         -5    1    1    2    0  503 -0.74260455647E+01  0.15138789743E+01  0.59445845073E+01  0.10717558828E+02  0.47000000000E+01 0.  1.
<mgrwt>
<rscale>  2 0.89178463E+01</rscale>
<asrwt>0</asrwt>
<pdfrwt beam="1">  1       21 0.89303398E-02 0.89178463E+01</pdfrwt>
<pdfrwt beam="2">  1       21 0.42867657E-03 0.89178463E+01</pdfrwt>
<totfact> 0.54908090E+08</totfact>
</mgrwt>
</event>
<event>
 4    1  0.4043737E+006  0.4758248E+01  0.7546771E-02  0.2611914E+00
         21   -1    0    0  503  502  0.00000000000E+00  0.00000000000E+00  0.21110873681E+02  0.21110873681E+02  0.00000000000E+00 0.  1.
         21   -1    0    0  501  503 -0.00000000000E+00 -0.00000000000E+00 -0.37028288061E+01  0.37028288061E+01  0.00000000000E+00 0.  1.
          5    1    1    2  501    0  0.69589278840E+00 -0.25817768207E+00 -0.17528471853E+01  0.50708377753E+01  0.47000000000E+01 0. -1.
         -5    1    1    2    0  502 -0.69589278840E+00  0.25817768207E+00  0.19160892061E+02  0.19742864712E+02  0.47000000000E+01 0. -1.
<mgrwt>
<rscale>  2 0.47582478E+01</rscale>
<asrwt>0</asrwt>
<pdfrwt beam="1">  1       21 0.32478267E-02 0.47582478E+01</pdfrwt>
<pdfrwt beam="2">  1       21 0.56966598E-03 0.47582478E+01</pdfrwt>
<totfact> 0.10413709E+09</totfact>
</mgrwt>
</event>
<event>
 4    1  0.4043737E+006  0.1047480E+02  0.7546771E-02  0.2048932E+00
         21   -1    0    0  501  502  0.00000000000E+00  0.00000000000E+00  0.10313849387E+02  0.10313849387E+02  0.00000000000E+00 0.  1.
         21   -1    0    0  502  503 -0.00000000000E+00 -0.00000000000E+00 -0.11561537769E+02  0.11561537769E+02  0.00000000000E+00 0.  1.
          5    1    1    2  501    0  0.86084857017E+01 -0.36776934072E+01  0.24670429567E+01  0.10761401202E+02  0.47000000000E+01 0.  1.
         -5    1    1    2    0  503 -0.86084857017E+01  0.36776934072E+01 -0.37147313390E+01  0.11113985954E+02  0.47000000000E+01 0.  1.
<mgrwt>
<rscale>  2 0.10474801E+02</rscale>
<asrwt>0</asrwt>
<pdfrwt beam="1">  1       21 0.15867461E-02 0.10474801E+02</pdfrwt>
<pdfrwt beam="2">  1       21 0.17786981E-02 0.10474801E+02</pdfrwt>
<totfact> 0.10542574E+09</totfact>
</mgrwt>
</event>
<event>
 4    1  0.4043737E+006  0.5151798E+01  0.7546771E-02  0.2540910E+00
         21   -1    0    0  501  502  0.00000000000E+00  0.00000000000E+00  0.16975066674E+01  0.16975066674E+01  0.00000000000E+00 0.  1.
         21   -1    0    0  502  503 -0.00000000000E+00 -0.00000000000E+00 -0.15894793987E+02  0.15894793987E+02  0.00000000000E+00 0.  1.
          5    1    1    2  501    0  0.16164143885E+01 -0.13558109678E+01 -0.59747315231E+01  0.78891340227E+01  0.47000000000E+01 0.  1.
         -5    1    1    2    0  503 -0.16164143885E+01  0.13558109678E+01 -0.82225557968E+01  0.97031666319E+01  0.47000000000E+01 0.  1.
<mgrwt>
<rscale>  2 0.51517976E+01</rscale>
<asrwt>0</asrwt>
<pdfrwt beam="1">  1       21 0.26115487E-03 0.51517976E+01</pdfrwt>
<pdfrwt beam="2">  1       21 0.24453530E-02 0.51517976E+01</pdfrwt>
<totfact> 0.49099266E+09</totfact>
</mgrwt>
</event>
<event>
 4    1  0.4043737E+006  0.5271926E+01  0.7546771E-02  0.2521063E+00
         21   -1    0    0  501  502  0.00000000000E+00  0.00000000000E+00  0.11310944012E+02  0.11310944012E+02  0.00000000000E+00 0. -1.
         21   -1    0    0  502  503 -0.00000000000E+00 -0.00000000000E+00 -0.36383187396E+01  0.36383187396E+01  0.00000000000E+00 0. -1.
          5    1    1    2  501    0 -0.17921740001E+01 -0.15783904476E+01  0.80951098499E+01  0.96604351628E+01  0.47000000000E+01 0. -1.
         -5    1    1    2    0  503  0.17921740001E+01  0.15783904476E+01 -0.42248457708E+00  0.52888275893E+01  0.47000000000E+01 0. -1.
<mgrwt>
<rscale>  2 0.52719260E+01</rscale>
<asrwt>0</asrwt>
<pdfrwt beam="1">  1       21 0.17401452E-02 0.52719260E+01</pdfrwt>
<pdfrwt beam="2">  1       21 0.55974135E-03 0.52719260E+01</pdfrwt>
<totfact> 0.28732237E+09</totfact>
</mgrwt>
</event>
<event>
 4    1  0.4043737E+006  0.5575287E+01  0.7546771E-02  0.2474212E+00
         21   -1    0    0  503  502  0.00000000000E+00  0.00000000000E+00  0.40624789275E+03  0.40624789275E+03  0.00000000000E+00 0. -1.
         21   -1    0    0  501  503 -0.00000000000E+00 -0.00000000000E+00 -0.93744361740E-01  0.93744361740E-01  0.00000000000E+00 0. -1.
          5    1    1    2  501    0 -0.12494170045E+01 -0.27263129634E+01  0.11597458766E+03  0.11610852169E+03  0.47000000000E+01 0. -1.
         -5    1    1    2    0  502  0.12494170045E+01  0.27263129634E+01  0.29017956073E+03  0.29023311542E+03  0.47000000000E+01 0. -1.
<mgrwt>
<rscale>  2 0.55752870E+01</rscale>
<asrwt>0</asrwt>
<pdfrwt beam="1">  1       21 0.62498266E-01 0.55752870E+01</pdfrwt>
<pdfrwt beam="2">  1       21 0.14422535E-04 0.55752870E+01</pdfrwt>
<totfact> 0.15332883E+09</totfact>
</mgrwt>
</event>
<event>
 4    1  0.4043737E+006  0.4948639E+01  0.7546771E-02  0.2576347E+00
         21   -1    0    0  503  502  0.00000000000E+00  0.00000000000E+00  0.82056478386E+00  0.82056478386E+00  0.00000000000E+00 0.  1.
         21   -1    0    0  501  503 -0.00000000000E+00 -0.00000000000E+00 -0.29846348162E+02  0.29846348162E+02  0.00000000000E+00 0.  1.
          5    1    1    2  501    0 -0.13897533925E+01  0.68382368699E+00 -0.14380241571E+02  0.15207905081E+02  0.47000000000E+01 0.  1.
         -5    1    1    2    0  502  0.13897533925E+01 -0.68382368699E+00 -0.14645541808E+02  0.15459007865E+02  0.47000000000E+01 0.  1.
<mgrwt>
<rscale>  2 0.49486391E+01</rscale>
<asrwt>0</asrwt>
<pdfrwt beam="1">  1       21 0.12624075E-03 0.49486391E+01</pdfrwt>
<pdfrwt beam="2">  1       21 0.45917453E-02 0.49486391E+01</pdfrwt>
<totfact> 0.50407603E+09</totfact>
</mgrwt>
</event>
<event>
 4    1  0.4043737E+006  0.7354943E+01  0.7546771E-02  0.2266631E+00
         21   -1    0    0  501  502  0.00000000000E+00  0.00000000000E+00  0.11465891282E+02  0.11465891282E+02  0.00000000000E+00 0. -1.
         21   -1    0    0  502  503 -0.00000000000E+00 -0.00000000000E+00 -0.10388227416E+02  0.10388227416E+02  0.00000000000E+00 0.  1.
          5    1    1    2  501    0 -0.42869775564E+01  0.36914787794E+01  0.86118470434E+01  0.11325153493E+02  0.47000000000E+01 0. -1.
         -5    1    1    2    0  503  0.42869775564E+01 -0.36914787794E+01 -0.75341831767E+01  0.10528965205E+02  0.47000000000E+01 0.  1.
<mgrwt>
<rscale>  2 0.73549434E+01</rscale>
<asrwt>0</asrwt>
<pdfrwt beam="1">  1       21 0.17639833E-02 0.73549434E+01</pdfrwt>
<pdfrwt beam="2">  1       21 0.15981888E-02 0.73549434E+01</pdfrwt>
<totfact> 0.84372101E+08</totfact>
</mgrwt>
</event>
<event>
 4    1  0.4043737E+006  0.6339587E+01  0.7546771E-02  0.2373216E+00
         21   -1    0    0  501  502  0.00000000000E+00  0.00000000000E+00  0.15133060593E+03  0.15133060593E+03  0.00000000000E+00 0.  1.
         21   -1    0    0  502  503 -0.00000000000E+00 -0.00000000000E+00 -0.55442689926E+00  0.55442689926E+00  0.00000000000E+00 0.  1.
          5    1    1    2  501    0  0.41251143765E+01  0.10410542612E+01  0.13020275779E+03  0.13035700402E+03  0.47000000000E+01 0.  1.
         -5    1    1    2    0  503 -0.41251143765E+01 -0.10410542612E+01  0.20573421242E+02  0.21528028804E+02  0.47000000000E+01 0.  1.
<mgrwt>
<rscale>  2 0.63395869E+01</rscale>
<asrwt>0</asrwt>
<pdfrwt beam="1">  1       21 0.23281599E-01 0.63395869E+01</pdfrwt>
<pdfrwt beam="2">  1       21 0.85296567E-04 0.63395869E+01</pdfrwt>
<totfact> 0.87629408E+08</totfact>
</mgrwt>
</event>
<event>
 4    1  0.4043737E+006  0.5384284E+01  0.7546771E-02  0.2503187E+00
         21   -1    0    0  503  502  0.00000000000E+00  0.00000000000E+00  0.42837289398E+01  0.42837289398E+01  0.00000000000E+00 0.  1.
         21   -1    0    0  501  503 -0.00000000000E+00 -0.00000000000E+00 -0.95536532677E+02  0.95536532677E+02  0.00000000000E+00 0. -1.
          5    1    1    2  501    0 -0.14607694197E+01  0.21832688471E+01 -0.93736306970E+02  0.93890818265E+02  0.47000000000E+01 0. -1.
         -5    1    1    2    0  502  0.14607694197E+01 -0.21832688471E+01  0.24835032325E+01  0.59294433518E+01  0.47000000000E+01 0.  1.
<mgrwt>
<rscale>  2 0.53842836E+01</rscale>
<asrwt>0</asrwt>
<pdfrwt beam="1">  1       21 0.65903536E-03 0.53842836E+01</pdfrwt>
<pdfrwt beam="2">  1       21 0.14697925E-01 0.53842836E+01</pdfrwt>
<totfact> 0.99994718E+07</totfact>
</mgrwt>
</event>
<event>
 4    1  0.4043737E+006  0.7568684E+01  0.7546771E-02  0.2247214E+00
         21   -1    0    0  503  502  0.00000000000E+00  0.00000000000E+00  0.68809805560E-01  0.68809805560E-01  0.00000000000E+00 0. -1.
         21   -1    0    0  501  503 -0.00000000000E+00 -0.00000000000E+00 -0.10001684187E+04  0.10001684187E+04  0.00000000000E+00 0. -1.
          5    1    1    2  501    0  0.47892124068E+01 -0.35012039736E+01 -0.70481051137E+03  0.70485114877E+03  0.47000000000E+01 0. -1.
         -5    1    1    2    0  502 -0.47892124068E+01  0.35012039736E+01 -0.29528909750E+03  0.29538607971E+03  0.47000000000E+01 0. -1.
<mgrwt>
<rscale>  2 0.75686845E+01</rscale>
<asrwt>0</asrwt>
<pdfrwt beam="1">  1       21 0.10586593E-04 0.75686845E+01</pdfrwt>
<pdfrwt beam="2">  1       21 0.15386525E+00 0.75686845E+01</pdfrwt>
<totfact> 0.45442360E+08</totfact>
</mgrwt>
</event>
<event>
 4    1  0.4043737E+006  0.6220857E+01  0.7546771E-02  0.2387536E+00
         21   -1    0    0  503  502  0.00000000000E+00  0.00000000000E+00  0.19539934801E+03  0.19539934801E+03  0.00000000000E+00 0. -1.
         21   -1    0    0  501  503 -0.00000000000E+00 -0.00000000000E+00 -0.28480258288E+00  0.28480258288E+00  0.00000000000E+00 0. -1.
          5    1    1    2  501    0  0.11981170639E+01  0.38953276607E+01  0.43557483170E+02  0.43999470476E+02  0.47000000000E+01 0. -1.
         -5    1    1    2    0  502 -0.11981170639E+01 -0.38953276607E+01  0.15155706225E+03  0.15168468011E+03  0.47000000000E+01 0. -1.
<mgrwt>
<rscale>  2 0.62208570E+01</rscale>
<asrwt>0</asrwt>
<pdfrwt beam="1">  1       21 0.30061331E-01 0.62208570E+01</pdfrwt>
<pdfrwt beam="2">  1       21 0.43815938E-04 0.62208570E+01</pdfrwt>
<totfact> 0.13793517E+09</totfact>
</mgrwt>
</event>
<event>
 4    1  0.4043737E+006  0.8304073E+01  0.7546771E-02  0.2186670E+00
         21   -1    0    0  501  502  0.00000000000E+00  0.00000000000E+00  0.86810404051E+02  0.86810404051E+02  0.00000000000E+00 0.  1.
         21   -1    0    0  502  503 -0.00000000000E+00 -0.00000000000E+00 -0.10490090043E+01  0.10490090043E+01  0.00000000000E+00 0. -1.
          5    1    1    2  501    0  0.27672827366E+01 -0.62617714186E+01  0.64525332659E+02  0.65057483734E+02  0.47000000000E+01 0.  1.
         -5    1    1    2    0  503 -0.27672827366E+01  0.62617714186E+01  0.21236062388E+02  0.22801929321E+02  0.47000000000E+01 0. -1.
<mgrwt>
<rscale>  2 0.83040734E+01</rscale>
<asrwt>0</asrwt>
<pdfrwt beam="1">  1       21 0.13355441E-01 0.83040734E+01</pdfrwt>
<pdfrwt beam="2">  1       21 0.16138607E-03 0.83040734E+01</pdfrwt>
<totfact> 0.10880592E+09</totfact>
</mgrwt>
</event>
<event>
 4    1  0.4043737E+006  0.6014096E+01  0.7546771E-02  0.2413593E+00
         21   -1    0    0  501  502  0.00000000000E+00  0.00000000000E+00  0.89339411523E+00  0.89339411523E+00  0.00000000000E+00 0.  1.
         21   -1    0    0  502  503 -0.00000000000E+00 -0.00000000000E+00 -0.40576667353E+02  0.40576667353E+02  0.00000000000E+00 0.  1.
          5    1    1    2  501    0  0.19894881611E+01  0.31813972927E+01 -0.18857850825E+02  0.19793632552E+02  0.47000000000E+01 0. -1.
         -5    1    1    2    0  503 -0.19894881611E+01 -0.31813972927E+01 -0.20825422413E+02  0.21676428916E+02  0.47000000000E+01 0. -1.
<mgrwt>
<rscale>  2 0.60140961E+01</rscale>
<asrwt>0</asrwt>
<pdfrwt beam="1">  1       21 0.13744530E-03 0.60140961E+01</pdfrwt>
<pdfrwt beam="2">  1       21 0.62425617E-02 0.60140961E+01</pdfrwt>
<totfact> 0.34474677E+09</totfact>
</mgrwt>
</event>
<event>
 4    1  0.4043737E+006  0.4944717E+01  0.7546771E-02  0.2577055E+00
         21   -1    0    0  503  502  0.00000000000E+00  0.00000000000E+00  0.60503028192E+00  0.60503028192E+00  0.00000000000E+00 0. -1.
         21   -1    0    0  501  503 -0.00000000000E+00 -0.00000000000E+00 -0.11658818873E+03  0.11658818873E+03  0.00000000000E+00 0. -1.
          5    1    1    2  501    0 -0.15347795696E+01  0.68393654956E-01 -0.10535641595E+03  0.10547238789E+03  0.47000000000E+01 0. -1.
         -5    1    1    2    0  502  0.15347795696E+01 -0.68393654956E-01 -0.10626742508E+02  0.11720831129E+02  0.47000000000E+01 0. -1.
<mgrwt>
<rscale>  2 0.49447170E+01</rscale>
<asrwt>0</asrwt>
<pdfrwt beam="1">  1       21 0.93081583E-04 0.49447170E+01</pdfrwt>
<pdfrwt beam="2">  1       21 0.17936644E-01 0.49447170E+01</pdfrwt>
<totfact> 0.96902636E+08</totfact>
</mgrwt>
</event>
<event>
 4    1  0.4043737E+006  0.5288047E+01  0.7546771E-02  0.2518458E+00
         21   -1    0    0  503  502  0.00000000000E+00  0.00000000000E+00  0.61622943160E+00  0.61622943160E+00  0.00000000000E+00 0.  1.
         21   -1    0    0  501  503 -0.00000000000E+00 -0.00000000000E+00 -0.51402097682E+02  0.51402097682E+02  0.00000000000E+00 0.  1.
          5    1    1    2  501    0  0.23673783782E+01  0.51861195083E+00 -0.34296653458E+02  0.34701929012E+02  0.47000000000E+01 0.  1.
         -5    1    1    2    0  502 -0.23673783782E+01 -0.51861195083E+00 -0.16489214793E+02  0.17316398102E+02  0.47000000000E+01 0.  1.
<mgrwt>
<rscale>  2 0.52880468E+01</rscale>
<asrwt>0</asrwt>
<pdfrwt beam="1">  1       21 0.94804525E-04 0.52880468E+01</pdfrwt>
<pdfrwt beam="2">  1       21 0.79080152E-02 0.52880468E+01</pdfrwt>
<totfact> 0.35386394E+09</totfact>
</mgrwt>
</event>
<event>
 4    1  0.4043737E+006  0.6138132E+01  0.7546771E-02  0.2397785E+00
         21   -1    0    0  501  502  0.00000000000E+00  0.00000000000E+00  0.22529444363E+02  0.22529444363E+02  0.00000000000E+00 0.  1.
         21   -1    0    0  502  503 -0.00000000000E+00 -0.00000000000E+00 -0.24353326081E+01  0.24353326081E+01  0.00000000000E+00 0. -1.
          5    1    1    2  501    0  0.21577499549E+01 -0.33061737749E+01  0.30602044051E+01  0.68586821547E+01  0.47000000000E+01 0. -1.
         -5    1    1    2    0  503 -0.21577499549E+01  0.33061737749E+01  0.17033907350E+02  0.18106094816E+02  0.47000000000E+01 0.  1.
<mgrwt>
<rscale>  2 0.61381324E+01</rscale>
<asrwt>0</asrwt>
<pdfrwt beam="1">  1       21 0.34660682E-02 0.61381324E+01</pdfrwt>
<pdfrwt beam="2">  1       21 0.37466657E-03 0.61381324E+01</pdfrwt>
<totfact> 0.21295657E+09</totfact>
</mgrwt>
</event>
<event>
 4    1  0.4043737E+006  0.6477000E+01  0.7546771E-02  0.2357189E+00
         21   -1    0    0  501  502  0.00000000000E+00  0.00000000000E+00  0.39562987900E+03  0.39562987900E+03  0.00000000000E+00 0. -1.
         21   -1    0    0  502  503 -0.00000000000E+00 -0.00000000000E+00 -0.10604124303E+00  0.10604124303E+00  0.00000000000E+00 0.  1.
          5    1    1    2  501    0 -0.41651935734E+01 -0.15851468153E+01  0.19896703520E+03  0.19907243059E+03  0.47000000000E+01 0.  1.
         -5    1    1    2    0  503  0.41651935734E+01  0.15851468153E+01  0.19655680256E+03  0.19666348965E+03  0.47000000000E+01 0.  1.
<mgrwt>
<rscale>  2 0.64769999E+01</rscale>
<asrwt>0</asrwt>
<pdfrwt beam="1">  1       21 0.60864953E-01 0.64769999E+01</pdfrwt>
<pdfrwt beam="2">  1       21 0.16314354E-04 0.64769999E+01</pdfrwt>
<totfact> 0.15255704E+09</totfact>
</mgrwt>
</event>
<event>
 4    1  0.4043737E+006  0.4959305E+01  0.7546771E-02  0.2574424E+00
         21   -1    0    0  503  502  0.00000000000E+00  0.00000000000E+00  0.69720503270E+00  0.69720503270E+00  0.00000000000E+00 0. -1.
         21   -1    0    0  501  503 -0.00000000000E+00 -0.00000000000E+00 -0.68234732925E+02  0.68234732925E+02  0.00000000000E+00 0. -1.
          5    1    1    2  501    0 -0.44414749433E+00  0.15190243106E+01 -0.57722434964E+02  0.57935086088E+02  0.47000000000E+01 0. -1.
         -5    1    1    2    0  502  0.44414749433E+00 -0.15190243106E+01 -0.98150929285E+01  0.10996851870E+02  0.47000000000E+01 0. -1.
<mgrwt>
<rscale>  2 0.49593046E+01</rscale>
<asrwt>0</asrwt>
<pdfrwt beam="1">  1       21 0.10726229E-03 0.49593046E+01</pdfrwt>
<pdfrwt beam="2">  1       21 0.10497653E-01 0.49593046E+01</pdfrwt>
<totfact> 0.18402196E+09</totfact>
</mgrwt>
</event>
<event>
 4    1  0.4043737E+006  0.9195052E+01  0.7546771E-02  0.2123917E+00
         21   -1    0    0  503  502  0.00000000000E+00  0.00000000000E+00  0.32049358335E+03  0.32049358335E+03  0.00000000000E+00 0.  1.
         21   -1    0    0  501  503 -0.00000000000E+00 -0.00000000000E+00 -0.11132907541E+01  0.11132907541E+01  0.00000000000E+00 0. -1.
          5    1    1    2  501    0 -0.73460349417E+01 -0.29145760827E+01  0.19225140869E+02  0.21310913274E+02  0.47000000000E+01 0. -1.
         -5    1    1    2    0  502  0.73460349417E+01  0.29145760827E+01  0.30015515173E+03  0.30029596083E+03  0.47000000000E+01 0.  1.
<mgrwt>
<rscale>  2 0.91950521E+01</rscale>
<asrwt>0</asrwt>
<pdfrwt beam="1">  1       21 0.49306631E-01 0.91950521E+01</pdfrwt>
<pdfrwt beam="2">  1       21 0.17127576E-03 0.91950521E+01</pdfrwt>
<totfact> 0.11381346E+08</totfact>
</mgrwt>
</event>
<event>
 4    1  0.4043737E+006  0.1242735E+02  0.7546771E-02  0.1958510E+00
         21   -1    0    0  501  502  0.00000000000E+00  0.00000000000E+00  0.35374258545E+03  0.35374258545E+03  0.00000000000E+00 0. -1.
         21   -1    0    0  502  503 -0.00000000000E+00 -0.00000000000E+00 -0.65710874830E+00  0.65710874830E+00  0.00000000000E+00 0.  1.
          5    1    1    2  501    0 -0.10407445516E+02  0.49024702605E+01  0.27919563381E+03  0.27947207567E+03  0.47000000000E+01 0. -1.
         -5    1    1    2    0  503  0.10407445516E+02 -0.49024702605E+01  0.73889842892E+02  0.74927618535E+02  0.47000000000E+01 0.  1.
<mgrwt>
<rscale>  2 0.12427354E+02</rscale>
<asrwt>0</asrwt>
<pdfrwt beam="1">  1       21 0.54421784E-01 0.12427354E+02</pdfrwt>
<pdfrwt beam="2">  1       21 0.10109394E-03 0.12427354E+02</pdfrwt>
<totfact> 0.22373401E+08</totfact>
</mgrwt>
</event>
<event>
 4    1  0.4043737E+006  0.5538641E+01  0.7546771E-02  0.2479640E+00
         21   -1    0    0  501  502  0.00000000000E+00  0.00000000000E+00  0.44535630448E+02  0.44535630448E+02  0.00000000000E+00 0. -1.
         21   -1    0    0  502  503 -0.00000000000E+00 -0.00000000000E+00 -0.70613028646E+00  0.70613028646E+00  0.00000000000E+00 0.  1.
          5    1    1    2  501    0  0.13356833519E+01 -0.26081586870E+01  0.25457638927E+02  0.26053174883E+02  0.47000000000E+01 0.  1.
         -5    1    1    2    0  503 -0.13356833519E+01  0.26081586870E+01  0.18371861235E+02  0.19188585852E+02  0.47000000000E+01 0. -1.
<mgrwt>
<rscale>  2 0.55386408E+01</rscale>
<asrwt>0</asrwt>
<pdfrwt beam="1">  1       21 0.68516333E-02 0.55386408E+01</pdfrwt>
<pdfrwt beam="2">  1       21 0.10863546E-03 0.55386408E+01</pdfrwt>
<totfact> 0.38214484E+09</totfact>
</mgrwt>
</event>
<event>
 4    1  0.4043737E+006  0.7629507E+01  0.7546771E-02  0.2241851E+00
         21   -1    0    0  501  502  0.00000000000E+00  0.00000000000E+00  0.30585767175E+03  0.30585767175E+03  0.00000000000E+00 0. -1.
         21   -1    0    0  502  503 -0.00000000000E+00 -0.00000000000E+00 -0.22675397063E+00  0.22675397063E+00  0.00000000000E+00 0. -1.
          5    1    1    2  501    0  0.24629160017E+01 -0.54821000721E+01  0.21416557679E+03  0.21430143177E+03  0.47000000000E+01 0. -1.
         -5    1    1    2    0  503 -0.24629160017E+01  0.54821000721E+01  0.91465340988E+02  0.91782993950E+02  0.47000000000E+01 0. -1.
<mgrwt>
<rscale>  2 0.76295070E+01</rscale>
<asrwt>0</asrwt>
<pdfrwt beam="1">  1       21 0.47054696E-01 0.76295070E+01</pdfrwt>
<pdfrwt beam="2">  1       21 0.34885471E-04 0.76295070E+01</pdfrwt>
<totfact> 0.98420744E+08</totfact>
</mgrwt>
</event>
<event>
 4    1  0.4043737E+006  0.6207004E+01  0.7546771E-02  0.2389236E+00
         21   -1    0    0  501  502  0.00000000000E+00  0.00000000000E+00  0.26254125414E+02  0.26254125414E+02  0.00000000000E+00 0. -1.
         21   -1    0    0  502  503 -0.00000000000E+00 -0.00000000000E+00 -0.14726027601E+01  0.14726027601E+01  0.00000000000E+00 0.  1.
          5    1    1    2  501    0  0.18331965973E+01 -0.36161150463E+01  0.11571554544E+02  0.13131175589E+02  0.47000000000E+01 0. -1.
         -5    1    1    2    0  503 -0.18331965973E+01  0.36161150463E+01  0.13209968110E+02  0.14595552585E+02  0.47000000000E+01 0.  1.
<mgrwt>
<rscale>  2 0.62070039E+01</rscale>
<asrwt>0</asrwt>
<pdfrwt beam="1">  1       21 0.40390959E-02 0.62070039E+01</pdfrwt>
<pdfrwt beam="2">  1       21 0.22655429E-03 0.62070039E+01</pdfrwt>
<totfact> 0.34297325E+09</totfact>
</mgrwt>
</event>
<event>
 4    1  0.4043737E+006  0.5493072E+01  0.7546771E-02  0.2486474E+00
         21   -1    0    0  503  502  0.00000000000E+00  0.00000000000E+00  0.80554872286E+02  0.80554872286E+02  0.00000000000E+00 0. -1.
         21   -1    0    0  501  503 -0.00000000000E+00 -0.00000000000E+00 -0.42474351687E+00  0.42474351687E+00  0.00000000000E+00 0. -1.
          5    1    1    2  501    0  0.22867834357E+00  0.28339982887E+01  0.26149589474E+02  0.26720308190E+02  0.47000000000E+01 0. -1.
         -5    1    1    2    0  502 -0.22867834357E+00 -0.28339982887E+01  0.53980539295E+02  0.54259307614E+02  0.47000000000E+01 0. -1.
<mgrwt>
<rscale>  2 0.54930720E+01</rscale>
<asrwt>0</asrwt>
<pdfrwt beam="1">  1       21 0.12393045E-01 0.54930720E+01</pdfrwt>
<pdfrwt beam="2">  1       21 0.65345220E-04 0.54930720E+01</pdfrwt>
<totfact> 0.30394988E+09</totfact>
</mgrwt>
</event>
<event>
 4    1  0.4043737E+006  0.5788833E+01  0.7546771E-02  0.2443745E+00
         21   -1    0    0  503  502  0.00000000000E+00  0.00000000000E+00  0.98105286177E+03  0.98105286177E+03  0.00000000000E+00 0. -1.
         21   -1    0    0  501  503 -0.00000000000E+00 -0.00000000000E+00 -0.18219766131E+00  0.18219766131E+00  0.00000000000E+00 0.  1.
          5    1    1    2  501    0 -0.33368184733E+01 -0.53500557567E+00  0.48192272913E+02  0.48538703701E+02  0.47000000000E+01 0.  1.
         -5    1    1    2    0  502  0.33368184733E+01  0.53500557567E+00  0.93267839119E+03  0.93269635573E+03  0.47000000000E+01 0. -1.
<mgrwt>
<rscale>  2 0.57888331E+01</rscale>
<asrwt>0</asrwt>
<pdfrwt beam="1">  1       21 0.15092698E+00 0.57888331E+01</pdfrwt>
<pdfrwt beam="2">  1       21 0.28031195E-04 0.57888331E+01</pdfrwt>
<totfact> 0.11111536E+08</totfact>
</mgrwt>
</event>
<event>
 4    1  0.4043737E+006  0.5233833E+01  0.7546771E-02  0.2527272E+00
         21   -1    0    0  501  502  0.00000000000E+00  0.00000000000E+00  0.36504886866E+00  0.36504886866E+00  0.00000000000E+00 0. -1.
         21   -1    0    0  502  503 -0.00000000000E+00 -0.00000000000E+00 -0.83172012454E+02  0.83172012454E+02  0.00000000000E+00 0. -1.
          5    1    1    2  501    0 -0.18982980874E+00 -0.22949885804E+01 -0.28342417506E+02  0.28821617547E+02  0.47000000000E+01 0. -1.
         -5    1    1    2    0  503  0.18982980874E+00  0.22949885804E+01 -0.54464546079E+02  0.54715443776E+02  0.47000000000E+01 0. -1.
<mgrwt>
<rscale>  2 0.52338330E+01</rscale>
<asrwt>0</asrwt>
<pdfrwt beam="1">  1       21 0.56161399E-04 0.52338330E+01</pdfrwt>
<pdfrwt beam="2">  1       21 0.12795686E-01 0.52338330E+01</pdfrwt>
<totfact> 0.33819011E+09</totfact>
</mgrwt>
</event>
<event>
 4    1  0.4043737E+006  0.6834518E+01  0.7546771E-02  0.2318007E+00
         21   -1    0    0  503  502  0.00000000000E+00  0.00000000000E+00  0.33782069201E+01  0.33782069201E+01  0.00000000000E+00 0. -1.
         21   -1    0    0  501  503 -0.00000000000E+00 -0.00000000000E+00 -0.14052132593E+02  0.14052132593E+02  0.00000000000E+00 0. -1.
          5    1    1    2  501    0  0.43004346422E+01 -0.24752582055E+01 -0.42339662398E+01  0.80397208544E+01  0.47000000000E+01 0. -1.
         -5    1    1    2    0  502 -0.43004346422E+01  0.24752582055E+01 -0.64399594333E+01  0.93906186590E+01  0.47000000000E+01 0. -1.
<mgrwt>
<rscale>  2 0.68345184E+01</rscale>
<asrwt>0</asrwt>
<pdfrwt beam="1">  1       21 0.51972414E-03 0.68345184E+01</pdfrwt>
<pdfrwt beam="2">  1       21 0.21618666E-02 0.68345184E+01</pdfrwt>
<totfact> 0.29373690E+09</totfact>
</mgrwt>
</event>
<event>
 4    1  0.4043737E+006  0.6233391E+01  0.7546771E-02  0.2386002E+00
         21   -1    0    0  501  502  0.00000000000E+00  0.00000000000E+00  0.38177818577E+02  0.38177818577E+02  0.00000000000E+00 0. -1.
         21   -1    0    0  502  503 -0.00000000000E+00 -0.00000000000E+00 -0.13619381217E+01  0.13619381217E+01  0.00000000000E+00 0.  1.
          5    1    1    2  501    0  0.36707983876E+01 -0.18139461978E+01  0.84692667104E+01  0.10515875628E+02  0.47000000000E+01 0.  1.
         -5    1    1    2    0  503 -0.36707983876E+01  0.18139461978E+01  0.28346613745E+02  0.29023881071E+02  0.47000000000E+01 0. -1.
<mgrwt>
<rscale>  2 0.62333909E+01</rscale>
<asrwt>0</asrwt>
<pdfrwt beam="1">  1       21 0.58735098E-02 0.62333909E+01</pdfrwt>
<pdfrwt beam="2">  1       21 0.20952897E-03 0.62333909E+01</pdfrwt>
<totfact> 0.21966730E+09</totfact>
</mgrwt>
</event>
<event>
 4    1  0.4043737E+006  0.1086819E+02  0.7546771E-02  0.2028702E+00
         21   -1    0    0  503  502  0.00000000000E+00  0.00000000000E+00  0.58085971848E+00  0.58085971848E+00  0.00000000000E+00 0.  1.
         21   -1    0    0  501  503 -0.00000000000E+00 -0.00000000000E+00 -0.32260010736E+03  0.32260010736E+03  0.00000000000E+00 0. -1.
          5    1    1    2  501    0 -0.84501691607E+01  0.49620851587E+01 -0.25925530477E+03  0.25948300657E+03  0.47000000000E+01 0. -1.
         -5    1    1    2    0  502  0.84501691607E+01 -0.49620851587E+01 -0.62763942866E+02  0.63697960501E+02  0.47000000000E+01 0.  1.
<mgrwt>
<rscale>  2 0.10868194E+02</rscale>
<asrwt>0</asrwt>
<pdfrwt beam="1">  1       21 0.89362908E-04 0.10868194E+02</pdfrwt>
<pdfrwt beam="2">  1       21 0.49630856E-01 0.10868194E+02</pdfrwt>
<totfact> 0.29850220E+08</totfact>
</mgrwt>
</event>
<event>
 4    1  0.4043737E+006  0.5257282E+01  0.7546771E-02  0.2523441E+00
         21   -1    0    0  503  502  0.00000000000E+00  0.00000000000E+00  0.93150067823E+01  0.93150067823E+01  0.00000000000E+00 0. -1.
         21   -1    0    0  501  503 -0.00000000000E+00 -0.00000000000E+00 -0.53443420138E+01  0.53443420138E+01  0.00000000000E+00 0. -1.
          5    1    1    2  501    0  0.23554985318E+01  0.25394835819E-01 -0.29031013558E+01  0.60055820462E+01  0.47000000000E+01 0. -1.
         -5    1    1    2    0  502 -0.23554985318E+01 -0.25394835819E-01  0.68737661243E+01  0.86537667499E+01  0.47000000000E+01 0. -1.
<mgrwt>
<rscale>  2 0.52572824E+01</rscale>
<asrwt>0</asrwt>
<pdfrwt beam="1">  1       21 0.14330780E-02 0.52572824E+01</pdfrwt>
<pdfrwt beam="2">  1       21 0.82220646E-03 0.52572824E+01</pdfrwt>
<totfact> 0.22120289E+09</totfact>
</mgrwt>
</event>
<event>
 4    1  0.4043737E+006  0.5654792E+01  0.7546771E-02  0.2462642E+00
         21   -1    0    0  503  502  0.00000000000E+00  0.00000000000E+00  0.86733088279E+02  0.86733088279E+02  0.00000000000E+00 0.  1.
         21   -1    0    0  501  503 -0.00000000000E+00 -0.00000000000E+00 -0.64395729881E+00  0.64395729881E+00  0.00000000000E+00 0. -1.
          5    1    1    2  501    0 -0.28471020302E+01 -0.13344206057E+01  0.14480184786E+02  0.15545173520E+02  0.47000000000E+01 0. -1.
         -5    1    1    2    0  502  0.28471020302E+01  0.13344206057E+01  0.71608946194E+02  0.71831872057E+02  0.47000000000E+01 0.  1.
<mgrwt>
<rscale>  2 0.56547916E+01</rscale>
<asrwt>0</asrwt>
<pdfrwt beam="1">  1       21 0.13343543E-01 0.56547916E+01</pdfrwt>
<pdfrwt beam="2">  1       21 0.99070422E-04 0.56547916E+01</pdfrwt>
<totfact> 0.15948219E+09</totfact>
</mgrwt>
</event>
<event>
 4    1  0.4043737E+006  0.1000485E+02  0.7546771E-02  0.2074712E+00
         21   -1    0    0  501  502  0.00000000000E+00  0.00000000000E+00  0.10315947925E+02  0.10315947925E+02  0.00000000000E+00 0. -1.
         21   -1    0    0  502  503 -0.00000000000E+00 -0.00000000000E+00 -0.44173200692E+02  0.44173200692E+02  0.00000000000E+00 0.  1.
          5    1    1    2  501    0 -0.55297491959E+01  0.68868601273E+01  0.71383586914E+01  0.12290367504E+02  0.47000000000E+01 0. -1.
         -5    1    1    2    0  503  0.55297491959E+01 -0.68868601273E+01 -0.40995611458E+02  0.42198781113E+02  0.47000000000E+01 0.  1.
<mgrwt>
<rscale>  2 0.10004847E+02</rscale>
<asrwt>0</asrwt>
<pdfrwt beam="1">  1       21 0.15870689E-02 0.10004847E+02</pdfrwt>
<pdfrwt beam="2">  1       21 0.67958771E-02 0.10004847E+02</pdfrwt>
<totfact> 0.13560009E+08</totfact>
</mgrwt>
</event>
<event>
 4    1  0.4043737E+006  0.6182742E+01  0.7546771E-02  0.2392230E+00
         21   -1    0    0  503  502  0.00000000000E+00  0.00000000000E+00  0.76852732068E+02  0.76852732068E+02  0.00000000000E+00 0.  1.
         21   -1    0    0  501  503 -0.00000000000E+00 -0.00000000000E+00 -0.51352038200E+01  0.51352038200E+01  0.00000000000E+00 0.  1.
          5    1    1    2  501    0  0.25851944127E+01  0.30745836755E+01 -0.30993078876E+01  0.69160685589E+01  0.47000000000E+01 0.  1.
         -5    1    1    2    0  502 -0.25851944127E+01 -0.30745836755E+01  0.74816836135E+02  0.75071867329E+02  0.47000000000E+01 0.  1.
<mgrwt>
<rscale>  2 0.61827417E+01</rscale>
<asrwt>0</asrwt>
<pdfrwt beam="1">  1       21 0.11823496E-01 0.61827417E+01</pdfrwt>
<pdfrwt beam="2">  1       21 0.79003141E-03 0.61827417E+01</pdfrwt>
<totfact> 0.11951354E+08</totfact>
</mgrwt>
</event>
<event>
 4    1  0.4043737E+006  0.9126156E+01  0.7546771E-02  0.2128420E+00
         21   -1    0    0  501  502  0.00000000000E+00  0.00000000000E+00  0.11840165750E+03  0.11840165750E+03  0.00000000000E+00 0. -1.
         21   -1    0    0  502  503 -0.00000000000E+00 -0.00000000000E+00 -0.10602018617E+01  0.10602018617E+01  0.00000000000E+00 0. -1.
          5    1    1    2  501    0 -0.78228334568E+01  0.36214366942E-03  0.93320719993E+02  0.93765897337E+02  0.47000000000E+01 0. -1.
         -5    1    1    2    0  503  0.78228334568E+01 -0.36214366942E-03  0.24020735644E+02  0.25695962024E+02  0.47000000000E+01 0. -1.
<mgrwt>
<rscale>  2 0.91261560E+01</rscale>
<asrwt>0</asrwt>
<pdfrwt beam="1">  1       21 0.18215629E-01 0.91261560E+01</pdfrwt>
<pdfrwt beam="2">  1       21 0.16310807E-03 0.91261560E+01</pdfrwt>
<totfact> 0.68551354E+08</totfact>
</mgrwt>
</event>
<event>
 4    1  0.4043737E+006  0.5455161E+01  0.7546771E-02  0.2492234E+00
         21   -1    0    0  503  502  0.00000000000E+00  0.00000000000E+00  0.17126474826E+02  0.17126474826E+02  0.00000000000E+00 0. -1.
         21   -1    0    0  501  503 -0.00000000000E+00 -0.00000000000E+00 -0.51932645452E+01  0.51932645452E+01  0.00000000000E+00 0. -1.
          5    1    1    2  501    0 -0.79150396581E+00 -0.26537334193E+01 -0.31368312209E+01  0.62927330864E+01  0.47000000000E+01 0. -1.
         -5    1    1    2    0  502  0.79150396581E+00  0.26537334193E+01  0.15070041502E+02  0.16027006285E+02  0.47000000000E+01 0. -1.
<mgrwt>
<rscale>  2 0.54551608E+01</rscale>
<asrwt>0</asrwt>
<pdfrwt beam="1">  1       21 0.26348423E-02 0.54551608E+01</pdfrwt>
<pdfrwt beam="2">  1       21 0.79896379E-03 0.54551608E+01</pdfrwt>
<totfact> 0.10012427E+09</totfact>
</mgrwt>
</event>
<event>
 4    1  0.4043737E+006  0.4914806E+01  0.7546771E-02  0.2582493E+00
         21   -1    0    0  501  502  0.00000000000E+00  0.00000000000E+00  0.13354010316E+02  0.13354010316E+02  0.00000000000E+00 0.  1.
         21   -1    0    0  502  503 -0.00000000000E+00 -0.00000000000E+00 -0.60286178489E+01  0.60286178489E+01  0.00000000000E+00 0.  1.
          5    1    1    2  501    0 -0.29522770773E+00 -0.14064693789E+01  0.11770783274E+02  0.12755651861E+02  0.47000000000E+01 0.  1.
         -5    1    1    2    0  503  0.29522770773E+00  0.14064693789E+01 -0.44453908067E+01  0.66269763042E+01  0.47000000000E+01 0.  1.
<mgrwt>
<rscale>  2 0.49148057E+01</rscale>
<asrwt>0</asrwt>
<pdfrwt beam="1">  1       21 0.20544631E-02 0.49148057E+01</pdfrwt>
<pdfrwt beam="2">  1       21 0.92747967E-03 0.49148057E+01</pdfrwt>
<totfact> 0.10525135E+09</totfact>
</mgrwt>
</event>
<event>
 4    1  0.4043737E+006  0.4979232E+01  0.7546771E-02  0.2570851E+00
         21   -1    0    0  501  502  0.00000000000E+00  0.00000000000E+00  0.12103158829E+03  0.12103158829E+03  0.00000000000E+00 0.  1.
         21   -1    0    0  502  503 -0.00000000000E+00 -0.00000000000E+00 -0.28516075853E+00  0.28516075853E+00  0.00000000000E+00 0.  1.
          5    1    1    2  501    0 -0.77188674166E+00 -0.14515306124E+01  0.92565031361E+02  0.92698855338E+02  0.47000000000E+01 0.  1.
         -5    1    1    2    0  503  0.77188674166E+00  0.14515306124E+01  0.28181396166E+02  0.28617893706E+02  0.47000000000E+01 0.  1.
<mgrwt>
<rscale>  2 0.49792319E+01</rscale>
<asrwt>0</asrwt>
<pdfrwt beam="1">  1       21 0.18620203E-01 0.49792319E+01</pdfrwt>
<pdfrwt beam="2">  1       21 0.43870982E-04 0.49792319E+01</pdfrwt>
<totfact> 0.24908867E+09</totfact>
</mgrwt>
</event>
<event>
 4    1  0.4043737E+006  0.6446953E+01  0.7546771E-02  0.2360645E+00
         21   -1    0    0  501  502  0.00000000000E+00  0.00000000000E+00  0.12341919751E+03  0.12341919751E+03  0.00000000000E+00 0.  1.
         21   -1    0    0  502  503 -0.00000000000E+00 -0.00000000000E+00 -0.70288574757E+00  0.70288574757E+00  0.00000000000E+00 0. -1.
          5    1    1    2  501    0 -0.43075067321E+01 -0.95842781555E+00  0.10614899396E+03  0.10634459138E+03  0.47000000000E+01 0.  1.
         -5    1    1    2    0  503  0.43075067321E+01  0.95842781555E+00  0.16567317808E+02  0.17777491878E+02  0.47000000000E+01 0. -1.
<mgrwt>
<rscale>  2 0.64469526E+01</rscale>
<asrwt>0</asrwt>
<pdfrwt beam="1">  1       21 0.18987552E-01 0.64469526E+01</pdfrwt>
<pdfrwt beam="2">  1       21 0.10813637E-03 0.64469526E+01</pdfrwt>
<totfact> 0.89850288E+08</totfact>
</mgrwt>
</event>
<event>
 4    1  0.4043737E+006  0.8319541E+01  0.7546771E-02  0.2185489E+00
         21   -1    0    0  501  502  0.00000000000E+00  0.00000000000E+00  0.45778074136E+01  0.45778074136E+01  0.00000000000E+00 0.  1.
         21   -1    0    0  502  503 -0.00000000000E+00 -0.00000000000E+00 -0.15299452319E+02  0.15299452319E+02  0.00000000000E+00 0. -1.
          5    1    1    2  501    0  0.36694090817E+01  0.58017408398E+01 -0.64383017340E+01  0.10519814114E+02  0.47000000000E+01 0. -1.
         -5    1    1    2    0  503 -0.36694090817E+01 -0.58017408398E+01 -0.42833431719E+01  0.93574456188E+01  0.47000000000E+01 0.  1.
<mgrwt>
<rscale>  2 0.83195408E+01</rscale>
<asrwt>0</asrwt>
<pdfrwt beam="1">  1       21 0.70427806E-03 0.83195408E+01</pdfrwt>
<pdfrwt beam="2">  1       21 0.23537619E-02 0.83195408E+01</pdfrwt>
<totfact> 0.19560092E+09</totfact>
</mgrwt>
</event>
<event>
 4    1  0.4043737E+006  0.7634936E+01  0.7546771E-02  0.2241375E+00
         21   -1    0    0  501  502  0.00000000000E+00  0.00000000000E+00  0.24626826289E+02  0.24626826289E+02  0.00000000000E+00 0.  1.
         21   -1    0    0  502  503 -0.00000000000E+00 -0.00000000000E+00 -0.35647649906E+01  0.35647649906E+01  0.00000000000E+00 0. -1.
          5    1    1    2  501    0  0.48825059836E+01 -0.35161594460E+01  0.18701668182E+02  0.20200114720E+02  0.47000000000E+01 0. -1.
         -5    1    1    2    0  503 -0.48825059836E+01  0.35161594460E+01  0.23603931163E+01  0.79914765590E+01  0.47000000000E+01 0. -1.
<mgrwt>
<rscale>  2 0.76349356E+01</rscale>
<asrwt>0</asrwt>
<pdfrwt beam="1">  1       21 0.37887424E-02 0.76349356E+01</pdfrwt>
<pdfrwt beam="2">  1       21 0.54842540E-03 0.76349356E+01</pdfrwt>
<totfact> 0.12982205E+09</totfact>
</mgrwt>
</event>
<event>
 4    1  0.4043737E+006  0.5843224E+01  0.7546771E-02  0.2436286E+00
         21   -1    0    0  501  502  0.00000000000E+00  0.00000000000E+00  0.78488854149E+02  0.78488854149E+02  0.00000000000E+00 0.  1.
         21   -1    0    0  502  503 -0.00000000000E+00 -0.00000000000E+00 -0.22641968410E+01  0.22641968410E+01  0.00000000000E+00 0. -1.
          5    1    1    2  501    0  0.81182973176E+00  0.33755290783E+01  0.74403513625E+02  0.74632607510E+02  0.47000000000E+01 0.  1.
         -5    1    1    2    0  503 -0.81182973176E+00 -0.33755290783E+01  0.18211436831E+01  0.61204434795E+01  0.47000000000E+01 0. -1.
<mgrwt>
<rscale>  2 0.58432238E+01</rscale>
<asrwt>0</asrwt>
<pdfrwt beam="1">  1       21 0.12075206E-01 0.58432238E+01</pdfrwt>
<pdfrwt beam="2">  1       21 0.34833804E-03 0.58432238E+01</pdfrwt>
<totfact> 0.34740772E+08</totfact>
</mgrwt>
</event>
<event>
 4    1  0.4043737E+006  0.6943320E+01  0.7546771E-02  0.2306746E+00
         21   -1    0    0  501  502  0.00000000000E+00  0.00000000000E+00  0.68271877568E+01  0.68271877568E+01  0.00000000000E+00 0.  1.
         21   -1    0    0  502  503 -0.00000000000E+00 -0.00000000000E+00 -0.12892556707E+02  0.12892556707E+02  0.00000000000E+00 0. -1.
          5    1    1    2  501    0 -0.43598961715E+01 -0.26666460396E+01  0.35983009092E+01  0.78203238527E+01  0.47000000000E+01 0.  1.
         -5    1    1    2    0  503  0.43598961715E+01  0.26666460396E+01 -0.96636698595E+01  0.11899420611E+02  0.47000000000E+01 0. -1.
<mgrwt>
<rscale>  2 0.69433202E+01</rscale>
<asrwt>0</asrwt>
<pdfrwt beam="1">  1       21 0.10503366E-02 0.69433202E+01</pdfrwt>
<pdfrwt beam="2">  1       21 0.19834703E-02 0.69433202E+01</pdfrwt>
<totfact> 0.12469071E+09</totfact>
</mgrwt>
</event>
<event>
 4    1  0.4043737E+006  0.6473013E+01  0.7546771E-02  0.2357646E+00
         21   -1    0    0  503  502  0.00000000000E+00  0.00000000000E+00  0.11152649320E+01  0.11152649320E+01  0.00000000000E+00 0. -1.
         21   -1    0    0  501  503 -0.00000000000E+00 -0.00000000000E+00 -0.37598272762E+02  0.37598272762E+02  0.00000000000E+00 0. -1.
          5    1    1    2  501    0 -0.21446590383E+01 -0.39000421801E+01 -0.17705574067E+02  0.18851717281E+02  0.47000000000E+01 0. -1.
         -5    1    1    2    0  502  0.21446590383E+01  0.39000421801E+01 -0.18777433763E+02  0.19861820413E+02  0.47000000000E+01 0. -1.
<mgrwt>
<rscale>  2 0.64730125E+01</rscale>
<asrwt>0</asrwt>
<pdfrwt beam="1">  1       21 0.17157926E-03 0.64730125E+01</pdfrwt>
<pdfrwt beam="2">  1       21 0.57843483E-02 0.64730125E+01</pdfrwt>
<totfact> 0.30462167E+09</totfact>
</mgrwt>
</event>
<event>
 4    1  0.4043737E+006  0.6672785E+01  0.7546771E-02  0.2335303E+00
         21   -1    0    0  503  502  0.00000000000E+00  0.00000000000E+00  0.12650054874E+04  0.12650054874E+04  0.00000000000E+00 0.  1.
         21   -1    0    0  501  503 -0.00000000000E+00 -0.00000000000E+00 -0.36404621450E-01  0.36404621450E-01  0.00000000000E+00 0.  1.
          5    1    1    2  501    0  0.77386382539E+00  0.46730286780E+01  0.51734476323E+03  0.51738779470E+03  0.47000000000E+01 0.  1.
         -5    1    1    2    0  502 -0.77386382539E+00 -0.46730286780E+01  0.74762431957E+03  0.74765409734E+03  0.47000000000E+01 0.  1.
<mgrwt>
<rscale>  2 0.66727852E+01</rscale>
<asrwt>0</asrwt>
<pdfrwt beam="1">  1       21 0.19458103E+00 0.66727852E+01</pdfrwt>
<pdfrwt beam="2">  1       21 0.56017242E-05 0.66727852E+01</pdfrwt>
<totfact> 0.59214109E+08</totfact>
</mgrwt>
</event>
<event>
 4    1  0.4043737E+006  0.6701976E+01  0.7546771E-02  0.2332130E+00
         21   -1    0    0  501  502  0.00000000000E+00  0.00000000000E+00  0.64423623667E+01  0.64423623667E+01  0.00000000000E+00 0.  1.
         21   -1    0    0  502  503 -0.00000000000E+00 -0.00000000000E+00 -0.75787694331E+01  0.75787694331E+01  0.00000000000E+00 0.  1.
          5    1    1    2  501    0  0.18111226650E+01 -0.44211210309E+01  0.14153661530E+01  0.68497983784E+01  0.47000000000E+01 0.  1.
         -5    1    1    2    0  503 -0.18111226650E+01  0.44211210309E+01 -0.25517732195E+01  0.71713334214E+01  0.47000000000E+01 0.  1.
<mgrwt>
<rscale>  2 0.67019756E+01</rscale>
<asrwt>0</asrwt>
<pdfrwt beam="1">  1       21 0.99113268E-03 0.67019756E+01</pdfrwt>
<pdfrwt beam="2">  1       21 0.11659645E-02 0.67019756E+01</pdfrwt>
<totfact> 0.28271987E+09</totfact>
</mgrwt>
</event>
<event>
 4    1  0.4043737E+006  0.5514137E+01  0.7546771E-02  0.2483303E+00
         21   -1    0    0  503  502  0.00000000000E+00  0.00000000000E+00  0.14895445785E+01  0.14895445785E+01  0.00000000000E+00 0. -1.
         21   -1    0    0  501  503 -0.00000000000E+00 -0.00000000000E+00 -0.24519267197E+02  0.24519267197E+02  0.00000000000E+00 0. -1.
          5    1    1    2  501    0 -0.14757893869E+01 -0.24774480255E+01 -0.16836844850E+02  0.17716801278E+02  0.47000000000E+01 0. -1.
         -5    1    1    2    0  502  0.14757893869E+01  0.24774480255E+01 -0.61928777693E+01  0.82920104980E+01  0.47000000000E+01 0. -1.
<mgrwt>
<rscale>  2 0.55141367E+01</rscale>
<asrwt>0</asrwt>
<pdfrwt beam="1">  1       21 0.22916072E-03 0.55141367E+01</pdfrwt>
<pdfrwt beam="2">  1       21 0.37721948E-02 0.55141367E+01</pdfrwt>
<totfact> 0.33561599E+09</totfact>
</mgrwt>
</event>
<event>
 4    1  0.4043737E+006  0.1298445E+02  0.7546771E-02  0.1936629E+00
         21   -1    0    0  503  502  0.00000000000E+00  0.00000000000E+00  0.74313233599E+00  0.74313233599E+00  0.00000000000E+00 0. -1.
         21   -1    0    0  501  503 -0.00000000000E+00 -0.00000000000E+00 -0.25111437709E+03  0.25111437709E+03  0.00000000000E+00 0. -1.
          5    1    1    2  501    0 -0.10989565587E+02  0.50729983452E+01 -0.16431269783E+03  0.16482493298E+03  0.47000000000E+01 0. -1.
         -5    1    1    2    0  502  0.10989565587E+02 -0.50729983452E+01 -0.86058546932E+02  0.87032576453E+02  0.47000000000E+01 0. -1.
<mgrwt>
<rscale>  2 0.12984447E+02</rscale>
<asrwt>0</asrwt>
<pdfrwt beam="1">  1       21 0.11432799E-03 0.12984447E+02</pdfrwt>
<pdfrwt beam="2">  1       21 0.38633003E-01 0.12984447E+02</pdfrwt>
<totfact> 0.36365362E+08</totfact>
</mgrwt>
</event>
<event>
 4    1  0.4043737E+006  0.8912252E+01  0.7546771E-02  0.2142750E+00
         21   -1    0    0  501  502  0.00000000000E+00  0.00000000000E+00  0.12206282477E+02  0.12206282477E+02  0.00000000000E+00 0. -1.
         21   -1    0    0  502  503 -0.00000000000E+00 -0.00000000000E+00 -0.73872576528E+01  0.73872576528E+01  0.00000000000E+00 0.  1.
          5    1    1    2  501    0 -0.36545832271E+01 -0.66319116616E+01 -0.97196716061E+00  0.89650962634E+01  0.47000000000E+01 0.  1.
         -5    1    1    2    0  503  0.36545832271E+01  0.66319116616E+01  0.57909919844E+01  0.10628443866E+02  0.47000000000E+01 0. -1.
<mgrwt>
<rscale>  2 0.89122517E+01</rscale>
<asrwt>0</asrwt>
<pdfrwt beam="1">  1       21 0.18778896E-02 0.89122517E+01</pdfrwt>
<pdfrwt beam="2">  1       21 0.11365012E-02 0.89122517E+01</pdfrwt>
<totfact> 0.14356589E+09</totfact>
</mgrwt>
</event>
<event>
 4    1  0.4043737E+006  0.5805818E+01  0.7546771E-02  0.2441403E+00
         21   -1    0    0  503  502  0.00000000000E+00  0.00000000000E+00  0.21604173274E+01  0.21604173274E+01  0.00000000000E+00 0. -1.
         21   -1    0    0  501  503 -0.00000000000E+00 -0.00000000000E+00 -0.10099287515E+03  0.10099287515E+03  0.00000000000E+00 0. -1.
          5    1    1    2  501    0 -0.34084285970E+01 -0.11843887427E-01 -0.96841808304E+02  0.97015686162E+02  0.47000000000E+01 0. -1.
         -5    1    1    2    0  502  0.34084285970E+01  0.11843887427E-01 -0.19906495178E+01  0.61376063152E+01  0.47000000000E+01 0. -1.
<mgrwt>
<rscale>  2 0.58058183E+01</rscale>
<asrwt>0</asrwt>
<pdfrwt beam="1">  1       21 0.33237190E-03 0.58058183E+01</pdfrwt>
<pdfrwt beam="2">  1       21 0.15537365E-01 0.58058183E+01</pdfrwt>
<totfact> 0.24868994E+08</totfact>
</mgrwt>
</event>
<event>
 4    1  0.4043737E+006  0.5407357E+01  0.7546771E-02  0.2499595E+00
         21   -1    0    0  503  502  0.00000000000E+00  0.00000000000E+00  0.35173096702E+02  0.35173096702E+02  0.00000000000E+00 0. -1.
         21   -1    0    0  501  503 -0.00000000000E+00 -0.00000000000E+00 -0.11130122992E+01  0.11130122992E+01  0.00000000000E+00 0.  1.
          5    1    1    2  501    0 -0.82504606324E+00  0.25433862129E+01  0.26157728724E+02  0.26710789700E+02  0.47000000000E+01 0. -1.
         -5    1    1    2    0  502  0.82504606324E+00 -0.25433862129E+01  0.79023556792E+01  0.95753193010E+01  0.47000000000E+01 0.  1.
<mgrwt>
<rscale>  2 0.54073574E+01</rscale>
<asrwt>0</asrwt>
<pdfrwt beam="1">  1       21 0.54112448E-02 0.54073574E+01</pdfrwt>
<pdfrwt beam="2">  1       21 0.17123269E-03 0.54073574E+01</pdfrwt>
<totfact> 0.28797980E+09</totfact>
</mgrwt>
</event>
<event>
 4    1  0.4043737E+006  0.5328355E+01  0.7546771E-02  0.2512005E+00
         21   -1    0    0  503  502  0.00000000000E+00  0.00000000000E+00  0.12002847887E+02  0.12002847887E+02  0.00000000000E+00 0.  1.
         21   -1    0    0  501  503 -0.00000000000E+00 -0.00000000000E+00 -0.44622928475E+01  0.44622928475E+01  0.00000000000E+00 0.  1.
          5    1    1    2  501    0  0.46450599179E-02 -0.25102482361E+01 -0.18731894971E+01  0.56480267949E+01  0.47000000000E+01 0.  1.
         -5    1    1    2    0  502 -0.46450599179E-02  0.25102482361E+01  0.94137445365E+01  0.10817113940E+02  0.47000000000E+01 0.  1.
<mgrwt>
<rscale>  2 0.53283551E+01</rscale>
<asrwt>0</asrwt>
<pdfrwt beam="1">  1       21 0.18465920E-02 0.53283551E+01</pdfrwt>
<pdfrwt beam="2">  1       21 0.68650660E-03 0.53283551E+01</pdfrwt>
<totfact> 0.20114064E+09</totfact>
</mgrwt>
</event>
<event>
 4    1  0.4043737E+006  0.5928504E+01  0.7546771E-02  0.2424823E+00
         21   -1    0    0  503  502  0.00000000000E+00  0.00000000000E+00  0.48429533485E+01  0.48429533485E+01  0.00000000000E+00 0.  1.
         21   -1    0    0  501  503 -0.00000000000E+00 -0.00000000000E+00 -0.99129791993E+01  0.99129791993E+01  0.00000000000E+00 0. -1.
          5    1    1    2  501    0 -0.35060291294E+01  0.87459430357E+00 -0.63537150908E+01  0.86900432051E+01  0.47000000000E+01 0. -1.
         -5    1    1    2    0  502  0.35060291294E+01 -0.87459430357E+00  0.12836892401E+01  0.60658893426E+01  0.47000000000E+01 0.  1.
<mgrwt>
<rscale>  2 0.59285036E+01</rscale>
<asrwt>0</asrwt>
<pdfrwt beam="1">  1       21 0.74506976E-03 0.59285036E+01</pdfrwt>
<pdfrwt beam="2">  1       21 0.15250737E-02 0.59285036E+01</pdfrwt>
<totfact> 0.25961755E+09</totfact>
</mgrwt>
</event>
<event>
 4    1  0.4043737E+006  0.7186523E+01  0.7546771E-02  0.2282590E+00
         21   -1    0    0  501  502  0.00000000000E+00  0.00000000000E+00  0.65957509140E+00  0.65957509140E+00  0.00000000000E+00 0.  1.
         21   -1    0    0  502  503 -0.00000000000E+00 -0.00000000000E+00 -0.90914979872E+02  0.90914979872E+02  0.00000000000E+00 0. -1.
          5    1    1    2  501    0  0.51909475460E+01  0.16156033918E+01 -0.28073385351E+02  0.28978631365E+02  0.47000000000E+01 0. -1.
         -5    1    1    2    0  503 -0.51909475460E+01 -0.16156033918E+01 -0.62182019430E+02  0.62595923599E+02  0.47000000000E+01 0. -1.
<mgrwt>
<rscale>  2 0.71865229E+01</rscale>
<asrwt>0</asrwt>
<pdfrwt beam="1">  1       21 0.10147318E-03 0.71865229E+01</pdfrwt>
<pdfrwt beam="2">  1       21 0.13986908E-01 0.71865229E+01</pdfrwt>
<totfact> 0.17290825E+09</totfact>
</mgrwt>
</event>
<event>
 4    1  0.4043737E+006  0.5135862E+01  0.7546771E-02  0.2543602E+00
         21   -1    0    0  503  502  0.00000000000E+00  0.00000000000E+00  0.38975899577E+01  0.38975899577E+01  0.00000000000E+00 0.  1.
         21   -1    0    0  501  503 -0.00000000000E+00 -0.00000000000E+00 -0.68938214713E+01  0.68938214713E+01  0.00000000000E+00 0.  1.
          5    1    1    2  501    0  0.43752986868E+00  0.20237705624E+01 -0.22284055523E+01  0.55984704144E+01  0.47000000000E+01 0.  1.
         -5    1    1    2    0  502 -0.43752986868E+00 -0.20237705624E+01 -0.76782596131E+00  0.51929410147E+01  0.47000000000E+01 0.  1.
<mgrwt>
<rscale>  2 0.51358621E+01</rscale>
<asrwt>0</asrwt>
<pdfrwt beam="1">  1       21 0.59962923E-03 0.51358621E+01</pdfrwt>
<pdfrwt beam="2">  1       21 0.10605879E-02 0.51358621E+01</pdfrwt>
<totfact> 0.51087379E+09</totfact>
</mgrwt>
</event>
<event>
 4    1  0.4043737E+006  0.5784040E+01  0.7546771E-02  0.2444408E+00
         21   -1    0    0  503  502  0.00000000000E+00  0.00000000000E+00  0.17935138787E+03  0.17935138787E+03  0.00000000000E+00 0.  1.
         21   -1    0    0  501  503 -0.00000000000E+00 -0.00000000000E+00 -0.30896594432E+00  0.30896594432E+00  0.00000000000E+00 0. -1.
          5    1    1    2  501    0  0.31315938863E+01 -0.12482944685E+01  0.32973576084E+02  0.33477034503E+02  0.47000000000E+01 0. -1.
         -5    1    1    2    0  502 -0.31315938863E+01  0.12482944685E+01  0.14606884584E+03  0.14618331931E+03  0.47000000000E+01 0.  1.
<mgrwt>
<rscale>  2 0.57840401E+01</rscale>
<asrwt>0</asrwt>
<pdfrwt beam="1">  1       21 0.27592438E-01 0.57840401E+01</pdfrwt>
<pdfrwt beam="2">  1       21 0.47533365E-04 0.57840401E+01</pdfrwt>
<totfact> 0.13498396E+09</totfact>
</mgrwt>
</event>
<event>
 4    1  0.4043737E+006  0.5261689E+01  0.7546771E-02  0.2522724E+00
         21   -1    0    0  503  502  0.00000000000E+00  0.00000000000E+00  0.19447649702E+02  0.19447649702E+02  0.00000000000E+00 0. -1.
         21   -1    0    0  501  503 -0.00000000000E+00 -0.00000000000E+00 -0.14347085802E+01  0.14347085802E+01  0.00000000000E+00 0. -1.
          5    1    1    2  501    0  0.22933275602E+01  0.57967197754E+00  0.80870768292E+01  0.96481180829E+01  0.47000000000E+01 0. -1.
         -5    1    1    2    0  502 -0.22933275602E+01 -0.57967197754E+00  0.99258642929E+01  0.11234240200E+02  0.47000000000E+01 0. -1.
<mgrwt>
<rscale>  2 0.52616890E+01</rscale>
<asrwt>0</asrwt>
<pdfrwt beam="1">  1       21 0.29919459E-02 0.52616890E+01</pdfrwt>
<pdfrwt beam="2">  1       21 0.22072441E-03 0.52616890E+01</pdfrwt>
<totfact> 0.47180329E+09</totfact>
</mgrwt>
</event>
<event>
 4    1  0.4043737E+006  0.6750171E+01  0.7546771E-02  0.2326942E+00
         21   -1    0    0  503  502  0.00000000000E+00  0.00000000000E+00  0.16008160650E+01  0.16008160650E+01  0.00000000000E+00 0.  1.
         21   -1    0    0  501  503 -0.00000000000E+00 -0.00000000000E+00 -0.30791151554E+02  0.30791151554E+02  0.00000000000E+00 0.  1.
          5    1    1    2  501    0  0.19318054298E+01 -0.44433025169E+01 -0.19048185589E+02  0.20208863988E+02  0.47000000000E+01 0.  1.
         -5    1    1    2    0  502 -0.19318054298E+01  0.44433025169E+01 -0.10142149901E+02  0.12183103631E+02  0.47000000000E+01 0.  1.
<mgrwt>
<rscale>  2 0.67501711E+01</rscale>
<asrwt>0</asrwt>
<pdfrwt beam="1">  1       21 0.24627943E-03 0.67501711E+01</pdfrwt>
<pdfrwt beam="2">  1       21 0.47370996E-02 0.67501711E+01</pdfrwt>
<totfact> 0.25896426E+09</totfact>
</mgrwt>
</event>
<event>
 4    1  0.4043737E+006  0.5435380E+01  0.7546771E-02  0.2495267E+00
         21   -1    0    0  503  502  0.00000000000E+00  0.00000000000E+00  0.16805447013E+03  0.16805447013E+03  0.00000000000E+00 0. -1.
         21   -1    0    0  501  503 -0.00000000000E+00 -0.00000000000E+00 -0.65773560775E+00  0.65773560775E+00  0.00000000000E+00 0.  1.
          5    1    1    2  501    0 -0.22726720686E+01 -0.15127176219E+01  0.11490085876E+02  0.12710838933E+02  0.47000000000E+01 0.  1.
         -5    1    1    2    0  502  0.22726720686E+01  0.15127176219E+01  0.15590664865E+03  0.15600136680E+03  0.47000000000E+01 0. -1.
<mgrwt>
<rscale>  2 0.54353797E+01</rscale>
<asrwt>0</asrwt>
<pdfrwt beam="1">  1       21 0.25854500E-01 0.54353797E+01</pdfrwt>
<pdfrwt beam="2">  1       21 0.10119023E-03 0.54353797E+01</pdfrwt>
<totfact> 0.52224720E+08</totfact>
</mgrwt>
</event>
<event>
 4    1  0.4043737E+006  0.6607656E+01  0.7546771E-02  0.2342464E+00
         21   -1    0    0  501  502  0.00000000000E+00  0.00000000000E+00  0.82400128310E+00  0.82400128310E+00  0.00000000000E+00 0. -1.
         21   -1    0    0  502  503 -0.00000000000E+00 -0.00000000000E+00 -0.81213965785E+02  0.81213965785E+02  0.00000000000E+00 0.  1.
          5    1    1    2  501    0 -0.10830587424E+01 -0.45164264434E+01 -0.16012337346E+02  0.17322126640E+02  0.47000000000E+01 0. -1.
         -5    1    1    2    0  503  0.10830587424E+01  0.45164264434E+01 -0.64377627156E+02  0.64715840428E+02  0.47000000000E+01 0.  1.
<mgrwt>
<rscale>  2 0.66076565E+01</rscale>
<asrwt>0</asrwt>
<pdfrwt beam="1">  1       21 0.12676943E-03 0.66076565E+01</pdfrwt>
<pdfrwt beam="2">  1       21 0.12494456E-01 0.66076565E+01</pdfrwt>
<totfact> 0.14363514E+09</totfact>
</mgrwt>
</event>
<event>
 4    1  0.4043737E+006  0.6886249E+01  0.7546771E-02  0.2312617E+00
         21   -1    0    0  501  502  0.00000000000E+00  0.00000000000E+00  0.40654199342E+01  0.40654199342E+01  0.00000000000E+00 0. -1.
         21   -1    0    0  502  503 -0.00000000000E+00 -0.00000000000E+00 -0.38750679912E+02  0.38750679912E+02  0.00000000000E+00 0. -1.
          5    1    1    2  501    0 -0.43665618737E+01  0.25027101574E+01  0.55570557775E+00  0.69086344105E+01  0.47000000000E+01 0. -1.
         -5    1    1    2    0  503  0.43665618737E+01 -0.25027101574E+01 -0.35240965555E+02  0.35907465435E+02  0.47000000000E+01 0. -1.
<mgrwt>
<rscale>  2 0.68862487E+01</rscale>
<asrwt>0</asrwt>
<pdfrwt beam="1">  1       21 0.62544923E-03 0.68862487E+01</pdfrwt>
<pdfrwt beam="2">  1       21 0.59616430E-02 0.68862487E+01</pdfrwt>
<totfact> 0.50877423E+08</totfact>
</mgrwt>
</event>
<event>
 4    1  0.4043737E+006  0.9312519E+01  0.7546771E-02  0.2116363E+00
         21   -1    0    0  501  502  0.00000000000E+00  0.00000000000E+00  0.21969295187E+01  0.21969295187E+01  0.00000000000E+00 0.  1.
         21   -1    0    0  502  503 -0.00000000000E+00 -0.00000000000E+00 -0.43701039773E+02  0.43701039773E+02  0.00000000000E+00 0. -1.
          5    1    1    2  501    0 -0.76224101901E+01  0.25557529909E+01 -0.13615269097E+02  0.16495410363E+02  0.47000000000E+01 0.  1.
         -5    1    1    2    0  503  0.76224101901E+01 -0.25557529909E+01 -0.27888841157E+02  0.29402558929E+02  0.47000000000E+01 0. -1.
<mgrwt>
<rscale>  2 0.93125190E+01</rscale>
<asrwt>0</asrwt>
<pdfrwt beam="1">  1       21 0.33798919E-03 0.93125190E+01</pdfrwt>
<pdfrwt beam="2">  1       21 0.67232362E-02 0.93125190E+01</pdfrwt>
<totfact> 0.12261837E+09</totfact>
</mgrwt>
</event>
<event>
 4    1  0.4043737E+006  0.5401278E+01  0.7546771E-02  0.2500539E+00
         21   -1    0    0  503  502  0.00000000000E+00  0.00000000000E+00  0.24370925197E+01  0.24370925197E+01  0.00000000000E+00 0.  1.
         21   -1    0    0  501  503 -0.00000000000E+00 -0.00000000000E+00 -0.19350445117E+02  0.19350445117E+02  0.00000000000E+00 0. -1.
          5    1    1    2  501    0 -0.22731125912E+01  0.13844703099E+01 -0.15184153016E+02  0.16116212387E+02  0.47000000000E+01 0. -1.
         -5    1    1    2    0  502  0.22731125912E+01 -0.13844703099E+01 -0.17291995808E+01  0.56713252491E+01  0.47000000000E+01 0.  1.
<mgrwt>
<rscale>  2 0.54012775E+01</rscale>
<asrwt>0</asrwt>
<pdfrwt beam="1">  1       21 0.37493731E-03 0.54012775E+01</pdfrwt>
<pdfrwt beam="2">  1       21 0.29769916E-02 0.54012775E+01</pdfrwt>
<totfact> 0.23698758E+09</totfact>
</mgrwt>
</event>
<event>
 4    1  0.4043737E+006  0.6355140E+01  0.7546771E-02  0.2371373E+00
         21   -1    0    0  501  502  0.00000000000E+00  0.00000000000E+00  0.18816669699E+03  0.18816669699E+03  0.00000000000E+00 0. -1.
         21   -1    0    0  502  503 -0.00000000000E+00 -0.00000000000E+00 -0.34175960220E+00  0.34175960220E+00  0.00000000000E+00 0. -1.
          5    1    1    2  501    0  0.28777625656E+01 -0.31648513202E+01  0.15139679585E+03  0.15153012108E+03  0.47000000000E+01 0. -1.
         -5    1    1    2    0  503 -0.28777625656E+01  0.31648513202E+01  0.36428141541E+02  0.36978335514E+02  0.47000000000E+01 0. -1.
<mgrwt>
<rscale>  2 0.63551398E+01</rscale>
<asrwt>0</asrwt>
<pdfrwt beam="1">  1       21 0.28948640E-01 0.63551398E+01</pdfrwt>
<pdfrwt beam="2">  1       21 0.52578551E-04 0.63551398E+01</pdfrwt>
<totfact> 0.11698638E+09</totfact>
</mgrwt>
</event>
<event>
 4    1  0.4043737E+006  0.5210721E+01  0.7546771E-02  0.2531077E+00
         21   -1    0    0  503  502  0.00000000000E+00  0.00000000000E+00  0.26764449406E+01  0.26764449406E+01  0.00000000000E+00 0.  1.
         21   -1    0    0  501  503 -0.00000000000E+00 -0.00000000000E+00 -0.69085920705E+02  0.69085920705E+02  0.00000000000E+00 0.  1.
          5    1    1    2  501    0 -0.15910410493E+01  0.15906616473E+01 -0.66346965632E+02  0.66551269445E+02  0.47000000000E+01 0.  1.
         -5    1    1    2    0  502  0.15910410493E+01 -0.15906616473E+01 -0.62510132108E-01  0.52110962007E+01  0.47000000000E+01 0.  1.
<mgrwt>
<rscale>  2 0.52107213E+01</rscale>
<asrwt>0</asrwt>
<pdfrwt beam="1">  1       21 0.41176075E-03 0.52107213E+01</pdfrwt>
<pdfrwt beam="2">  1       21 0.10628603E-01 0.52107213E+01</pdfrwt>
<totfact> 0.30746945E+08</totfact>
</mgrwt>
</event>
<event>
 4    1  0.4043737E+006  0.6539666E+01  0.7546771E-02  0.2350066E+00
         21   -1    0    0  503  502  0.00000000000E+00  0.00000000000E+00  0.45421752462E+00  0.45421752462E+00  0.00000000000E+00 0.  1.
         21   -1    0    0  501  503 -0.00000000000E+00 -0.00000000000E+00 -0.11713012638E+03  0.11713012638E+03  0.00000000000E+00 0.  1.
          5    1    1    2  501    0  0.34629866877E+01 -0.29470248135E+01 -0.84375870611E+02  0.84628923976E+02  0.47000000000E+01 0.  1.
         -5    1    1    2    0  502 -0.34629866877E+01  0.29470248135E+01 -0.32300038243E+02  0.32955419927E+02  0.47000000000E+01 0.  1.
<mgrwt>
<rscale>  2 0.65396661E+01</rscale>
<asrwt>0</asrwt>
<pdfrwt beam="1">  1       21 0.69879614E-04 0.65396661E+01</pdfrwt>
<pdfrwt beam="2">  1       21 0.18020021E-01 0.65396661E+01</pdfrwt>
<totfact> 0.17798663E+09</totfact>
</mgrwt>
</event>
<event>
 4    1  0.4043737E+006  0.7559364E+01  0.7546771E-02  0.2248042E+00
         21   -1    0    0  503  502  0.00000000000E+00  0.00000000000E+00  0.19911594442E+03  0.19911594442E+03  0.00000000000E+00 0. -1.
         21   -1    0    0  501  503 -0.00000000000E+00 -0.00000000000E+00 -0.31241581843E+00  0.31241581843E+00  0.00000000000E+00 0.  1.
          5    1    1    2  501    0  0.56627143481E+01  0.17284812057E+01  0.70954473204E+02  0.71356017607E+02  0.47000000000E+01 0. -1.
         -5    1    1    2    0  502 -0.56627143481E+01 -0.17284812057E+01  0.12784905540E+03  0.12807234264E+03  0.47000000000E+01 0.  1.
<mgrwt>
<rscale>  2 0.75593638E+01</rscale>
<asrwt>0</asrwt>
<pdfrwt beam="1">  1       21 0.30633121E-01 0.75593638E+01</pdfrwt>
<pdfrwt beam="2">  1       21 0.48064131E-04 0.75593638E+01</pdfrwt>
<totfact> 0.13531807E+09</totfact>
</mgrwt>
</event>
<event>
 4    1  0.4043737E+006  0.4826786E+01  0.7546771E-02  0.2598830E+00
         21   -1    0    0  501  502  0.00000000000E+00  0.00000000000E+00  0.76577182148E+02  0.76577182148E+02  0.00000000000E+00 0.  1.
         21   -1    0    0  502  503 -0.00000000000E+00 -0.00000000000E+00 -0.11198420835E+01  0.11198420835E+01  0.00000000000E+00 0.  1.
          5    1    1    2  501    0  0.10846890886E+01 -0.17695965961E+00  0.70882604941E+02  0.71046756072E+02  0.47000000000E+01 0.  1.
         -5    1    1    2    0  503 -0.10846890886E+01  0.17695965961E+00  0.45747351232E+01  0.66502681591E+01  0.47000000000E+01 0.  1.
<mgrwt>
<rscale>  2 0.48267862E+01</rscale>
<asrwt>0</asrwt>
<pdfrwt beam="1">  1       21 0.11781101E-01 0.48267862E+01</pdfrwt>
<pdfrwt beam="2">  1       21 0.17228346E-03 0.48267862E+01</pdfrwt>
<totfact> 0.80021471E+08</totfact>
</mgrwt>
</event>
<event>
 4    1  0.4043737E+006  0.1108017E+02  0.7546771E-02  0.2018268E+00
         21   -1    0    0  503  502  0.00000000000E+00  0.00000000000E+00  0.28202735487E+02  0.28202735487E+02  0.00000000000E+00 0. -1.
         21   -1    0    0  501  503 -0.00000000000E+00 -0.00000000000E+00 -0.10298388747E+02  0.10298388747E+02  0.00000000000E+00 0. -1.
          5    1    1    2  501    0  0.52858805020E+01  0.85287532518E+01 -0.56744529695E+01  0.12448677890E+02  0.47000000000E+01 0. -1.
         -5    1    1    2    0  502 -0.52858805020E+01 -0.85287532518E+01  0.23578799710E+02  0.26052446343E+02  0.47000000000E+01 0. -1.
<mgrwt>
<rscale>  2 0.11080170E+02</rscale>
<asrwt>0</asrwt>
<pdfrwt beam="1">  1       21 0.43388824E-02 0.11080170E+02</pdfrwt>
<pdfrwt beam="2">  1       21 0.15843675E-02 0.11080170E+02</pdfrwt>
<totfact> 0.28522077E+08</totfact>
</mgrwt>
</event>
<event>
 4    1  0.4043737E+006  0.4920679E+01  0.7546771E-02  0.2581420E+00
         21   -1    0    0  501  502  0.00000000000E+00  0.00000000000E+00  0.16421667357E+03  0.16421667357E+03  0.00000000000E+00 0.  1.
         21   -1    0    0  502  503 -0.00000000000E+00 -0.00000000000E+00 -0.14754227071E+00  0.14754227071E+00  0.00000000000E+00 0.  1.
          5    1    1    2  501    0 -0.74895445306E+00  0.12498613447E+01  0.79934941130E+02  0.80086252876E+02  0.47000000000E+01 0.  1.
         -5    1    1    2    0  503  0.74895445306E+00 -0.12498613447E+01  0.84134190173E+02  0.84277962969E+02  0.47000000000E+01 0.  1.
<mgrwt>
<rscale>  2 0.49206794E+01</rscale>
<asrwt>0</asrwt>
<pdfrwt beam="1">  1       21 0.25263957E-01 0.49206794E+01</pdfrwt>
<pdfrwt beam="2">  1       21 0.22698942E-04 0.49206794E+01</pdfrwt>
<totfact> 0.36138440E+09</totfact>
</mgrwt>
</event>
<event>
 4    1  0.4043737E+006  0.7371195E+01  0.7546771E-02  0.2265123E+00
         21   -1    0    0  503  502  0.00000000000E+00  0.00000000000E+00  0.10743516394E+01  0.10743516394E+01  0.00000000000E+00 0. -1.
         21   -1    0    0  501  503 -0.00000000000E+00 -0.00000000000E+00 -0.16676603756E+03  0.16676603756E+03  0.00000000000E+00 0. -1.
          5    1    1    2  501    0 -0.52729437056E+01  0.21072693359E+01 -0.15289459616E+03  0.15307217923E+03  0.47000000000E+01 0. -1.
         -5    1    1    2    0  502  0.52729437056E+01 -0.21072693359E+01 -0.12797089767E+02  0.14768209976E+02  0.47000000000E+01 0. -1.
<mgrwt>
<rscale>  2 0.73711952E+01</rscale>
<asrwt>0</asrwt>
<pdfrwt beam="1">  1       21 0.16528499E-03 0.73711952E+01</pdfrwt>
<pdfrwt beam="2">  1       21 0.25656295E-01 0.73711952E+01</pdfrwt>
<totfact> 0.33578458E+08</totfact>
</mgrwt>
</event>
<event>
 4    1  0.4043737E+006  0.1244005E+02  0.7546771E-02  0.1957995E+00
         21   -1    0    0  503  502  0.00000000000E+00  0.00000000000E+00  0.12352602957E+01  0.12352602957E+01  0.00000000000E+00 0.  1.
         21   -1    0    0  501  503 -0.00000000000E+00 -0.00000000000E+00 -0.19619935126E+03  0.19619935126E+03  0.00000000000E+00 0. -1.
          5    1    1    2  501    0 -0.78891425240E+01 -0.83920434775E+01 -0.15683236159E+03  0.15732496498E+03  0.47000000000E+01 0. -1.
         -5    1    1    2    0  502  0.78891425240E+01  0.83920434775E+01 -0.38131729372E+02  0.40109646575E+02  0.47000000000E+01 0.  1.
<mgrwt>
<rscale>  2 0.12440055E+02</rscale>
<asrwt>0</asrwt>
<pdfrwt beam="1">  1       21 0.19004026E-03 0.12440055E+02</pdfrwt>
<pdfrwt beam="2">  1       21 0.30184481E-01 0.12440055E+02</pdfrwt>
<totfact> 0.27253232E+08</totfact>
</mgrwt>
</event>
<event>
 4    1  0.4043737E+006  0.1941895E+02  0.7546771E-02  0.1757136E+00
         21   -1    0    0  503  502  0.00000000000E+00  0.00000000000E+00  0.33704827475E+02  0.33704827475E+02  0.00000000000E+00 0.  1.
         21   -1    0    0  501  503 -0.00000000000E+00 -0.00000000000E+00 -0.24710420734E+02  0.24710420734E+02  0.00000000000E+00 0. -1.
          5    1    1    2  501    0  0.15617869294E+02 -0.10539809829E+02 -0.17109106917E+02  0.25880822476E+02  0.47000000000E+01 0. -1.
         -5    1    1    2    0  502 -0.15617869294E+02  0.10539809829E+02  0.26103513657E+02  0.32534425733E+02  0.47000000000E+01 0.  1.
<mgrwt>
<rscale>  2 0.19418945E+02</rscale>
<asrwt>0</asrwt>
<pdfrwt beam="1">  1       21 0.51853581E-02 0.19418945E+02</pdfrwt>
<pdfrwt beam="2">  1       21 0.38016032E-02 0.19418945E+02</pdfrwt>
<totfact> 0.71145663E+07</totfact>
</mgrwt>
</event>
<event>
 4    1  0.4043737E+006  0.6750891E+01  0.7546771E-02  0.2326865E+00
         21   -1    0    0  501  502  0.00000000000E+00  0.00000000000E+00  0.17346111186E+00  0.17346111186E+00  0.00000000000E+00 0.  1.
         21   -1    0    0  502  503 -0.00000000000E+00 -0.00000000000E+00 -0.26656176589E+03  0.26656176589E+03  0.00000000000E+00 0.  1.
          5    1    1    2  501    0  0.37967394765E+01  0.30115273343E+01 -0.11721717351E+03  0.11741141466E+03  0.47000000000E+01 0.  1.
         -5    1    1    2    0  503 -0.37967394765E+01 -0.30115273343E+01 -0.14917113127E+03  0.14932381234E+03  0.47000000000E+01 0.  1.
<mgrwt>
<rscale>  2 0.67508909E+01</rscale>
<asrwt>0</asrwt>
<pdfrwt beam="1">  1       21 0.26686211E-04 0.67508909E+01</pdfrwt>
<pdfrwt beam="2">  1       21 0.41009678E-01 0.67508909E+01</pdfrwt>
<totfact> 0.16645547E+09</totfact>
</mgrwt>
</event>
<event>
 4    1  0.4043737E+006  0.5451251E+01  0.7546771E-02  0.2492832E+00
         21   -1    0    0  503  502  0.00000000000E+00  0.00000000000E+00  0.10135609124E+00  0.10135609124E+00  0.00000000000E+00 0. -1.
         21   -1    0    0  501  503 -0.00000000000E+00 -0.00000000000E+00 -0.29549746586E+03  0.29549746586E+03  0.00000000000E+00 0. -1.
          5    1    1    2  501    0  0.26813413409E+01 -0.66071704057E+00 -0.16077133539E+03  0.16086372625E+03  0.47000000000E+01 0. -1.
         -5    1    1    2    0  502 -0.26813413409E+01  0.66071704057E+00 -0.13462477437E+03  0.13473509570E+03  0.47000000000E+01 0. -1.
<mgrwt>
<rscale>  2 0.54512511E+01</rscale>
<asrwt>0</asrwt>
<pdfrwt beam="1">  1       21 0.15593264E-04 0.54512511E+01</pdfrwt>
<pdfrwt beam="2">  1       21 0.45461093E-01 0.54512511E+01</pdfrwt>
<totfact> 0.24136772E+09</totfact>
</mgrwt>
</event>
<event>
 4    1  0.4043737E+006  0.5529126E+01  0.7546771E-02  0.2481059E+00
         21   -1    0    0  503  502  0.00000000000E+00  0.00000000000E+00  0.75903828271E+01  0.75903828271E+01  0.00000000000E+00 0.  1.
         21   -1    0    0  501  503 -0.00000000000E+00 -0.00000000000E+00 -0.30582713024E+02  0.30582713024E+02  0.00000000000E+00 0.  1.
          5    1    1    2  501    0  0.27947284771E+01 -0.81898083040E+00 -0.29281548518E+02  0.29798998649E+02  0.47000000000E+01 0.  1.
         -5    1    1    2    0  502 -0.27947284771E+01  0.81898083040E+00  0.62892183211E+01  0.83740972022E+01  0.47000000000E+01 0.  1.
<mgrwt>
<rscale>  2 0.55291262E+01</rscale>
<asrwt>0</asrwt>
<pdfrwt beam="1">  1       21 0.11677512E-02 0.55291262E+01</pdfrwt>
<pdfrwt beam="2">  1       21 0.47050327E-02 0.55291262E+01</pdfrwt>
<totfact> 0.25598704E+08</totfact>
</mgrwt>
</event>
<event>
 4    1  0.4043737E+006  0.6536420E+01  0.7546771E-02  0.2350432E+00
         21   -1    0    0  501  502  0.00000000000E+00  0.00000000000E+00  0.15625184586E+03  0.15625184586E+03  0.00000000000E+00 0.  1.
         21   -1    0    0  502  503 -0.00000000000E+00 -0.00000000000E+00 -0.40501666329E+00  0.40501666329E+00  0.00000000000E+00 0. -1.
          5    1    1    2  501    0  0.45397692260E+01 -0.15899547103E+00  0.12256915480E+03  0.12274331954E+03  0.47000000000E+01 0.  1.
         -5    1    1    2    0  503 -0.45397692260E+01  0.15899547103E+00  0.33277674397E+02  0.33913542980E+02  0.47000000000E+01 0. -1.
<mgrwt>
<rscale>  2 0.65364198E+01</rscale>
<asrwt>0</asrwt>
<pdfrwt beam="1">  1       21 0.24038697E-01 0.65364198E+01</pdfrwt>
<pdfrwt beam="2">  1       21 0.62310381E-04 0.65364198E+01</pdfrwt>
<totfact> 0.12968065E+09</totfact>
</mgrwt>
</event>
<event>
 4    1  0.4043737E+006  0.6871775E+01  0.7546771E-02  0.2314118E+00
         21   -1    0    0  501  502  0.00000000000E+00  0.00000000000E+00  0.74925357303E+01  0.74925357303E+01  0.00000000000E+00 0.  1.
         21   -1    0    0  502  503 -0.00000000000E+00 -0.00000000000E+00 -0.63245293278E+01  0.63245293278E+01  0.00000000000E+00 0.  1.
          5    1    1    2  501    0  0.49654151252E+01  0.68988529127E+00  0.17575835569E+00  0.68740221181E+01  0.47000000000E+01 0.  1.
         -5    1    1    2    0  503 -0.49654151252E+01 -0.68988529127E+00  0.99224804676E+00  0.69430429400E+01  0.47000000000E+01 0.  1.
<mgrwt>
<rscale>  2 0.68717748E+01</rscale>
<asrwt>0</asrwt>
<pdfrwt beam="1">  1       21 0.11526978E-02 0.68717748E+01</pdfrwt>
<pdfrwt beam="2">  1       21 0.97300451E-03 0.68717748E+01</pdfrwt>
<totfact> 0.30102229E+09</totfact>
</mgrwt>
</event>
<event>
 4    1  0.4043737E+006  0.7067198E+01  0.7546771E-02  0.2294272E+00
         21   -1    0    0  503  502  0.00000000000E+00  0.00000000000E+00  0.28366517967E+02  0.28366517967E+02  0.00000000000E+00 0. -1.
         21   -1    0    0  501  503 -0.00000000000E+00 -0.00000000000E+00 -0.17703197741E+01  0.17703197741E+01  0.00000000000E+00 0.  1.
          5    1    1    2  501    0 -0.39844820448E+01  0.34610960000E+01  0.12188050539E+02  0.14088784853E+02  0.47000000000E+01 0. -1.
         -5    1    1    2    0  502  0.39844820448E+01 -0.34610960000E+01  0.14408147653E+02  0.16048052888E+02  0.47000000000E+01 0.  1.
<mgrwt>
<rscale>  2 0.70671977E+01</rscale>
<asrwt>0</asrwt>
<pdfrwt beam="1">  1       21 0.43640793E-02 0.70671977E+01</pdfrwt>
<pdfrwt beam="2">  1       21 0.27235691E-03 0.70671977E+01</pdfrwt>
<totfact> 0.26399930E+09</totfact>
</mgrwt>
</event>
<event>
 4    1  0.4043737E+006  0.6658982E+01  0.7546771E-02  0.2336811E+00
         21   -1    0    0  503  502  0.00000000000E+00  0.00000000000E+00  0.21546910425E+01  0.21546910425E+01  0.00000000000E+00 0. -1.
         21   -1    0    0  501  503 -0.00000000000E+00 -0.00000000000E+00 -0.20805939570E+02  0.20805939570E+02  0.00000000000E+00 0. -1.
          5    1    1    2  501    0  0.46229518725E+01  0.93827095131E+00 -0.10523816977E+02  0.12453624379E+02  0.47000000000E+01 0. -1.
         -5    1    1    2    0  502 -0.46229518725E+01 -0.93827095131E+00 -0.81274315500E+01  0.10507006234E+02  0.47000000000E+01 0. -1.
<mgrwt>
<rscale>  2 0.66589816E+01</rscale>
<asrwt>0</asrwt>
<pdfrwt beam="1">  1       21 0.33149092E-03 0.66589816E+01</pdfrwt>
<pdfrwt beam="2">  1       21 0.32009138E-02 0.66589816E+01</pdfrwt>
<totfact> 0.30347956E+09</totfact>
</mgrwt>
</event>
<event>
 4    1  0.4043737E+006  0.5878224E+01  0.7546771E-02  0.2431547E+00
         21   -1    0    0  503  502  0.00000000000E+00  0.00000000000E+00  0.39897555250E+02  0.39897555250E+02  0.00000000000E+00 0. -1.
         21   -1    0    0  501  503 -0.00000000000E+00 -0.00000000000E+00 -0.86690085565E+00  0.86690085565E+00  0.00000000000E+00 0. -1.
          5    1    1    2  501    0 -0.35298725442E+01  0.59310002748E-01  0.20151614707E+02  0.20991452860E+02  0.47000000000E+01 0. -1.
         -5    1    1    2    0  502  0.35298725442E+01 -0.59310002748E-01  0.18879039688E+02  0.19773003246E+02  0.47000000000E+01 0. -1.
<mgrwt>
<rscale>  2 0.58782240E+01</rscale>
<asrwt>0</asrwt>
<pdfrwt beam="1">  1       21 0.61380840E-02 0.58782240E+01</pdfrwt>
<pdfrwt beam="2">  1       21 0.13336939E-03 0.58782240E+01</pdfrwt>
<totfact> 0.36085969E+09</totfact>
</mgrwt>
</event>
<event>
 4    1  0.4043737E+006  0.7099530E+01  0.7546771E-02  0.2291075E+00
         21   -1    0    0  501  502  0.00000000000E+00  0.00000000000E+00  0.34541973598E+03  0.34541973598E+03  0.00000000000E+00 0. -1.
         21   -1    0    0  502  503 -0.00000000000E+00 -0.00000000000E+00 -0.14926901680E+00  0.14926901680E+00  0.00000000000E+00 0. -1.
          5    1    1    2  501    0  0.53184078607E+01  0.16693465660E+00  0.14675081601E+03  0.14692244665E+03  0.47000000000E+01 0. -1.
         -5    1    1    2    0  503 -0.53184078607E+01 -0.16693465660E+00  0.19851965095E+03  0.19864655835E+03  0.47000000000E+01 0. -1.
<mgrwt>
<rscale>  2 0.70995302E+01</rscale>
<asrwt>0</asrwt>
<pdfrwt beam="1">  1       21 0.53140858E-01 0.70995302E+01</pdfrwt>
<pdfrwt beam="2">  1       21 0.22964741E-04 0.70995302E+01</pdfrwt>
<totfact> 0.13210549E+09</totfact>
</mgrwt>
</event>
<event>
 4    1  0.4043737E+006  0.7629272E+01  0.7546771E-02  0.2241871E+00
         21   -1    0    0  501  502  0.00000000000E+00  0.00000000000E+00  0.66658212959E+01  0.66658212959E+01  0.00000000000E+00 0.  1.
         21   -1    0    0  502  503 -0.00000000000E+00 -0.00000000000E+00 -0.18855314735E+02  0.18855314735E+02  0.00000000000E+00 0. -1.
          5    1    1    2  501    0 -0.49249957991E+01  0.34438660882E+01  0.32553258121E+01  0.82947539685E+01  0.47000000000E+01 0.  1.
         -5    1    1    2    0  503  0.49249957991E+01 -0.34438660882E+01 -0.15444819252E+02  0.17226382063E+02  0.47000000000E+01 0. -1.
<mgrwt>
<rscale>  2 0.76292724E+01</rscale>
<asrwt>0</asrwt>
<pdfrwt beam="1">  1       21 0.10255110E-02 0.76292724E+01</pdfrwt>
<pdfrwt beam="2">  1       21 0.29008176E-02 0.76292724E+01</pdfrwt>
<totfact> 0.79195577E+08</totfact>
</mgrwt>
</event>
<event>
 4    1  0.4043737E+006  0.4929794E+01  0.7546771E-02  0.2579761E+00
         21   -1    0    0  501  502  0.00000000000E+00  0.00000000000E+00  0.24530561221E+02  0.24530561221E+02  0.00000000000E+00 0.  1.
         21   -1    0    0  502  503 -0.00000000000E+00 -0.00000000000E+00 -0.42211600491E+01  0.42211600491E+01  0.00000000000E+00 0.  1.
          5    1    1    2  501    0  0.30086785082E+00  0.14568268248E+01  0.22730885924E+02  0.23259321588E+02  0.47000000000E+01 0.  1.
         -5    1    1    2    0  503 -0.30086785082E+00 -0.14568268248E+01 -0.24214847519E+01  0.54923996818E+01  0.47000000000E+01 0.  1.
<mgrwt>
<rscale>  2 0.49297937E+01</rscale>
<asrwt>0</asrwt>
<pdfrwt beam="1">  1       21 0.37739324E-02 0.49297937E+01</pdfrwt>
<pdfrwt beam="2">  1       21 0.64940925E-03 0.49297937E+01</pdfrwt>
<totfact> 0.72472307E+08</totfact>
</mgrwt>
</event>
<event>
 4    1  0.4043737E+006  0.6183622E+01  0.7546771E-02  0.2392121E+00
         21   -1    0    0  503  502  0.00000000000E+00  0.00000000000E+00  0.16141959777E+02  0.16141959777E+02  0.00000000000E+00 0. -1.
         21   -1    0    0  501  503 -0.00000000000E+00 -0.00000000000E+00 -0.29253663172E+01  0.29253663172E+01  0.00000000000E+00 0. -1.
          5    1    1    2  501    0 -0.31260357062E+01  0.25248923367E+01  0.24499034303E+01  0.66512560743E+01  0.47000000000E+01 0. -1.
         -5    1    1    2    0  502  0.31260357062E+01 -0.25248923367E+01  0.10766690030E+02  0.12416070020E+02  0.47000000000E+01 0. -1.
<mgrwt>
<rscale>  2 0.61836220E+01</rscale>
<asrwt>0</asrwt>
<pdfrwt beam="1">  1       21 0.24833784E-02 0.61836220E+01</pdfrwt>
<pdfrwt beam="2">  1       21 0.45005637E-03 0.61836220E+01</pdfrwt>
<totfact> 0.27010699E+09</totfact>
</mgrwt>
</event>
<event>
 4    1  0.4043737E+006  0.5416937E+01  0.7546771E-02  0.2498111E+00
         21   -1    0    0  501  502  0.00000000000E+00  0.00000000000E+00  0.70209667186E+01  0.70209667186E+01  0.00000000000E+00 0.  1.
         21   -1    0    0  502  503 -0.00000000000E+00 -0.00000000000E+00 -0.42099610804E+01  0.42099610804E+01  0.00000000000E+00 0. -1.
          5    1    1    2  501    0  0.24466848866E+01  0.11255852102E+01  0.92681455865E+00  0.54956523021E+01  0.47000000000E+01 0. -1.
         -5    1    1    2    0  503 -0.24466848866E+01 -0.11255852102E+01  0.18841910795E+01  0.57352754968E+01  0.47000000000E+01 0. -1.
<mgrwt>
<rscale>  2 0.54169372E+01</rscale>
<asrwt>0</asrwt>
<pdfrwt beam="1">  1       21 0.10801487E-02 0.54169372E+01</pdfrwt>
<pdfrwt beam="2">  1       21 0.64768632E-03 0.54169372E+01</pdfrwt>
<totfact> 0.47281715E+09</totfact>
</mgrwt>
</event>
<event>
 4    1  0.4043737E+006  0.6209709E+01  0.7546771E-02  0.2388903E+00
         21   -1    0    0  501  502  0.00000000000E+00  0.00000000000E+00  0.37428748029E-01  0.37428748029E-01  0.00000000000E+00 0. -1.
         21   -1    0    0  502  503 -0.00000000000E+00 -0.00000000000E+00 -0.11099973321E+04  0.11099973321E+04  0.00000000000E+00 0.  1.
          5    1    1    2  501    0  0.29112969132E+01  0.28275147919E+01 -0.40620203535E+03  0.40624949724E+03  0.47000000000E+01 0.  1.
         -5    1    1    2    0  503 -0.29112969132E+01 -0.28275147919E+01 -0.70375786801E+03  0.70378526362E+03  0.47000000000E+01 0. -1.
<mgrwt>
<rscale>  2 0.62097093E+01</rscale>
<asrwt>0</asrwt>
<pdfrwt beam="1">  1       21 0.57575340E-05 0.62097093E+01</pdfrwt>
<pdfrwt beam="2">  1       21 0.17079062E+00 0.62097093E+01</pdfrwt>
<totfact> 0.73273305E+08</totfact>
</mgrwt>
</event>
<event>
 4    1  0.4043737E+006  0.6440701E+01  0.7546771E-02  0.2361367E+00
         21   -1    0    0  501  502  0.00000000000E+00  0.00000000000E+00  0.24736663545E+02  0.24736663545E+02  0.00000000000E+00 0.  1.
         21   -1    0    0  502  503 -0.00000000000E+00 -0.00000000000E+00 -0.19483790156E+02  0.19483790156E+02  0.00000000000E+00 0. -1.
          5    1    1    2  501    0 -0.30381440508E+01  0.31878373004E+01  0.23763744474E+02  0.24621092124E+02  0.47000000000E+01 0.  1.
         -5    1    1    2    0  503  0.30381440508E+01 -0.31878373004E+01 -0.18510871085E+02  0.19599361577E+02  0.47000000000E+01 0. -1.
<mgrwt>
<rscale>  2 0.64407007E+01</rscale>
<asrwt>0</asrwt>
<pdfrwt beam="1">  1       21 0.38056406E-02 0.64407007E+01</pdfrwt>
<pdfrwt beam="2">  1       21 0.29975062E-02 0.64407007E+01</pdfrwt>
<totfact> 0.10075820E+08</totfact>
</mgrwt>
</event>
<event>
 4    1  0.4043737E+006  0.6096715E+01  0.7546771E-02  0.2403004E+00
         21   -1    0    0  503  502  0.00000000000E+00  0.00000000000E+00  0.75990592300E+03  0.75990592300E+03  0.00000000000E+00 0. -1.
         21   -1    0    0  501  503 -0.00000000000E+00 -0.00000000000E+00 -0.54229297636E+01  0.54229297636E+01  0.00000000000E+00 0. -1.
          5    1    1    2  501    0 -0.25780294401E+01 -0.29040820908E+01 -0.36932382429E+01  0.71281089570E+01  0.47000000000E+01 0. -1.
         -5    1    1    2    0  502  0.25780294401E+01  0.29040820908E+01  0.75817623148E+03  0.75820074381E+03  0.47000000000E+01 0. -1.
<mgrwt>
<rscale>  2 0.60967146E+01</rscale>
<asrwt>0</asrwt>
<pdfrwt beam="1">  1       21 0.11690852E+00 0.60967146E+01</pdfrwt>
<pdfrwt beam="2">  1       21 0.83429749E-03 0.60967146E+01</pdfrwt>
<totfact> 0.19414037E+06</totfact>
</mgrwt>
</event>
<event>
 4    1  0.4043737E+006  0.1022857E+02  0.7546771E-02  0.2062208E+00
         21   -1    0    0  503  502  0.00000000000E+00  0.00000000000E+00  0.22713782538E+01  0.22713782538E+01  0.00000000000E+00 0.  1.
         21   -1    0    0  501  503 -0.00000000000E+00 -0.00000000000E+00 -0.49385661510E+02  0.49385661510E+02  0.00000000000E+00 0. -1.
          5    1    1    2  501    0  0.54963899744E+01 -0.72334945101E+01 -0.30257858514E+02  0.31939970999E+02  0.47000000000E+01 0. -1.
         -5    1    1    2    0  502 -0.54963899744E+01  0.72334945101E+01 -0.16856424742E+02  0.19717068764E+02  0.47000000000E+01 0.  1.
<mgrwt>
<rscale>  2 0.10228575E+02</rscale>
<asrwt>0</asrwt>
<pdfrwt beam="1">  1       21 0.34944285E-03 0.10228575E+02</pdfrwt>
<pdfrwt beam="2">  1       21 0.75977932E-02 0.10228575E+02</pdfrwt>
<totfact> 0.10217000E+09</totfact>
</mgrwt>
</event>
<event>
 4    1  0.4043737E+006  0.4829810E+01  0.7546771E-02  0.2598261E+00
         21   -1    0    0  503  502  0.00000000000E+00  0.00000000000E+00  0.80104287928E+03  0.80104287928E+03  0.00000000000E+00 0.  1.
         21   -1    0    0  501  503 -0.00000000000E+00 -0.00000000000E+00 -0.11057873258E+00  0.11057873258E+00  0.00000000000E+00 0.  1.
          5    1    1    2  501    0 -0.11121565083E+01 -0.13020222613E-01  0.56657792328E+02  0.56863278951E+02  0.47000000000E+01 0.  1.
         -5    1    1    2    0  502  0.11121565083E+01  0.13020222613E-01  0.74427450822E+03  0.74429017906E+03  0.47000000000E+01 0.  1.
<mgrwt>
<rscale>  2 0.48298097E+01</rscale>
<asrwt>0</asrwt>
<pdfrwt beam="1">  1       21 0.12323272E+00 0.48298097E+01</pdfrwt>
<pdfrwt beam="2">  1       21 0.17012754E-04 0.48298097E+01</pdfrwt>
<totfact> 0.29250632E+08</totfact>
</mgrwt>
</event>
<event>
 4    1  0.4043737E+006  0.5002685E+01  0.7546771E-02  0.2566678E+00
         21   -1    0    0  501  502  0.00000000000E+00  0.00000000000E+00  0.66851113748E-01  0.66851113748E-01  0.00000000000E+00 0. -1.
         21   -1    0    0  502  503 -0.00000000000E+00 -0.00000000000E+00 -0.57674831832E+03  0.57674831832E+03  0.00000000000E+00 0. -1.
          5    1    1    2  501    0 -0.11237066327E+01 -0.12938874235E+01 -0.11749719700E+03  0.11760364860E+03  0.47000000000E+01 0. -1.
         -5    1    1    2    0  503  0.11237066327E+01  0.12938874235E+01 -0.45918427020E+03  0.45921152083E+03  0.47000000000E+01 0. -1.
<mgrwt>
<rscale>  2 0.50026854E+01</rscale>
<asrwt>0</asrwt>
<pdfrwt beam="1">  1       21 0.10285498E-04 0.50026854E+01</pdfrwt>
<pdfrwt beam="2">  1       21 0.88724374E-01 0.50026854E+01</pdfrwt>
<totfact> 0.11315243E+09</totfact>
</mgrwt>
</event>
<event>
 4    1  0.4043737E+006  0.6064162E+01  0.7546771E-02  0.2407147E+00
         21   -1    0    0  501  502  0.00000000000E+00  0.00000000000E+00  0.34149869477E+03  0.34149869477E+03  0.00000000000E+00 0.  1.
         21   -1    0    0  502  503 -0.00000000000E+00 -0.00000000000E+00 -0.13253076998E+00  0.13253076998E+00  0.00000000000E+00 0. -1.
          5    1    1    2  501    0 -0.31604279250E+01  0.21669696377E+01  0.24464381176E+03  0.24471895859E+03  0.47000000000E+01 0. -1.
         -5    1    1    2    0  503  0.31604279250E+01 -0.21669696377E+01  0.96722352247E+02  0.96912266954E+02  0.47000000000E+01 0. -1.
<mgrwt>
<rscale>  2 0.60641621E+01</rscale>
<asrwt>0</asrwt>
<pdfrwt beam="1">  1       21 0.52537556E-01 0.60641621E+01</pdfrwt>
<pdfrwt beam="2">  1       21 0.20389623E-04 0.60641621E+01</pdfrwt>
<totfact> 0.14172757E+09</totfact>
</mgrwt>
</event>
<event>
 4    1  0.4043737E+006  0.5701140E+01  0.7546771E-02  0.2456023E+00
         21   -1    0    0  501  502  0.00000000000E+00  0.00000000000E+00  0.19997014949E+01  0.19997014949E+01  0.00000000000E+00 0. -1.
         21   -1    0    0  502  503 -0.00000000000E+00 -0.00000000000E+00 -0.19971964789E+02  0.19971964789E+02  0.00000000000E+00 0.  1.
          5    1    1    2  501    0 -0.23578318460E+01 -0.22030949712E+01 -0.42461178146E+01  0.71086225783E+01  0.47000000000E+01 0. -1.
         -5    1    1    2    0  503  0.23578318460E+01  0.22030949712E+01 -0.13726145479E+02  0.14863043705E+02  0.47000000000E+01 0.  1.
<mgrwt>
<rscale>  2 0.57011401E+01</rscale>
<asrwt>0</asrwt>
<pdfrwt beam="1">  1       21 0.30764639E-03 0.57011401E+01</pdfrwt>
<pdfrwt beam="2">  1       21 0.30726099E-02 0.57011401E+01</pdfrwt>
<totfact> 0.31198756E+09</totfact>
</mgrwt>
</event>
<event>
 4    1  0.4043737E+006  0.6257286E+01  0.7546771E-02  0.2383094E+00
         21   -1    0    0  501  502  0.00000000000E+00  0.00000000000E+00  0.87173600555E-01  0.87173600555E-01  0.00000000000E+00 0.  1.
         21   -1    0    0  502  503 -0.00000000000E+00 -0.00000000000E+00 -0.44929410751E+03  0.44929410751E+03  0.00000000000E+00 0.  1.
          5    1    1    2  501    0  0.18211003915E+01 -0.37077244086E+01 -0.22869040783E+03  0.22877599582E+03  0.47000000000E+01 0. -1.
         -5    1    1    2    0  503 -0.18211003915E+01  0.37077244086E+01 -0.22051652608E+03  0.22060528529E+03  0.47000000000E+01 0. -1.
<mgrwt>
<rscale>  2 0.62572859E+01</rscale>
<asrwt>0</asrwt>
<pdfrwt beam="1">  1       21 0.13411193E-04 0.62572859E+01</pdfrwt>
<pdfrwt beam="2">  1       21 0.69122839E-01 0.62572859E+01</pdfrwt>
<totfact> 0.15219592E+09</totfact>
</mgrwt>
</event>
<event>
 4    1  0.4043737E+006  0.5492649E+01  0.7546771E-02  0.2486538E+00
         21   -1    0    0  501  502  0.00000000000E+00  0.00000000000E+00  0.20632418266E+00  0.20632418266E+00  0.00000000000E+00 0.  1.
         21   -1    0    0  502  503 -0.00000000000E+00 -0.00000000000E+00 -0.11982487391E+04  0.11982487391E+04  0.00000000000E+00 0.  1.
          5    1    1    2  501    0 -0.16645070258E+01  0.23040430238E+01 -0.37544694011E+02  0.37944344061E+02  0.47000000000E+01 0.  1.
         -5    1    1    2    0  503  0.16645070258E+01 -0.23040430238E+01 -0.11604977209E+04  0.11605107192E+04  0.47000000000E+01 0.  1.
<mgrwt>
<rscale>  2 0.54926494E+01</rscale>
<asrwt>0</asrwt>
<pdfrwt beam="1">  1       21 0.31742657E-04 0.54926494E+01</pdfrwt>
<pdfrwt beam="2">  1       21 0.18434320E+00 0.54926494E+01</pdfrwt>
<totfact> 0.59283238E+07</totfact>
</mgrwt>
</event>
<event>
 4    1  0.4043737E+006  0.1535799E+02  0.7546771E-02  0.1857337E+00
         21   -1    0    0  501  502  0.00000000000E+00  0.00000000000E+00  0.12700032715E+01  0.12700032715E+01  0.00000000000E+00 0.  1.
         21   -1    0    0  502  503 -0.00000000000E+00 -0.00000000000E+00 -0.31937766104E+03  0.31937766104E+03  0.00000000000E+00 0. -1.
          5    1    1    2  501    0 -0.14440606760E+02  0.22906055950E+01 -0.55339462022E+02  0.57431037379E+02  0.47000000000E+01 0.  1.
         -5    1    1    2    0  503  0.14440606760E+02 -0.22906055950E+01 -0.26276819574E+03  0.26321662693E+03  0.47000000000E+01 0. -1.
<mgrwt>
<rscale>  2 0.15357995E+02</rscale>
<asrwt>0</asrwt>
<pdfrwt beam="1">  1       21 0.19538501E-03 0.15357995E+02</pdfrwt>
<pdfrwt beam="2">  1       21 0.49135052E-01 0.15357995E+02</pdfrwt>
<totfact> 0.11620206E+08</totfact>
</mgrwt>
</event>
<event>
 4    1  0.4043737E+006  0.7968418E+01  0.7546771E-02  0.2213186E+00
         21   -1    0    0  503  502  0.00000000000E+00  0.00000000000E+00  0.41967511532E+02  0.41967511532E+02  0.00000000000E+00 0.  1.
         21   -1    0    0  501  503 -0.00000000000E+00 -0.00000000000E+00 -0.31634166893E+01  0.31634166893E+01  0.00000000000E+00 0. -1.
          5    1    1    2  501    0  0.40148499669E+01  0.50285853265E+01  0.31028398115E+01  0.85512166116E+01  0.47000000000E+01 0. -1.
         -5    1    1    2    0  502 -0.40148499669E+01 -0.50285853265E+01  0.35701255032E+02  0.36579711610E+02  0.47000000000E+01 0.  1.
<mgrwt>
<rscale>  2 0.79684183E+01</rscale>
<asrwt>0</asrwt>
<pdfrwt beam="1">  1       21 0.64565398E-02 0.79684183E+01</pdfrwt>
<pdfrwt beam="2">  1       21 0.48667952E-03 0.79684183E+01</pdfrwt>
<totfact> 0.70792444E+08</totfact>
</mgrwt>
</event>
<event>
 4    1  0.4043737E+006  0.4820450E+01  0.7546771E-02  0.2600026E+00
         21   -1    0    0  501  502  0.00000000000E+00  0.00000000000E+00  0.43242028646E+00  0.43242028646E+00  0.00000000000E+00 0. -1.
         21   -1    0    0  502  503 -0.00000000000E+00 -0.00000000000E+00 -0.98846137352E+02  0.98846137352E+02  0.00000000000E+00 0. -1.
          5    1    1    2  501    0  0.62137221015E+00  0.87214466383E+00 -0.15673239647E+02  0.16397779751E+02  0.47000000000E+01 0. -1.
         -5    1    1    2    0  503 -0.62137221015E+00 -0.87214466383E+00 -0.82740477419E+02  0.82880777888E+02  0.47000000000E+01 0. -1.
<mgrwt>
<rscale>  2 0.48204502E+01</rscale>
<asrwt>0</asrwt>
<pdfrwt beam="1">  1       21 0.66526114E-04 0.48204502E+01</pdfrwt>
<pdfrwt beam="2">  1       21 0.15207117E-01 0.48204502E+01</pdfrwt>
<totfact> 0.19104476E+09</totfact>
</mgrwt>
</event>
<event>
 4    1  0.4043737E+006  0.2316685E+02  0.7546771E-02  0.1688820E+00
         21   -1    0    0  503  502  0.00000000000E+00  0.00000000000E+00  0.20742985255E+02  0.20742985255E+02  0.00000000000E+00 0. -1.
         21   -1    0    0  501  503 -0.00000000000E+00 -0.00000000000E+00 -0.26053254506E+02  0.26053254506E+02  0.00000000000E+00 0. -1.
          5    1    1    2  501    0  0.13199483641E+02 -0.18449573239E+02 -0.45961830150E+01  0.23618383081E+02  0.47000000000E+01 0. -1.
         -5    1    1    2    0  502 -0.13199483641E+02  0.18449573239E+02 -0.71408623598E+00  0.23177856679E+02  0.47000000000E+01 0. -1.
<mgrwt>
<rscale>  2 0.23166854E+02</rscale>
<asrwt>0</asrwt>
<pdfrwt beam="1">  1       21 0.31912285E-02 0.23166854E+02</pdfrwt>
<pdfrwt beam="2">  1       21 0.40081930E-02 0.23166854E+02</pdfrwt>
<totfact> 0.14806412E+08</totfact>
</mgrwt>
</event>
<event>
 4    1  0.4043737E+006  0.9787903E+01  0.7546771E-02  0.2087263E+00
         21   -1    0    0  501  502  0.00000000000E+00  0.00000000000E+00  0.10611236970E+03  0.10611236970E+03  0.00000000000E+00 0.  1.
         21   -1    0    0  502  503 -0.00000000000E+00 -0.00000000000E+00 -0.10314990618E+01  0.10314990618E+01  0.00000000000E+00 0. -1.
          5    1    1    2  501    0  0.60991056661E+01  0.60426779231E+01  0.71460136776E+02  0.72127347063E+02  0.47000000000E+01 0. -1.
         -5    1    1    2    0  503 -0.60991056661E+01 -0.60426779231E+01  0.33620733866E+02  0.35016521701E+02  0.47000000000E+01 0.  1.
<mgrwt>
<rscale>  2 0.97879031E+01</rscale>
<asrwt>0</asrwt>
<pdfrwt beam="1">  1       21 0.16324971E-01 0.97879031E+01</pdfrwt>
<pdfrwt beam="2">  1       21 0.15869225E-03 0.97879031E+01</pdfrwt>
<totfact> 0.88729059E+08</totfact>
</mgrwt>
</event>
<event>
 4    1  0.4043737E+006  0.5768692E+01  0.7546771E-02  0.2446537E+00
         21   -1    0    0  501  502  0.00000000000E+00  0.00000000000E+00  0.38596594979E+02  0.38596594979E+02  0.00000000000E+00 0. -1.
         21   -1    0    0  502  503 -0.00000000000E+00 -0.00000000000E+00 -0.86352346415E+00  0.86352346415E+00  0.00000000000E+00 0. -1.
          5    1    1    2  501    0  0.27572249597E+01  0.18935469888E+01  0.19640263209E+02  0.20469923023E+02  0.47000000000E+01 0. -1.
         -5    1    1    2    0  503 -0.27572249597E+01 -0.18935469888E+01  0.18092808307E+02  0.18990195420E+02  0.47000000000E+01 0. -1.
<mgrwt>
<rscale>  2 0.57686922E+01</rscale>
<asrwt>0</asrwt>
<pdfrwt beam="1">  1       21 0.59379364E-02 0.57686922E+01</pdfrwt>
<pdfrwt beam="2">  1       21 0.13284979E-03 0.57686922E+01</pdfrwt>
<totfact> 0.37476997E+09</totfact>
</mgrwt>
</event>
<event>
 4    1  0.4043737E+006  0.1204036E+02  0.7546771E-02  0.1974617E+00
         21   -1    0    0  501  502  0.00000000000E+00  0.00000000000E+00  0.14239509832E+01  0.14239509832E+01  0.00000000000E+00 0. -1.
         21   -1    0    0  502  503 -0.00000000000E+00 -0.00000000000E+00 -0.10184849456E+03  0.10184849456E+03  0.00000000000E+00 0.  1.
          5    1    1    2  501    0 -0.80274805191E+01  0.76445907669E+01 -0.49188113888E+02  0.50640307655E+02  0.47000000000E+01 0.  1.
         -5    1    1    2    0  503  0.80274805191E+01 -0.76445907669E+01 -0.51236429690E+02  0.52632137889E+02  0.47000000000E+01 0. -1.
<mgrwt>
<rscale>  2 0.12040358E+02</rscale>
<asrwt>0</asrwt>
<pdfrwt beam="1">  1       21 0.21906929E-03 0.12040358E+02</pdfrwt>
<pdfrwt beam="2">  1       21 0.15669005E-01 0.12040358E+02</pdfrwt>
<totfact> 0.67305151E+08</totfact>
</mgrwt>
</event>
<event>
 4    1  0.4043737E+006  0.5216586E+01  0.7546771E-02  0.2530109E+00
         21   -1    0    0  503  502  0.00000000000E+00  0.00000000000E+00  0.32345961749E+00  0.32345961749E+00  0.00000000000E+00 0. -1.
         21   -1    0    0  501  503 -0.00000000000E+00 -0.00000000000E+00 -0.17356278393E+03  0.17356278393E+03  0.00000000000E+00 0.  1.
          5    1    1    2  501    0  0.17830760657E+00  0.22563183242E+01 -0.14902970600E+03  0.14912097785E+03  0.47000000000E+01 0.  1.
         -5    1    1    2    0  502 -0.17830760657E+00 -0.22563183242E+01 -0.24209618313E+02  0.24765265693E+02  0.47000000000E+01 0. -1.
<mgrwt>
<rscale>  2 0.52165857E+01</rscale>
<asrwt>0</asrwt>
<pdfrwt beam="1">  1       21 0.49762883E-04 0.52165857E+01</pdfrwt>
<pdfrwt beam="2">  1       21 0.26702039E-01 0.52165857E+01</pdfrwt>
<totfact> 0.12305485E+09</totfact>
</mgrwt>
</event>
<event>
 4    1  0.4043737E+006  0.1079734E+02  0.7546771E-02  0.2032261E+00
         21   -1    0    0  503  502  0.00000000000E+00  0.00000000000E+00  0.23831754732E+03  0.23831754732E+03  0.00000000000E+00 0. -1.
         21   -1    0    0  501  503 -0.00000000000E+00 -0.00000000000E+00 -0.11397980321E+01  0.11397980321E+01  0.00000000000E+00 0.  1.
          5    1    1    2  501    0 -0.19702756745E+01 -0.95189602107E+01  0.28131519266E+02  0.30132457018E+02  0.47000000000E+01 0.  1.
         -5    1    1    2    0  502  0.19702756745E+01  0.95189602107E+01  0.20904623002E+03  0.20932488833E+03  0.47000000000E+01 0. -1.
<mgrwt>
<rscale>  2 0.10797342E+02</rscale>
<asrwt>0</asrwt>
<pdfrwt beam="1">  1       21 0.36664198E-01 0.10797342E+02</pdfrwt>
<pdfrwt beam="2">  1       21 0.17535373E-03 0.10797342E+02</pdfrwt>
<totfact> 0.20302760E+08</totfact>
</mgrwt>
</event>
<event>
 4    1  0.4043737E+006  0.9435477E+01  0.7546771E-02  0.2108615E+00
         21   -1    0    0  501  502  0.00000000000E+00  0.00000000000E+00  0.41558931236E+02  0.41558931236E+02  0.00000000000E+00 0. -1.
         21   -1    0    0  502  503 -0.00000000000E+00 -0.00000000000E+00 -0.28050876492E+01  0.28050876492E+01  0.00000000000E+00 0.  1.
          5    1    1    2  501    0 -0.20222889509E+01 -0.79277094040E+01  0.85938568642E+01  0.12762546956E+02  0.47000000000E+01 0.  1.
         -5    1    1    2    0  503  0.20222889509E+01  0.79277094040E+01  0.30159986723E+02  0.31601471930E+02  0.47000000000E+01 0. -1.
<mgrwt>
<rscale>  2 0.94354771E+01</rscale>
<asrwt>0</asrwt>
<pdfrwt beam="1">  1       21 0.63936813E-02 0.94354771E+01</pdfrwt>
<pdfrwt beam="2">  1       21 0.43155198E-03 0.94354771E+01</pdfrwt>
<totfact> 0.94562950E+08</totfact>
</mgrwt>
</event>
<event>
 4    1  0.4043737E+006  0.7816132E+01  0.7546771E-02  0.2225817E+00
         21   -1    0    0  501  502  0.00000000000E+00  0.00000000000E+00  0.22362796320E+03  0.22362796320E+03  0.00000000000E+00 0. -1.
         21   -1    0    0  502  503 -0.00000000000E+00 -0.00000000000E+00 -0.34979318022E+00  0.34979318022E+00  0.00000000000E+00 0.  1.
          5    1    1    2  501    0  0.70154406422E+00  0.62056228770E+01  0.59230148102E+02  0.59743638687E+02  0.47000000000E+01 0.  1.
         -5    1    1    2    0  503 -0.70154406422E+00 -0.62056228770E+01  0.16404802192E+03  0.16423411769E+03  0.47000000000E+01 0. -1.
<mgrwt>
<rscale>  2 0.78161320E+01</rscale>
<asrwt>0</asrwt>
<pdfrwt beam="1">  1       21 0.34404188E-01 0.78161320E+01</pdfrwt>
<pdfrwt beam="2">  1       21 0.53814514E-04 0.78161320E+01</pdfrwt>
<totfact> 0.97071402E+08</totfact>
</mgrwt>
</event>
<event>
 4    1  0.4043737E+006  0.6246494E+01  0.7546771E-02  0.2384405E+00
         21   -1    0    0  503  502  0.00000000000E+00  0.00000000000E+00  0.77228862200E+01  0.77228862200E+01  0.00000000000E+00 0.  1.
         21   -1    0    0  501  503 -0.00000000000E+00 -0.00000000000E+00 -0.16939388834E+02  0.16939388834E+02  0.00000000000E+00 0.  1.
          5    1    1    2  501    0 -0.39176799316E+01 -0.12571680019E+01 -0.14938034360E+02  0.16191465591E+02  0.47000000000E+01 0.  1.
         -5    1    1    2    0  502  0.39176799316E+01  0.12571680019E+01  0.57215317465E+01  0.84708094629E+01  0.47000000000E+01 0.  1.
<mgrwt>
<rscale>  2 0.62464940E+01</rscale>
<asrwt>0</asrwt>
<pdfrwt beam="1">  1       21 0.11881364E-02 0.62464940E+01</pdfrwt>
<pdfrwt beam="2">  1       21 0.26060598E-02 0.62464940E+01</pdfrwt>
<totfact> 0.64984061E+08</totfact>
</mgrwt>
</event>
<event>
 4    1  0.4043737E+006  0.5484996E+01  0.7546771E-02  0.2487696E+00
         21   -1    0    0  501  502  0.00000000000E+00  0.00000000000E+00  0.30062718030E+03  0.30062718030E+03  0.00000000000E+00 0. -1.
         21   -1    0    0  502  503 -0.00000000000E+00 -0.00000000000E+00 -0.43193335488E+00  0.43193335488E+00  0.00000000000E+00 0. -1.
          5    1    1    2  501    0  0.27183855945E+01 -0.77817918624E+00  0.28204172136E+03  0.28209505095E+03  0.47000000000E+01 0. -1.
         -5    1    1    2    0  503 -0.27183855945E+01  0.77817918624E+00  0.18153525586E+02  0.18964062706E+02  0.47000000000E+01 0. -1.
<mgrwt>
<rscale>  2 0.54849962E+01</rscale>
<asrwt>0</asrwt>
<pdfrwt beam="1">  1       21 0.46250168E-01 0.54849962E+01</pdfrwt>
<pdfrwt beam="2">  1       21 0.66451526E-04 0.54849962E+01</pdfrwt>
<totfact> 0.34242594E+08</totfact>
</mgrwt>
</event>
<event>
 4    1  0.4043737E+006  0.8275543E+01  0.7546771E-02  0.2188856E+00
         21   -1    0    0  501  502  0.00000000000E+00  0.00000000000E+00  0.15786027476E+01  0.15786027476E+01  0.00000000000E+00 0.  1.
         21   -1    0    0  502  503 -0.00000000000E+00 -0.00000000000E+00 -0.43424930152E+02  0.43424930152E+02  0.00000000000E+00 0. -1.
          5    1    1    2  501    0 -0.41808372707E+01  0.53772868878E+01 -0.20224433226E+02  0.21852055140E+02  0.47000000000E+01 0. -1.
         -5    1    1    2    0  503  0.41808372707E+01 -0.53772868878E+01 -0.21621894179E+02  0.23151477759E+02  0.47000000000E+01 0. -1.
<mgrwt>
<rscale>  2 0.82755432E+01</rscale>
<asrwt>0</asrwt>
<pdfrwt beam="1">  1       21 0.24286195E-03 0.82755432E+01</pdfrwt>
<pdfrwt beam="2">  1       21 0.66807587E-02 0.82755432E+01</pdfrwt>
<totfact> 0.18230154E+09</totfact>
</mgrwt>
</event>
<event>
 4    1  0.4043737E+006  0.5222322E+01  0.7546771E-02  0.2529163E+00
         21   -1    0    0  503  502  0.00000000000E+00  0.00000000000E+00  0.72133027255E-01  0.72133027255E-01  0.00000000000E+00 0.  1.
         21   -1    0    0  501  503 -0.00000000000E+00 -0.00000000000E+00 -0.39587290863E+03  0.39587290863E+03  0.00000000000E+00 0.  1.
          5    1    1    2  501    0 -0.15057713026E+01 -0.17074239723E+01 -0.23986187182E+03  0.23991871581E+03  0.47000000000E+01 0. -1.
         -5    1    1    2    0  502  0.15057713026E+01  0.17074239723E+01 -0.15593890379E+03  0.15602632585E+03  0.47000000000E+01 0. -1.
<mgrwt>
<rscale>  2 0.52223217E+01</rscale>
<asrwt>0</asrwt>
<pdfrwt beam="1">  1       21 0.11097475E-04 0.52223217E+01</pdfrwt>
<pdfrwt beam="2">  1       21 0.60903054E-01 0.52223217E+01</pdfrwt>
<totfact> 0.21607263E+09</totfact>
</mgrwt>
</event>
<event>
 4    1  0.4043737E+006  0.8737594E+01  0.7546771E-02  0.2154862E+00
         21   -1    0    0  501  502  0.00000000000E+00  0.00000000000E+00  0.33354236209E+03  0.33354236209E+03  0.00000000000E+00 0. -1.
         21   -1    0    0  502  503 -0.00000000000E+00 -0.00000000000E+00 -0.30862425210E+00  0.30862425210E+00  0.00000000000E+00 0. -1.
          5    1    1    2  501    0 -0.40063066303E+01  0.61810239282E+01  0.25146096494E+03  0.25161272313E+03  0.47000000000E+01 0. -1.
         -5    1    1    2    0  503  0.40063066303E+01 -0.61810239282E+01  0.81772772894E+02  0.82238263214E+02  0.47000000000E+01 0. -1.
<mgrwt>
<rscale>  2 0.87375940E+01</rscale>
<asrwt>0</asrwt>
<pdfrwt beam="1">  1       21 0.51313921E-01 0.87375940E+01</pdfrwt>
<pdfrwt beam="2">  1       21 0.47480921E-04 0.87375940E+01</pdfrwt>
<totfact> 0.59856159E+08</totfact>
</mgrwt>
</event>
<event>
 4    1  0.4043737E+006  0.8497557E+01  0.7546771E-02  0.2172153E+00
         21   -1    0    0  503  502  0.00000000000E+00  0.00000000000E+00  0.37471725895E+01  0.37471725895E+01  0.00000000000E+00 0.  1.
         21   -1    0    0  501  503 -0.00000000000E+00 -0.00000000000E+00 -0.46784359332E+02  0.46784359332E+02  0.00000000000E+00 0. -1.
          5    1    1    2  501    0  0.69017104991E+01  0.15763482796E+01 -0.40894447076E+02  0.41767981557E+02  0.47000000000E+01 0. -1.
         -5    1    1    2    0  502 -0.69017104991E+01 -0.15763482796E+01 -0.21427396667E+01  0.87635503645E+01  0.47000000000E+01 0.  1.
<mgrwt>
<rscale>  2 0.84975574E+01</rscale>
<asrwt>0</asrwt>
<pdfrwt beam="1">  1       21 0.57648812E-03 0.84975574E+01</pdfrwt>
<pdfrwt beam="2">  1       21 0.71975934E-02 0.84975574E+01</pdfrwt>
<totfact> 0.49038729E+08</totfact>
</mgrwt>
</event>
<event>
 4    1  0.4043737E+006  0.4928650E+01  0.7546771E-02  0.2579969E+00
         21   -1    0    0  501  502  0.00000000000E+00  0.00000000000E+00  0.13113004037E+00  0.13113004037E+00  0.00000000000E+00 0.  1.
         21   -1    0    0  502  503 -0.00000000000E+00 -0.00000000000E+00 -0.25112108391E+03  0.25112108391E+03  0.00000000000E+00 0.  1.
          5    1    1    2  501    0 -0.11534920238E+01  0.93330050857E+00 -0.61153369073E+02  0.61351659657E+02  0.47000000000E+01 0.  1.
         -5    1    1    2    0  503  0.11534920238E+01 -0.93330050857E+00 -0.18983658479E+03  0.18990055429E+03  0.47000000000E+01 0.  1.
<mgrwt>
<rscale>  2 0.49286503E+01</rscale>
<asrwt>0</asrwt>
<pdfrwt beam="1">  1       21 0.20174005E-04 0.49286503E+01</pdfrwt>
<pdfrwt beam="2">  1       21 0.38633720E-01 0.49286503E+01</pdfrwt>
<totfact> 0.20855350E+09</totfact>
</mgrwt>
</event>
<event>
 4    1  0.4043737E+006  0.5234145E+01  0.7546771E-02  0.2527221E+00
         21   -1    0    0  501  502  0.00000000000E+00  0.00000000000E+00  0.19807524262E+01  0.19807524262E+01  0.00000000000E+00 0.  1.
         21   -1    0    0  502  503 -0.00000000000E+00 -0.00000000000E+00 -0.19016285000E+02  0.19016285000E+02  0.00000000000E+00 0.  1.
          5    1    1    2  501    0  0.22353032876E+01 -0.55650215208E+00 -0.30357392542E+01  0.60507841023E+01  0.47000000000E+01 0.  1.
         -5    1    1    2    0  503 -0.22353032876E+01  0.55650215208E+00 -0.13999793320E+02  0.14946253324E+02  0.47000000000E+01 0.  1.
<mgrwt>
<rscale>  2 0.52341451E+01</rscale>
<asrwt>0</asrwt>
<pdfrwt beam="1">  1       21 0.30473116E-03 0.52341451E+01</pdfrwt>
<pdfrwt beam="2">  1       21 0.29255822E-02 0.52341451E+01</pdfrwt>
<totfact> 0.31283791E+09</totfact>
</mgrwt>
</event>
<event>
 4    1  0.4043737E+006  0.5358218E+01  0.7546771E-02  0.2507277E+00
         21   -1    0    0  501  502  0.00000000000E+00  0.00000000000E+00  0.64993670118E+03  0.64993670118E+03  0.00000000000E+00 0.  1.
         21   -1    0    0  502  503 -0.00000000000E+00 -0.00000000000E+00 -0.55802309697E-01  0.55802309697E-01  0.00000000000E+00 0.  1.
          5    1    1    2  501    0  0.28487888333E+00  0.25572136863E+01  0.47329640532E+03  0.47332673470E+03  0.47000000000E+01 0.  1.
         -5    1    1    2    0  503 -0.28487888333E+00 -0.25572136863E+01  0.17658449356E+03  0.17666576879E+03  0.47000000000E+01 0.  1.
<mgrwt>
<rscale>  2 0.53582178E+01</rscale>
<asrwt>0</asrwt>
<pdfrwt beam="1">  1       21 0.99984200E-01 0.53582178E+01</pdfrwt>
<pdfrwt beam="2">  1       21 0.85854912E-05 0.53582178E+01</pdfrwt>
<totfact> 0.11973226E+09</totfact>
</mgrwt>
</event>
<event>
 4    1  0.4043737E+006  0.5823464E+01  0.7546771E-02  0.2438982E+00
         21   -1    0    0  503  502  0.00000000000E+00  0.00000000000E+00  0.12102284479E+01  0.12102284479E+01  0.00000000000E+00 0. -1.
         21   -1    0    0  501  503 -0.00000000000E+00 -0.00000000000E+00 -0.17300173620E+03  0.17300173620E+03  0.00000000000E+00 0. -1.
          5    1    1    2  501    0  0.25187994768E+01  0.23405942063E+01 -0.16563585147E+03  0.16573819121E+03  0.47000000000E+01 0. -1.
         -5    1    1    2    0  502 -0.25187994768E+01 -0.23405942063E+01 -0.61556562741E+01  0.84737734339E+01  0.47000000000E+01 0. -1.
<mgrwt>
<rscale>  2 0.58234639E+01</rscale>
<asrwt>0</asrwt>
<pdfrwt beam="1">  1       21 0.18618900E-03 0.58234639E+01</pdfrwt>
<pdfrwt beam="2">  1       21 0.26615651E-01 0.58234639E+01</pdfrwt>
<totfact> 0.23047986E+08</totfact>
</mgrwt>
</event>
<event>
 4    1  0.4043737E+006  0.9666849E+01  0.7546771E-02  0.2094459E+00
         21   -1    0    0  503  502  0.00000000000E+00  0.00000000000E+00  0.46018905030E+02  0.46018905030E+02  0.00000000000E+00 0.  1.
         21   -1    0    0  501  503 -0.00000000000E+00 -0.00000000000E+00 -0.25714918948E+01  0.25714918948E+01  0.00000000000E+00 0. -1.
          5    1    1    2  501    0  0.84340866751E+01  0.47344232129E+00  0.10581637167E+02  0.14332446086E+02  0.47000000000E+01 0. -1.
         -5    1    1    2    0  502 -0.84340866751E+01 -0.47344232129E+00  0.32865775968E+02  0.34257950839E+02  0.47000000000E+01 0.  1.
<mgrwt>
<rscale>  2 0.96668488E+01</rscale>
<asrwt>0</asrwt>
<pdfrwt beam="1">  1       21 0.70798309E-02 0.96668488E+01</pdfrwt>
<pdfrwt beam="2">  1       21 0.39561417E-03 0.96668488E+01</pdfrwt>
<totfact> 0.92652605E+08</totfact>
</mgrwt>
</event>
<event>
 4    1  0.4043737E+006  0.6305903E+01  0.7546771E-02  0.2377233E+00
         21   -1    0    0  503  502  0.00000000000E+00  0.00000000000E+00  0.12152152168E+01  0.12152152168E+01  0.00000000000E+00 0. -1.
         21   -1    0    0  501  503 -0.00000000000E+00 -0.00000000000E+00 -0.43564423981E+02  0.43564423981E+02  0.00000000000E+00 0. -1.
          5    1    1    2  501    0  0.41552208213E+01  0.63917647704E+00 -0.32344409234E+02  0.32953379422E+02  0.47000000000E+01 0. -1.
         -5    1    1    2    0  502 -0.41552208213E+01 -0.63917647704E+00 -0.10004799530E+02  0.11826259776E+02  0.47000000000E+01 0. -1.
<mgrwt>
<rscale>  2 0.63059025E+01</rscale>
<asrwt>0</asrwt>
<pdfrwt beam="1">  1       21 0.18695620E-03 0.63059025E+01</pdfrwt>
<pdfrwt beam="2">  1       21 0.67022186E-02 0.63059025E+01</pdfrwt>
<totfact> 0.21249512E+09</totfact>
</mgrwt>
</event>
<event>
 4    1  0.4043737E+006  0.6764789E+01  0.7546771E-02  0.2325380E+00
         21   -1    0    0  501  502  0.00000000000E+00  0.00000000000E+00  0.61163689304E+00  0.61163689304E+00  0.00000000000E+00 0. -1.
         21   -1    0    0  502  503 -0.00000000000E+00 -0.00000000000E+00 -0.11813842188E+03  0.11813842188E+03  0.00000000000E+00 0. -1.
          5    1    1    2  501    0  0.48601015171E+01  0.22756812944E+00 -0.22809409116E+02  0.23791416903E+02  0.47000000000E+01 0. -1.
         -5    1    1    2    0  503 -0.48601015171E+01 -0.22756812944E+00 -0.94717375871E+02  0.94958641871E+02  0.47000000000E+01 0. -1.
<mgrwt>
<rscale>  2 0.67647893E+01</rscale>
<asrwt>0</asrwt>
<pdfrwt beam="1">  1       21 0.94097978E-04 0.67647893E+01</pdfrwt>
<pdfrwt beam="2">  1       21 0.18175143E-01 0.67647893E+01</pdfrwt>
<totfact> 0.12049803E+09</totfact>
</mgrwt>
</event>
<event>
 4    1  0.4043737E+006  0.7235041E+01  0.7546771E-02  0.2277931E+00
         21   -1    0    0  503  502  0.00000000000E+00  0.00000000000E+00  0.55828237303E+00  0.55828237303E+00  0.00000000000E+00 0. -1.
         21   -1    0    0  501  503 -0.00000000000E+00 -0.00000000000E+00 -0.11492041774E+03  0.11492041774E+03  0.00000000000E+00 0. -1.
          5    1    1    2  501    0  0.48180774148E+01  0.26536665101E+01 -0.32406148965E+02  0.33203980284E+02  0.47000000000E+01 0. -1.
         -5    1    1    2    0  502 -0.48180774148E+01 -0.26536665101E+01 -0.81955986405E+02  0.82274719833E+02  0.47000000000E+01 0. -1.
<mgrwt>
<rscale>  2 0.72350408E+01</rscale>
<asrwt>0</asrwt>
<pdfrwt beam="1">  1       21 0.85889632E-04 0.72350408E+01</pdfrwt>
<pdfrwt beam="2">  1       21 0.17680057E-01 0.72350408E+01</pdfrwt>
<totfact> 0.14955455E+09</totfact>
</mgrwt>
</event>
<event>
 4    1  0.4043737E+006  0.5423911E+01  0.7546771E-02  0.2497033E+00
         21   -1    0    0  503  502  0.00000000000E+00  0.00000000000E+00  0.50610004348E+01  0.50610004348E+01  0.00000000000E+00 0.  1.
         21   -1    0    0  501  503 -0.00000000000E+00 -0.00000000000E+00 -0.60608741589E+01  0.60608741589E+01  0.00000000000E+00 0. -1.
          5    1    1    2  501    0  0.26874500349E+01 -0.32623234682E+00 -0.16248811504E+01  0.56620715279E+01  0.47000000000E+01 0. -1.
         -5    1    1    2    0  502 -0.26874500349E+01  0.32623234682E+00  0.62500742632E+00  0.54598030658E+01  0.47000000000E+01 0.  1.
<mgrwt>
<rscale>  2 0.54239114E+01</rscale>
<asrwt>0</asrwt>
<pdfrwt beam="1">  1       21 0.77861546E-03 0.54239114E+01</pdfrwt>
<pdfrwt beam="2">  1       21 0.93244217E-03 0.54239114E+01</pdfrwt>
<totfact> 0.45036262E+09</totfact>
</mgrwt>
</event>
<event>
 4    1  0.4043737E+006  0.5956001E+01  0.7546771E-02  0.2421185E+00
         21   -1    0    0  503  502  0.00000000000E+00  0.00000000000E+00  0.14579634185E+01  0.14579634185E+01  0.00000000000E+00 0. -1.
         21   -1    0    0  501  503 -0.00000000000E+00 -0.00000000000E+00 -0.26046474713E+02  0.26046474713E+02  0.00000000000E+00 0.  1.
          5    1    1    2  501    0  0.35867824251E+01 -0.72037605471E+00 -0.15823400338E+02  0.16907215859E+02  0.47000000000E+01 0.  1.
         -5    1    1    2    0  502 -0.35867824251E+01  0.72037605471E+00 -0.87651109565E+01  0.10597222273E+02  0.47000000000E+01 0. -1.
<mgrwt>
<rscale>  2 0.59560012E+01</rscale>
<asrwt>0</asrwt>
<pdfrwt beam="1">  1       21 0.22430206E-03 0.59560012E+01</pdfrwt>
<pdfrwt beam="2">  1       21 0.40071500E-02 0.59560012E+01</pdfrwt>
<totfact> 0.33923955E+09</totfact>
</mgrwt>
</event>
<event>
 4    1  0.4043737E+006  0.6027518E+01  0.7546771E-02  0.2411856E+00
         21   -1    0    0  501  502  0.00000000000E+00  0.00000000000E+00  0.73028266343E+02  0.73028266343E+02  0.00000000000E+00 0. -1.
         21   -1    0    0  502  503 -0.00000000000E+00 -0.00000000000E+00 -0.67866463252E+00  0.67866463252E+00  0.00000000000E+00 0. -1.
          5    1    1    2  501    0  0.31857252685E+01 -0.20229016174E+01  0.55216120856E+02  0.55544135413E+02  0.47000000000E+01 0. -1.
         -5    1    1    2    0  503 -0.31857252685E+01  0.20229016174E+01  0.17133480855E+02  0.18162795562E+02  0.47000000000E+01 0. -1.
<mgrwt>
<rscale>  2 0.60275183E+01</rscale>
<asrwt>0</asrwt>
<pdfrwt beam="1">  1       21 0.11235112E-01 0.60275183E+01</pdfrwt>
<pdfrwt beam="2">  1       21 0.10441000E-03 0.60275183E+01</pdfrwt>
<totfact> 0.20473248E+09</totfact>
</mgrwt>
</event>
<event>
 4    1  0.4043737E+006  0.5150129E+01  0.7546771E-02  0.2541191E+00
         21   -1    0    0  501  502  0.00000000000E+00  0.00000000000E+00  0.23585901321E+02  0.23585901321E+02  0.00000000000E+00 0. -1.
         21   -1    0    0  502  503 -0.00000000000E+00 -0.00000000000E+00 -0.17339112027E+01  0.17339112027E+01  0.00000000000E+00 0. -1.
          5    1    1    2  501    0 -0.20870577035E+01 -0.27931926522E+00  0.18430980842E+02  0.19137003002E+02  0.47000000000E+01 0. -1.
         -5    1    1    2    0  503  0.20870577035E+01  0.27931926522E+00  0.34210092763E+01  0.61828095214E+01  0.47000000000E+01 0. -1.
<mgrwt>
<rscale>  2 0.51501290E+01</rscale>
<asrwt>0</asrwt>
<pdfrwt beam="1">  1       21 0.36286000E-02 0.51501290E+01</pdfrwt>
<pdfrwt beam="2">  1       21 0.26675559E-03 0.51501290E+01</pdfrwt>
<totfact> 0.27036399E+09</totfact>
</mgrwt>
</event>
<event>
 4    1  0.4043737E+006  0.5274067E+01  0.7546771E-02  0.2520716E+00
         21   -1    0    0  501  502  0.00000000000E+00  0.00000000000E+00  0.64979147445E+02  0.64979147445E+02  0.00000000000E+00 0.  1.
         21   -1    0    0  502  503 -0.00000000000E+00 -0.00000000000E+00 -0.46688612706E+00  0.46688612706E+00  0.00000000000E+00 0.  1.
          5    1    1    2  501    0 -0.21408747026E+00  0.23832644175E+01  0.41691094813E+02  0.42023364565E+02  0.47000000000E+01 0.  1.
         -5    1    1    2    0  503  0.21408747026E+00 -0.23832644175E+01  0.22821166505E+02  0.23422669007E+02  0.47000000000E+01 0.  1.
<mgrwt>
<rscale>  2 0.52740670E+01</rscale>
<asrwt>0</asrwt>
<pdfrwt beam="1">  1       21 0.99967847E-02 0.52740670E+01</pdfrwt>
<pdfrwt beam="2">  1       21 0.71828687E-04 0.52740670E+01</pdfrwt>
<totfact> 0.35849830E+09</totfact>
</mgrwt>
</event>
<event>
 4    1  0.4043737E+006  0.7867139E+01  0.7546771E-02  0.2221543E+00
         21   -1    0    0  501  502  0.00000000000E+00  0.00000000000E+00  0.22675941922E+02  0.22675941922E+02  0.00000000000E+00 0.  1.
         21   -1    0    0  502  503 -0.00000000000E+00 -0.00000000000E+00 -0.75426484238E+01  0.75426484238E+01  0.00000000000E+00 0.  1.
          5    1    1    2  501    0  0.54705251121E+01 -0.31424871477E+01  0.19636475386E+02  0.21153794838E+02  0.47000000000E+01 0.  1.
         -5    1    1    2    0  503 -0.54705251121E+01  0.31424871477E+01 -0.45031818879E+01  0.90647955074E+01  0.47000000000E+01 0.  1.
<mgrwt>
<rscale>  2 0.78671386E+01</rscale>
<asrwt>0</asrwt>
<pdfrwt beam="1">  1       21 0.34886064E-02 0.78671386E+01</pdfrwt>
<pdfrwt beam="2">  1       21 0.11604075E-02 0.78671386E+01</pdfrwt>
<totfact> 0.51516874E+08</totfact>
</mgrwt>
</event>
<event>
 4    1  0.4043737E+006  0.5323010E+01  0.7546771E-02  0.2512856E+00
         21   -1    0    0  501  502  0.00000000000E+00  0.00000000000E+00  0.10369080381E+02  0.10369080381E+02  0.00000000000E+00 0. -1.
         21   -1    0    0  502  503 -0.00000000000E+00 -0.00000000000E+00 -0.39321897655E+01  0.39321897655E+01  0.00000000000E+00 0. -1.
          5    1    1    2  501    0 -0.84286486145E+00  0.23524478629E+01  0.71679787691E+01  0.89282894082E+01  0.47000000000E+01 0. -1.
         -5    1    1    2    0  503  0.84286486145E+00 -0.23524478629E+01 -0.73108815398E+00  0.53729807380E+01  0.47000000000E+01 0. -1.
<mgrwt>
<rscale>  2 0.53230097E+01</rscale>
<asrwt>0</asrwt>
<pdfrwt beam="1">  1       21 0.15952431E-02 0.53230097E+01</pdfrwt>
<pdfrwt beam="2">  1       21 0.60495228E-03 0.53230097E+01</pdfrwt>
<totfact> 0.29470250E+09</totfact>
</mgrwt>
</event>
<event>
 4    1  0.4043737E+006  0.8260746E+01  0.7546771E-02  0.2189995E+00
         21   -1    0    0  503  502  0.00000000000E+00  0.00000000000E+00  0.34046631590E+03  0.34046631590E+03  0.00000000000E+00 0.  1.
         21   -1    0    0  501  503 -0.00000000000E+00 -0.00000000000E+00 -0.31005300222E+00  0.31005300222E+00  0.00000000000E+00 0. -1.
          5    1    1    2  501    0 -0.54214495926E+01 -0.40936308043E+01  0.68763817454E+02  0.69258230700E+02  0.47000000000E+01 0. -1.
         -5    1    1    2    0  502  0.54214495926E+01  0.40936308043E+01  0.27139244544E+03  0.27151813820E+03  0.47000000000E+01 0.  1.
<mgrwt>
<rscale>  2 0.82607463E+01</rscale>
<asrwt>0</asrwt>
<pdfrwt beam="1">  1       21 0.52379134E-01 0.82607463E+01</pdfrwt>
<pdfrwt beam="2">  1       21 0.47700735E-04 0.82607463E+01</pdfrwt>
<totfact> 0.55501067E+08</totfact>
</mgrwt>
</event>
<event>
 4    1  0.4043737E+006  0.5144216E+01  0.7546771E-02  0.2542189E+00
         21   -1    0    0  501  502  0.00000000000E+00  0.00000000000E+00  0.21559510149E+01  0.21559510149E+01  0.00000000000E+00 0.  1.
         21   -1    0    0  502  503 -0.00000000000E+00 -0.00000000000E+00 -0.12333646395E+02  0.12333646395E+02  0.00000000000E+00 0.  1.
          5    1    1    2  501    0  0.41847374146E+00  0.20488627020E+01 -0.55910637153E+01  0.75975622480E+01  0.47000000000E+01 0.  1.
         -5    1    1    2    0  503 -0.41847374146E+00 -0.20488627020E+01 -0.45866316646E+01  0.68920351617E+01  0.47000000000E+01 0.  1.
<mgrwt>
<rscale>  2 0.51442160E+01</rscale>
<asrwt>0</asrwt>
<pdfrwt beam="1">  1       21 0.33168477E-03 0.51442160E+01</pdfrwt>
<pdfrwt beam="2">  1       21 0.18974841E-02 0.51442160E+01</pdfrwt>
<totfact> 0.50826636E+09</totfact>
</mgrwt>
</event>
<event>
 4    1  0.4043737E+006  0.4715921E+01  0.7546771E-02  0.2620159E+00
         21   -1    0    0  503  502  0.00000000000E+00  0.00000000000E+00  0.42963599057E+00  0.42963599057E+00  0.00000000000E+00 0. -1.
         21   -1    0    0  501  503 -0.00000000000E+00 -0.00000000000E+00 -0.14874810947E+03  0.14874810947E+03  0.00000000000E+00 0. -1.
          5    1    1    2  501    0 -0.37849125925E+00 -0.81574943872E-01 -0.13438709156E+03  0.13446981181E+03  0.47000000000E+01 0. -1.
         -5    1    1    2    0  502  0.37849125925E+00  0.81574943872E-01 -0.13931381921E+02  0.14707933653E+02  0.47000000000E+01 0. -1.
<mgrwt>
<rscale>  2 0.47159209E+01</rscale>
<asrwt>0</asrwt>
<pdfrwt beam="1">  1       21 0.66097781E-04 0.47159209E+01</pdfrwt>
<pdfrwt beam="2">  1       21 0.22884346E-01 0.47159209E+01</pdfrwt>
<totfact> 0.99103475E+08</totfact>
</mgrwt>
</event>
<event>
 4    1  0.4043737E+006  0.8304006E+01  0.7546771E-02  0.2186675E+00
         21   -1    0    0  503  502  0.00000000000E+00  0.00000000000E+00  0.47344078459E+01  0.47344078459E+01  0.00000000000E+00 0.  1.
         21   -1    0    0  501  503 -0.00000000000E+00 -0.00000000000E+00 -0.16508521608E+02  0.16508521608E+02  0.00000000000E+00 0. -1.
          5    1    1    2  501    0 -0.68077512035E+01  0.72182641683E+00 -0.22426377212E+01  0.86015076454E+01  0.47000000000E+01 0.  1.
         -5    1    1    2    0  502  0.68077512035E+01 -0.72182641683E+00 -0.95314760413E+01  0.12641421809E+02  0.47000000000E+01 0. -1.
<mgrwt>
<rscale>  2 0.83040056E+01</rscale>
<asrwt>0</asrwt>
<pdfrwt beam="1">  1       21 0.72837043E-03 0.83040056E+01</pdfrwt>
<pdfrwt beam="2">  1       21 0.25397726E-02 0.83040056E+01</pdfrwt>
<totfact> 0.16645282E+09</totfact>
</mgrwt>
</event>
<event>
 4    1  0.4043737E+006  0.4975378E+01  0.7546771E-02  0.2571540E+00
         21   -1    0    0  501  502  0.00000000000E+00  0.00000000000E+00  0.35460216818E+01  0.35460216818E+01  0.00000000000E+00 0.  1.
         21   -1    0    0  502  503 -0.00000000000E+00 -0.00000000000E+00 -0.88646782076E+01  0.88646782076E+01  0.00000000000E+00 0.  1.
          5    1    1    2  501    0  0.11116704660E+01  0.11952298072E+01 -0.55198871034E+01  0.74312542112E+01  0.47000000000E+01 0.  1.
         -5    1    1    2    0  503 -0.11116704660E+01 -0.11952298072E+01  0.20123057763E+00  0.49794456782E+01  0.47000000000E+01 0.  1.
<mgrwt>
<rscale>  2 0.49753779E+01</rscale>
<asrwt>0</asrwt>
<pdfrwt beam="1">  1       21 0.54554180E-03 0.49753779E+01</pdfrwt>
<pdfrwt beam="2">  1       21 0.13637966E-02 0.49753779E+01</pdfrwt>
<totfact> 0.39570111E+09</totfact>
</mgrwt>
</event>
<event>
 4    1  0.4043737E+006  0.4902209E+01  0.7546771E-02  0.2584800E+00
         21   -1    0    0  501  502  0.00000000000E+00  0.00000000000E+00  0.13472550191E+04  0.13472550191E+04  0.00000000000E+00 0.  1.
         21   -1    0    0  502  503 -0.00000000000E+00 -0.00000000000E+00 -0.66148886405E-01  0.66148886405E-01  0.00000000000E+00 0.  1.
          5    1    1    2  501    0  0.24566895761E+00 -0.13716050148E+01  0.12493055912E+04  0.12493152092E+04  0.47000000000E+01 0.  1.
         -5    1    1    2    0  503 -0.24566895761E+00  0.13716050148E+01  0.97883278957E+02  0.98005958762E+02  0.47000000000E+01 0.  1.
<mgrwt>
<rscale>  2 0.49022090E+01</rscale>
<asrwt>0</asrwt>
<pdfrwt beam="1">  1       21 0.20724803E+00 0.49022090E+01</pdfrwt>
<pdfrwt beam="2">  1       21 0.10177831E-04 0.49022090E+01</pdfrwt>
<totfact> 0.19331305E+08</totfact>
</mgrwt>
</event>
<event>
 4    1  0.4043737E+006  0.7245384E+01  0.7546771E-02  0.2276944E+00
         21   -1    0    0  503  502  0.00000000000E+00  0.00000000000E+00  0.11448712616E+00  0.11448712616E+00  0.00000000000E+00 0.  1.
         21   -1    0    0  501  503 -0.00000000000E+00 -0.00000000000E+00 -0.52730656417E+03  0.52730656417E+03  0.00000000000E+00 0. -1.
          5    1    1    2  501    0  0.16467138024E+01 -0.52625012332E+01 -0.35883650841E+03  0.35890964789E+03  0.47000000000E+01 0. -1.
         -5    1    1    2    0  502 -0.16467138024E+01  0.52625012332E+01 -0.16835556864E+03  0.16851140340E+03  0.47000000000E+01 0.  1.
<mgrwt>
<rscale>  2 0.72453837E+01</rscale>
<asrwt>0</asrwt>
<pdfrwt beam="1">  1       21 0.17613609E-04 0.72453837E+01</pdfrwt>
<pdfrwt beam="2">  1       21 0.81123141E-01 0.72453837E+01</pdfrwt>
<totfact> 0.85340858E+08</totfact>
</mgrwt>
</event>
<event>
 4    1  0.4043737E+006  0.6368704E+01  0.7546771E-02  0.2369772E+00
         21   -1    0    0  503  502  0.00000000000E+00  0.00000000000E+00  0.30582336601E+00  0.30582336601E+00  0.00000000000E+00 0.  1.
         21   -1    0    0  501  503 -0.00000000000E+00 -0.00000000000E+00 -0.24814880235E+03  0.24814880235E+03  0.00000000000E+00 0.  1.
          5    1    1    2  501    0 -0.42976956795E+01 -0.14009594534E-01 -0.20868194692E+03  0.20877910660E+03  0.47000000000E+01 0.  1.
         -5    1    1    2    0  502  0.42976956795E+01  0.14009594534E-01 -0.39161032068E+02  0.39675519116E+02  0.47000000000E+01 0.  1.
<mgrwt>
<rscale>  2 0.63687035E+01</rscale>
<asrwt>0</asrwt>
<pdfrwt beam="1">  1       21 0.47049825E-04 0.63687035E+01</pdfrwt>
<pdfrwt beam="2">  1       21 0.38176677E-01 0.63687035E+01</pdfrwt>
<totfact> 0.84674856E+08</totfact>
</mgrwt>
</event>
<event>
 4    1  0.4043737E+006  0.4811496E+01  0.7546771E-02  0.2601721E+00
         21   -1    0    0  503  502  0.00000000000E+00  0.00000000000E+00  0.19310701430E+02  0.19310701430E+02  0.00000000000E+00 0.  1.
         21   -1    0    0  501  503 -0.00000000000E+00 -0.00000000000E+00 -0.12004864309E+01  0.12004864309E+01  0.00000000000E+00 0. -1.
          5    1    1    2  501    0  0.82109310443E+00  0.62152928344E+00  0.94346004736E+01  0.10590664693E+02  0.47000000000E+01 0.  1.
         -5    1    1    2    0  502 -0.82109310443E+00 -0.62152928344E+00  0.86756145252E+01  0.99205231680E+01  0.47000000000E+01 0.  1.
<mgrwt>
<rscale>  2 0.48114959E+01</rscale>
<asrwt>0</asrwt>
<pdfrwt beam="1">  1       21 0.29708769E-02 0.48114959E+01</pdfrwt>
<pdfrwt beam="2">  1       21 0.18469023E-03 0.48114959E+01</pdfrwt>
<totfact> 0.55137116E+09</totfact>
</mgrwt>
</event>
<event>
 4    1  0.4043737E+006  0.5076506E+01  0.7546771E-02  0.2553758E+00
         21   -1    0    0  503  502  0.00000000000E+00  0.00000000000E+00  0.96359482686E+01  0.96359482686E+01  0.00000000000E+00 0.  1.
         21   -1    0    0  501  503 -0.00000000000E+00 -0.00000000000E+00 -0.29544177565E+01  0.29544177565E+01  0.00000000000E+00 0. -1.
          5    1    1    2  501    0  0.19016394255E+01  0.25431838564E+00  0.52786257660E+01  0.73235783824E+01  0.47000000000E+01 0. -1.
         -5    1    1    2    0  502 -0.19016394255E+01 -0.25431838564E+00  0.14029047461E+01  0.52667876426E+01  0.47000000000E+01 0. -1.
<mgrwt>
<rscale>  2 0.50765057E+01</rscale>
<asrwt>0</asrwt>
<pdfrwt beam="1">  1       21 0.14824536E-02 0.50765057E+01</pdfrwt>
<pdfrwt beam="2">  1       21 0.45452581E-03 0.50765057E+01</pdfrwt>
<totfact> 0.46183229E+09</totfact>
</mgrwt>
</event>
<event>
 4    1  0.4043737E+006  0.5143579E+01  0.7546771E-02  0.2542296E+00
         21   -1    0    0  501  502  0.00000000000E+00  0.00000000000E+00  0.24889149863E+00  0.24889149863E+00  0.00000000000E+00 0. -1.
         21   -1    0    0  502  503 -0.00000000000E+00 -0.00000000000E+00 -0.27786360528E+03  0.27786360528E+03  0.00000000000E+00 0. -1.
          5    1    1    2  501    0 -0.11180930767E+01 -0.17652973491E+01 -0.29539828595E+02  0.29984293893E+02  0.47000000000E+01 0. -1.
         -5    1    1    2    0  503  0.11180930767E+01  0.17652973491E+01 -0.24807488519E+03  0.24812820289E+03  0.47000000000E+01 0. -1.
<mgrwt>
<rscale>  2 0.51435792E+01</rscale>
<asrwt>0</asrwt>
<pdfrwt beam="1">  1       21 0.38291076E-04 0.51435792E+01</pdfrwt>
<pdfrwt beam="2">  1       21 0.42748162E-01 0.51435792E+01</pdfrwt>
<totfact> 0.77769172E+08</totfact>
</mgrwt>
</event>
<event>
 4    1  0.4043737E+006  0.1081061E+02  0.7546771E-02  0.2031592E+00
         21   -1    0    0  503  502  0.00000000000E+00  0.00000000000E+00  0.27501221580E+00  0.27501221580E+00  0.00000000000E+00 0.  1.
         21   -1    0    0  501  503 -0.00000000000E+00 -0.00000000000E+00 -0.69949624690E+03  0.69949624690E+03  0.00000000000E+00 0.  1.
          5    1    1    2  501    0 -0.84487650232E+01 -0.48371056258E+01 -0.56880689311E+03  0.56890961573E+03  0.47000000000E+01 0.  1.
         -5    1    1    2    0  502  0.84487650232E+01  0.48371056258E+01 -0.13041434158E+03  0.13086164339E+03  0.47000000000E+01 0.  1.
<mgrwt>
<rscale>  2 0.10810607E+02</rscale>
<asrwt>0</asrwt>
<pdfrwt beam="1">  1       21 0.42309957E-04 0.10810607E+02</pdfrwt>
<pdfrwt beam="2">  1       21 0.10761383E+00 0.10810607E+02</pdfrwt>
<totfact> 0.17819968E+08</totfact>
</mgrwt>
</event>
<event>
 4    1  0.4043737E+006  0.5188368E+01  0.7546771E-02  0.2534784E+00
         21   -1    0    0  501  502  0.00000000000E+00  0.00000000000E+00  0.87553526152E+01  0.87553526152E+01  0.00000000000E+00 0. -1.
         21   -1    0    0  502  503 -0.00000000000E+00 -0.00000000000E+00 -0.88854939909E+01  0.88854939909E+01  0.00000000000E+00 0.  1.
          5    1    1    2  501    0 -0.19610481100E+01 -0.99169441058E+00  0.70678974614E+01  0.87678014359E+01  0.47000000000E+01 0. -1.
         -5    1    1    2    0  503  0.19610481100E+01  0.99169441058E+00 -0.71980388371E+01  0.88730451703E+01  0.47000000000E+01 0.  1.
<mgrwt>
<rscale>  2 0.51883685E+01</rscale>
<asrwt>0</asrwt>
<pdfrwt beam="1">  1       21 0.13469773E-02 0.51883685E+01</pdfrwt>
<pdfrwt beam="2">  1       21 0.13669991E-02 0.51883685E+01</pdfrwt>
<totfact> 0.11694198E+09</totfact>
</mgrwt>
</event>
<event>
 4    1  0.4043737E+006  0.5429609E+01  0.7546771E-02  0.2496155E+00
         21   -1    0    0  503  502  0.00000000000E+00  0.00000000000E+00  0.22635878681E+01  0.22635878681E+01  0.00000000000E+00 0. -1.
         21   -1    0    0  501  503 -0.00000000000E+00 -0.00000000000E+00 -0.31219696144E+02  0.31219696144E+02  0.00000000000E+00 0.  1.
          5    1    1    2  501    0 -0.25325398495E+01  0.98837929442E+00 -0.27259197980E+02  0.27794685215E+02  0.47000000000E+01 0.  1.
         -5    1    1    2    0  502  0.25325398495E+01 -0.98837929442E+00 -0.16969102964E+01  0.56885987970E+01  0.47000000000E+01 0. -1.
<mgrwt>
<rscale>  2 0.54296088E+01</rscale>
<asrwt>0</asrwt>
<pdfrwt beam="1">  1       21 0.34824428E-03 0.54296088E+01</pdfrwt>
<pdfrwt beam="2">  1       21 0.48030303E-02 0.54296088E+01</pdfrwt>
<totfact> 0.13136528E+09</totfact>
</mgrwt>
</event>
<event>
 4    1  0.4043737E+006  0.4978780E+01  0.7546771E-02  0.2570932E+00
         21   -1    0    0  501  502  0.00000000000E+00  0.00000000000E+00  0.11513272681E+00  0.11513272681E+00  0.00000000000E+00 0. -1.
         21   -1    0    0  502  503 -0.00000000000E+00 -0.00000000000E+00 -0.44904908117E+03  0.44904908117E+03  0.00000000000E+00 0. -1.
          5    1    1    2  501    0  0.16421768504E+01 -0.38786540147E-01 -0.62434596440E+02  0.62632795578E+02  0.47000000000E+01 0. -1.
         -5    1    1    2    0  503 -0.16421768504E+01  0.38786540147E-01 -0.38649935200E+03  0.38653141832E+03  0.47000000000E+01 0. -1.
<mgrwt>
<rscale>  2 0.49787799E+01</rscale>
<asrwt>0</asrwt>
<pdfrwt beam="1">  1       21 0.17712294E-04 0.49787799E+01</pdfrwt>
<pdfrwt beam="2">  1       21 0.69086162E-01 0.49787799E+01</pdfrwt>
<totfact> 0.88546219E+08</totfact>
</mgrwt>
</event>
<event>
 4    1  0.4043737E+006  0.5866440E+01  0.7546771E-02  0.2433137E+00
         21   -1    0    0  501  502  0.00000000000E+00  0.00000000000E+00  0.42268702175E+01  0.42268702175E+01  0.00000000000E+00 0. -1.
         21   -1    0    0  502  503 -0.00000000000E+00 -0.00000000000E+00 -0.10128937636E+02  0.10128937636E+02  0.00000000000E+00 0. -1.
          5    1    1    2  501    0  0.28152053187E+01  0.20975561183E+01  0.22810314605E+00  0.58708733338E+01  0.47000000000E+01 0. -1.
         -5    1    1    2    0  503 -0.28152053187E+01 -0.20975561183E+01 -0.61301705649E+01  0.84849345201E+01  0.47000000000E+01 0. -1.
<mgrwt>
<rscale>  2 0.58664404E+01</rscale>
<asrwt>0</asrwt>
<pdfrwt beam="1">  1       21 0.65028773E-03 0.58664404E+01</pdfrwt>
<pdfrwt beam="2">  1       21 0.15582981E-02 0.58664404E+01</pdfrwt>
<totfact> 0.30166978E+09</totfact>
</mgrwt>
</event>
<event>
 4    1  0.4043737E+006  0.9952645E+01  0.7546771E-02  0.2077693E+00
         21   -1    0    0  503  502  0.00000000000E+00  0.00000000000E+00  0.84543580471E+02  0.84543580471E+02  0.00000000000E+00 0. -1.
         21   -1    0    0  501  503 -0.00000000000E+00 -0.00000000000E+00 -0.11748068733E+01  0.11748068733E+01  0.00000000000E+00 0.  1.
          5    1    1    2  501    0 -0.37195003518E+01  0.79454681479E+01  0.43907517785E+02  0.45021386751E+02  0.47000000000E+01 0. -1.
         -5    1    1    2    0  502  0.37195003518E+01 -0.79454681479E+01  0.39461255813E+02  0.40697000593E+02  0.47000000000E+01 0.  1.
<mgrwt>
<rscale>  2 0.99526452E+01</rscale>
<asrwt>0</asrwt>
<pdfrwt beam="1">  1       21 0.13006700E-01 0.99526452E+01</pdfrwt>
<pdfrwt beam="2">  1       21 0.18073959E-03 0.99526452E+01</pdfrwt>
<totfact> 0.10817899E+09</totfact>
</mgrwt>
</event>
<event>
 4    1  0.4043737E+006  0.1029960E+02  0.7546771E-02  0.2058328E+00
         21   -1    0    0  501  502  0.00000000000E+00  0.00000000000E+00  0.68103358827E+02  0.68103358827E+02  0.00000000000E+00 0.  1.
         21   -1    0    0  502  503 -0.00000000000E+00 -0.00000000000E+00 -0.11428653147E+02  0.11428653147E+02  0.00000000000E+00 0. -1.
          5    1    1    2  501    0 -0.71298441681E+00  0.91369241897E+01  0.65294200543E+02  0.66101545783E+02  0.47000000000E+01 0.  1.
         -5    1    1    2    0  503  0.71298441681E+00 -0.91369241897E+01 -0.86194948630E+01  0.13430466191E+02  0.47000000000E+01 0. -1.
<mgrwt>
<rscale>  2 0.10299599E+02</rscale>
<asrwt>0</asrwt>
<pdfrwt beam="1">  1       21 0.10477440E-01 0.10299599E+02</pdfrwt>
<pdfrwt beam="2">  1       21 0.17582544E-02 0.10299599E+02</pdfrwt>
<totfact> 0.59774989E+07</totfact>
</mgrwt>
</event>
<event>
 4    1  0.4043737E+006  0.5068103E+01  0.7546771E-02  0.2555212E+00
         21   -1    0    0  503  502  0.00000000000E+00  0.00000000000E+00  0.86678245743E+01  0.86678245743E+01  0.00000000000E+00 0. -1.
         21   -1    0    0  501  503 -0.00000000000E+00 -0.00000000000E+00 -0.33312004309E+01  0.33312004309E+01  0.00000000000E+00 0. -1.
          5    1    1    2  501    0  0.17035372292E+01  0.83284250700E+00  0.67461018556E+00  0.51128039895E+01  0.47000000000E+01 0. -1.
         -5    1    1    2    0  502 -0.17035372292E+01 -0.83284250700E+00  0.46620139579E+01  0.68862210157E+01  0.47000000000E+01 0. -1.
<mgrwt>
<rscale>  2 0.50681028E+01</rscale>
<asrwt>0</asrwt>
<pdfrwt beam="1">  1       21 0.13335115E-02 0.50681028E+01</pdfrwt>
<pdfrwt beam="2">  1       21 0.51249238E-03 0.50681028E+01</pdfrwt>
<totfact> 0.45375787E+09</totfact>
</mgrwt>
</event>
<event>
 4    1  0.4043737E+006  0.5520010E+01  0.7546771E-02  0.2482422E+00
         21   -1    0    0  503  502  0.00000000000E+00  0.00000000000E+00  0.15186292099E+03  0.15186292099E+03  0.00000000000E+00 0. -1.
         21   -1    0    0  501  503 -0.00000000000E+00 -0.00000000000E+00 -0.21614016400E+00  0.21614016400E+00  0.00000000000E+00 0.  1.
          5    1    1    2  501    0  0.12626556254E+01  0.26050353131E+01  0.96183134819E+02  0.96341402999E+02  0.47000000000E+01 0. -1.
         -5    1    1    2    0  502 -0.12626556254E+01 -0.26050353131E+01  0.55463646009E+02  0.55737658157E+02  0.47000000000E+01 0.  1.
<mgrwt>
<rscale>  2 0.55200098E+01</rscale>
<asrwt>0</asrwt>
<pdfrwt beam="1">  1       21 0.23363441E-01 0.55200098E+01</pdfrwt>
<pdfrwt beam="2">  1       21 0.33252454E-04 0.55200098E+01</pdfrwt>
<totfact> 0.27482579E+09</totfact>
</mgrwt>
</event>
<event>
 4    1  0.4043737E+006  0.5393504E+01  0.7546771E-02  0.2501748E+00
         21   -1    0    0  503  502  0.00000000000E+00  0.00000000000E+00  0.10569563302E+03  0.10569563302E+03  0.00000000000E+00 0. -1.
         21   -1    0    0  501  503 -0.00000000000E+00 -0.00000000000E+00 -0.35828968294E+00  0.35828968294E+00  0.00000000000E+00 0.  1.
          5    1    1    2  501    0 -0.76370025282E+00  0.25331103299E+01  0.78201128604E+02  0.78386901973E+02  0.47000000000E+01 0. -1.
         -5    1    1    2    0  502  0.76370025282E+00 -0.25331103299E+01  0.27136214733E+02  0.27667020729E+02  0.47000000000E+01 0.  1.
<mgrwt>
<rscale>  2 0.53935041E+01</rscale>
<asrwt>0</asrwt>
<pdfrwt beam="1">  1       21 0.16260842E-01 0.53935041E+01</pdfrwt>
<pdfrwt beam="2">  1       21 0.55121574E-04 0.53935041E+01</pdfrwt>
<totfact> 0.24548457E+09</totfact>
</mgrwt>
</event>
<event>
 4    1  0.4043737E+006  0.5949798E+01  0.7546771E-02  0.2422004E+00
         21   -1    0    0  503  502  0.00000000000E+00  0.00000000000E+00  0.12719092372E+02  0.12719092372E+02  0.00000000000E+00 0. -1.
         21   -1    0    0  501  503 -0.00000000000E+00 -0.00000000000E+00 -0.59296906294E+01  0.59296906294E+01  0.00000000000E+00 0. -1.
          5    1    1    2  501    0  0.30227403858E+01 -0.20428250172E+01 -0.33975855472E+01  0.68515458870E+01  0.47000000000E+01 0. -1.
         -5    1    1    2    0  502 -0.30227403858E+01  0.20428250172E+01  0.10186987290E+02  0.11797237114E+02  0.47000000000E+01 0. -1.
<mgrwt>
<rscale>  2 0.59497978E+01</rscale>
<asrwt>0</asrwt>
<pdfrwt beam="1">  1       21 0.19567834E-02 0.59497978E+01</pdfrwt>
<pdfrwt beam="2">  1       21 0.91226010E-03 0.59497978E+01</pdfrwt>
<totfact> 0.13724122E+09</totfact>
</mgrwt>
</event>
<event>
 4    1  0.4043737E+006  0.4731370E+01  0.7546771E-02  0.2617135E+00
         21   -1    0    0  503  502  0.00000000000E+00  0.00000000000E+00  0.22601295374E+02  0.22601295374E+02  0.00000000000E+00 0.  1.
         21   -1    0    0  501  503 -0.00000000000E+00 -0.00000000000E+00 -0.40278573878E+01  0.40278573878E+01  0.00000000000E+00 0.  1.
          5    1    1    2  501    0  0.35130477039E+00  0.41526354528E+00 -0.22754829243E+01  0.52501125124E+01  0.47000000000E+01 0.  1.
         -5    1    1    2    0  502 -0.35130477039E+00 -0.41526354528E+00  0.20848920911E+02  0.21379040249E+02  0.47000000000E+01 0.  1.
<mgrwt>
<rscale>  2 0.47313697E+01</rscale>
<asrwt>0</asrwt>
<pdfrwt beam="1">  1       21 0.34771223E-02 0.47313697E+01</pdfrwt>
<pdfrwt beam="2">  1       21 0.61967038E-03 0.47313697E+01</pdfrwt>
<totfact> 0.83660467E+08</totfact>
</mgrwt>
</event>
<event>
 4    1  0.4043737E+006  0.5433348E+01  0.7546771E-02  0.2495579E+00
         21   -1    0    0  501  502  0.00000000000E+00  0.00000000000E+00  0.59961725399E+00  0.59961725399E+00  0.00000000000E+00 0.  1.
         21   -1    0    0  502  503 -0.00000000000E+00 -0.00000000000E+00 -0.95126398516E+02  0.95126398516E+02  0.00000000000E+00 0.  1.
          5    1    1    2  501    0 -0.14618361517E+01  0.23009362359E+01 -0.14018716922E+02  0.15034816149E+02  0.47000000000E+01 0.  1.
         -5    1    1    2    0  503  0.14618361517E+01 -0.23009362359E+01 -0.80508064340E+02  0.80691199621E+02  0.47000000000E+01 0.  1.
<mgrwt>
<rscale>  2 0.54333482E+01</rscale>
<asrwt>0</asrwt>
<pdfrwt beam="1">  1       21 0.92248821E-04 0.54333482E+01</pdfrwt>
<pdfrwt beam="2">  1       21 0.14634828E-01 0.54333482E+01</pdfrwt>
<totfact> 0.14683379E+09</totfact>
</mgrwt>
</event>
<event>
 4    1  0.4043737E+006  0.5958633E+01  0.7546771E-02  0.2420839E+00
         21   -1    0    0  501  502  0.00000000000E+00  0.00000000000E+00  0.10521475391E+01  0.10521475391E+01  0.00000000000E+00 0.  1.
         21   -1    0    0  502  503 -0.00000000000E+00 -0.00000000000E+00 -0.95039141267E+02  0.95039141267E+02  0.00000000000E+00 0.  1.
          5    1    1    2  501    0 -0.31795034633E+01 -0.18182598402E+01 -0.84092294725E+01  0.10306330649E+02  0.47000000000E+01 0.  1.
         -5    1    1    2    0  503  0.31795034633E+01  0.18182598402E+01 -0.85577764255E+02  0.85784958157E+02  0.47000000000E+01 0.  1.
<mgrwt>
<rscale>  2 0.59586333E+01</rscale>
<asrwt>0</asrwt>
<pdfrwt beam="1">  1       21 0.16186878E-03 0.59586333E+01</pdfrwt>
<pdfrwt beam="2">  1       21 0.14621413E-01 0.59586333E+01</pdfrwt>
<totfact> 0.74433359E+08</totfact>
</mgrwt>
</event>
<event>
 4    1  0.4043737E+006  0.5903161E+01  0.7546771E-02  0.2428200E+00
         21   -1    0    0  503  502  0.00000000000E+00  0.00000000000E+00  0.82517391938E-01  0.82517391938E-01  0.00000000000E+00 0.  1.
         21   -1    0    0  501  503 -0.00000000000E+00 -0.00000000000E+00 -0.75197327380E+03  0.75197327380E+03  0.00000000000E+00 0. -1.
          5    1    1    2  501    0 -0.95332297290E-02  0.35717246827E+01 -0.62492226253E+03  0.62495014322E+03  0.47000000000E+01 0. -1.
         -5    1    1    2    0  502  0.95332297290E-02 -0.35717246827E+01 -0.12696849388E+03  0.12710564797E+03  0.47000000000E+01 0.  1.
<mgrwt>
<rscale>  2 0.59031609E+01</rscale>
<asrwt>0</asrwt>
<pdfrwt beam="1">  1       21 0.12695574E-04 0.59031609E+01</pdfrwt>
<pdfrwt beam="2">  1       21 0.11568281E+00 0.59031609E+01</pdfrwt>
<totfact> 0.56607731E+08</totfact>
</mgrwt>
</event>
<event>
 4    1  0.4043737E+006  0.8166151E+01  0.7546771E-02  0.2197353E+00
         21   -1    0    0  503  502  0.00000000000E+00  0.00000000000E+00  0.21037683978E+02  0.21037683978E+02  0.00000000000E+00 0. -1.
         21   -1    0    0  501  503 -0.00000000000E+00 -0.00000000000E+00 -0.37668211535E+01  0.37668211535E+01  0.00000000000E+00 0.  1.
          5    1    1    2  501    0 -0.34158536680E+01 -0.57382901441E+01  0.13572787560E+02  0.15840031320E+02  0.47000000000E+01 0. -1.
         -5    1    1    2    0  502  0.34158536680E+01  0.57382901441E+01  0.36980752643E+01  0.89644738116E+01  0.47000000000E+01 0. -1.
<mgrwt>
<rscale>  2 0.81661515E+01</rscale>
<asrwt>0</asrwt>
<pdfrwt beam="1">  1       21 0.32365667E-02 0.81661515E+01</pdfrwt>
<pdfrwt beam="2">  1       21 0.57951096E-03 0.81661515E+01</pdfrwt>
<totfact> 0.15907507E+09</totfact>
</mgrwt>
</event>
<event>
 4    1  0.4043737E+006  0.1011346E+02  0.7546771E-02  0.2068587E+00
         21   -1    0    0  501  502  0.00000000000E+00  0.00000000000E+00  0.11217545064E+03  0.11217545064E+03  0.00000000000E+00 0. -1.
         21   -1    0    0  502  503 -0.00000000000E+00 -0.00000000000E+00 -0.15693788038E+01  0.15693788038E+01  0.00000000000E+00 0. -1.
          5    1    1    2  501    0  0.81829921119E+01  0.36374121866E+01  0.18489286110E+02  0.21074530319E+02  0.47000000000E+01 0. -1.
         -5    1    1    2    0  503 -0.81829921119E+01 -0.36374121866E+01  0.92116785730E+02  0.92670299129E+02  0.47000000000E+01 0. -1.
<mgrwt>
<rscale>  2 0.10113463E+02</rscale>
<asrwt>0</asrwt>
<pdfrwt beam="1">  1       21 0.17257755E-01 0.10113463E+02</pdfrwt>
<pdfrwt beam="2">  1       21 0.24144298E-03 0.10113463E+02</pdfrwt>
<totfact> 0.45845396E+08</totfact>
</mgrwt>
</event>
<event>
 4    1  0.4043737E+006  0.6248768E+01  0.7546771E-02  0.2384129E+00
         21   -1    0    0  501  502  0.00000000000E+00  0.00000000000E+00  0.59291009788E+01  0.59291009788E+01  0.00000000000E+00 0. -1.
         21   -1    0    0  502  503 -0.00000000000E+00 -0.00000000000E+00 -0.10390876898E+02  0.10390876898E+02  0.00000000000E+00 0.  1.
          5    1    1    2  501    0 -0.34808247978E+01  0.22002177771E+01  0.27071296664E+01  0.68099670022E+01  0.47000000000E+01 0. -1.
         -5    1    1    2    0  503  0.34808247978E+01 -0.22002177771E+01 -0.71689055852E+01  0.95100108743E+01  0.47000000000E+01 0.  1.
<mgrwt>
<rscale>  2 0.62487678E+01</rscale>
<asrwt>0</asrwt>
<pdfrwt beam="1">  1       21 0.91216939E-03 0.62487678E+01</pdfrwt>
<pdfrwt beam="2">  1       21 0.15985964E-02 0.62487678E+01</pdfrwt>
<totfact> 0.19112968E+09</totfact>
</mgrwt>
</event>
<event>
 4    1  0.4043737E+006  0.5318203E+01  0.7546771E-02  0.2513622E+00
         21   -1    0    0  503  502  0.00000000000E+00  0.00000000000E+00  0.82392196825E+02  0.82392196825E+02  0.00000000000E+00 0.  1.
         21   -1    0    0  501  503 -0.00000000000E+00 -0.00000000000E+00 -0.56074393481E+00  0.56074393481E+00  0.00000000000E+00 0.  1.
          5    1    1    2  501    0 -0.12600675220E+01  0.21460447370E+01  0.15086170551E+02  0.15996118906E+02  0.47000000000E+01 0.  1.
         -5    1    1    2    0  502  0.12600675220E+01 -0.21460447370E+01  0.66745282339E+02  0.66956821854E+02  0.47000000000E+01 0.  1.
<mgrwt>
<rscale>  2 0.53182025E+01</rscale>
<asrwt>0</asrwt>
<pdfrwt beam="1">  1       21 0.12675713E-01 0.53182025E+01</pdfrwt>
<pdfrwt beam="2">  1       21 0.86268363E-04 0.53182025E+01</pdfrwt>
<totfact> 0.19685952E+09</totfact>
</mgrwt>
</event>
<event>
 4    1  0.4043737E+006  0.6858071E+01  0.7546771E-02  0.2315545E+00
         21   -1    0    0  501  502  0.00000000000E+00  0.00000000000E+00  0.39888741324E+03  0.39888741324E+03  0.00000000000E+00 0.  1.
         21   -1    0    0  502  503 -0.00000000000E+00 -0.00000000000E+00 -0.11825836003E+00  0.11825836003E+00  0.00000000000E+00 0. -1.
          5    1    1    2  501    0 -0.15906048640E+01  0.47342484405E+01  0.18856896797E+03  0.18869363745E+03  0.47000000000E+01 0. -1.
         -5    1    1    2    0  503  0.15906048640E+01 -0.47342484405E+01  0.21020018691E+03  0.21031203416E+03  0.47000000000E+01 0. -1.
<mgrwt>
<rscale>  2 0.68580706E+01</rscale>
<asrwt>0</asrwt>
<pdfrwt beam="1">  1       21 0.61366217E-01 0.68580706E+01</pdfrwt>
<pdfrwt beam="2">  1       21 0.18193913E-04 0.68580706E+01</pdfrwt>
<totfact> 0.13502198E+09</totfact>
</mgrwt>
</event>
<event>
 4    1  0.4043737E+006  0.5503769E+01  0.7546771E-02  0.2484861E+00
         21   -1    0    0  503  502  0.00000000000E+00  0.00000000000E+00  0.73674942911E-01  0.73674942911E-01  0.00000000000E+00 0. -1.
         21   -1    0    0  501  503 -0.00000000000E+00 -0.00000000000E+00 -0.63700370695E+03  0.63700370695E+03  0.00000000000E+00 0. -1.
          5    1    1    2  501    0  0.25874023786E+01  0.12275278753E+01 -0.50813758341E+03  0.50816738891E+03  0.47000000000E+01 0. -1.
         -5    1    1    2    0  502 -0.25874023786E+01 -0.12275278753E+01 -0.12879244860E+03  0.12890999299E+03  0.47000000000E+01 0. -1.
<mgrwt>
<rscale>  2 0.55037692E+01</rscale>
<asrwt>0</asrwt>
<pdfrwt beam="1">  1       21 0.11334484E-04 0.55037692E+01</pdfrwt>
<pdfrwt beam="2">  1       21 0.98001632E-01 0.55037692E+01</pdfrwt>
<totfact> 0.87890959E+08</totfact>
</mgrwt>
</event>
<event>
 4    1  0.4043737E+006  0.6103504E+01  0.7546771E-02  0.2402144E+00
         21   -1    0    0  503  502  0.00000000000E+00  0.00000000000E+00  0.47938300500E+01  0.47938300500E+01  0.00000000000E+00 0. -1.
         21   -1    0    0  501  503 -0.00000000000E+00 -0.00000000000E+00 -0.78416206009E+01  0.78416206009E+01  0.00000000000E+00 0. -1.
          5    1    1    2  501    0  0.33303757413E+01 -0.20177600257E+01 -0.92426355602E+00  0.61730884669E+01  0.47000000000E+01 0. -1.
         -5    1    1    2    0  502 -0.33303757413E+01  0.20177600257E+01 -0.21235269949E+01  0.64623621840E+01  0.47000000000E+01 0. -1.
<mgrwt>
<rscale>  2 0.61035038E+01</rscale>
<asrwt>0</asrwt>
<pdfrwt beam="1">  1       21 0.73751232E-03 0.61035038E+01</pdfrwt>
<pdfrwt beam="2">  1       21 0.12064032E-02 0.61035038E+01</pdfrwt>
<totfact> 0.37716867E+09</totfact>
</mgrwt>
</event>
<event>
 4    1  0.4043737E+006  0.5244857E+01  0.7546771E-02  0.2525467E+00
         21   -1    0    0  503  502  0.00000000000E+00  0.00000000000E+00  0.17313092442E+02  0.17313092442E+02  0.00000000000E+00 0.  1.
         21   -1    0    0  501  503 -0.00000000000E+00 -0.00000000000E+00 -0.17888331697E+01  0.17888331697E+01  0.00000000000E+00 0.  1.
          5    1    1    2  501    0  0.22395215074E+01 -0.63487774008E+00  0.10955285425E+02  0.12146061298E+02  0.47000000000E+01 0.  1.
         -5    1    1    2    0  502 -0.22395215074E+01  0.63487774008E+00  0.45689738476E+01  0.69558643134E+01  0.47000000000E+01 0.  1.
<mgrwt>
<rscale>  2 0.52448571E+01</rscale>
<asrwt>0</asrwt>
<pdfrwt beam="1">  1       21 0.26635526E-02 0.52448571E+01</pdfrwt>
<pdfrwt beam="2">  1       21 0.27520512E-03 0.52448571E+01</pdfrwt>
<totfact> 0.41209453E+09</totfact>
</mgrwt>
</event>
<event>
 4    1  0.4043737E+006  0.7652307E+01  0.7546771E-02  0.2239858E+00
         21   -1    0    0  501  502  0.00000000000E+00  0.00000000000E+00  0.97182931152E+02  0.97182931152E+02  0.00000000000E+00 0.  1.
         21   -1    0    0  502  503 -0.00000000000E+00 -0.00000000000E+00 -0.62906329280E+00  0.62906329280E+00  0.00000000000E+00 0. -1.
          5    1    1    2  501    0 -0.49087520831E+01  0.35173787634E+01  0.58316797242E+02  0.58816720760E+02  0.47000000000E+01 0.  1.
         -5    1    1    2    0  503  0.49087520831E+01 -0.35173787634E+01  0.38237070617E+02  0.38995273684E+02  0.47000000000E+01 0. -1.
<mgrwt>
<rscale>  2 0.76523069E+01</rscale>
<asrwt>0</asrwt>
<pdfrwt beam="1">  1       21 0.14951208E-01 0.76523069E+01</pdfrwt>
<pdfrwt beam="2">  1       21 0.96779045E-04 0.76523069E+01</pdfrwt>
<totfact> 0.17331290E+09</totfact>
</mgrwt>
</event>
<event>
 4    1  0.4043737E+006  0.5825227E+01  0.7546771E-02  0.2438741E+00
         21   -1    0    0  503  502  0.00000000000E+00  0.00000000000E+00  0.15732811462E+01  0.15732811462E+01  0.00000000000E+00 0.  1.
         21   -1    0    0  501  503 -0.00000000000E+00 -0.00000000000E+00 -0.91715247369E+02  0.91715247369E+02  0.00000000000E+00 0. -1.
          5    1    1    2  501    0  0.93695882115E+00  0.33114003683E+01 -0.85863579087E+02  0.86060952108E+02  0.47000000000E+01 0. -1.
         -5    1    1    2    0  502 -0.93695882115E+00 -0.33114003683E+01 -0.42783871365E+01  0.72275764072E+01  0.47000000000E+01 0.  1.
<mgrwt>
<rscale>  2 0.58252265E+01</rscale>
<asrwt>0</asrwt>
<pdfrwt beam="1">  1       21 0.24204336E-03 0.58252265E+01</pdfrwt>
<pdfrwt beam="2">  1       21 0.14110032E-01 0.58252265E+01</pdfrwt>
<totfact> 0.44780586E+08</totfact>
</mgrwt>
</event>
<event>
 4    1  0.4043737E+006  0.5334104E+01  0.7546771E-02  0.2511091E+00
         21   -1    0    0  501  502  0.00000000000E+00  0.00000000000E+00  0.98423984040E+00  0.98423984040E+00  0.00000000000E+00 0. -1.
         21   -1    0    0  502  503 -0.00000000000E+00 -0.00000000000E+00 -0.10466851923E+03  0.10466851923E+03  0.00000000000E+00 0. -1.
          5    1    1    2  501    0  0.23451590517E+01 -0.92891933175E+00 -0.68989873786E+01  0.87205899429E+01  0.47000000000E+01 0. -1.
         -5    1    1    2    0  503 -0.23451590517E+01  0.92891933175E+00 -0.96785292013E+02  0.96932169130E+02  0.47000000000E+01 0. -1.
<mgrwt>
<rscale>  2 0.53341037E+01</rscale>
<asrwt>0</asrwt>
<pdfrwt beam="1">  1       21 0.15142162E-03 0.53341037E+01</pdfrwt>
<pdfrwt beam="2">  1       21 0.16102837E-01 0.53341037E+01</pdfrwt>
<totfact> 0.64090538E+08</totfact>
</mgrwt>
</event>
<event>
 4    1  0.4043737E+006  0.8927520E+01  0.7546771E-02  0.2141709E+00
         21   -1    0    0  501  502  0.00000000000E+00  0.00000000000E+00  0.86896875312E+01  0.86896875312E+01  0.00000000000E+00 0. -1.
         21   -1    0    0  502  503 -0.00000000000E+00 -0.00000000000E+00 -0.13934757751E+02  0.13934757751E+02  0.00000000000E+00 0.  1.
          5    1    1    2  501    0 -0.49420691718E+01  0.57607775788E+01  0.39910023366E+01  0.97789930801E+01  0.47000000000E+01 0. -1.
         -5    1    1    2    0  503  0.49420691718E+01 -0.57607775788E+01 -0.92360725565E+01  0.12845452202E+02  0.47000000000E+01 0.  1.
<mgrwt>
<rscale>  2 0.89275196E+01</rscale>
<asrwt>0</asrwt>
<pdfrwt beam="1">  1       21 0.13368750E-02 0.89275196E+01</pdfrwt>
<pdfrwt beam="2">  1       21 0.21438089E-02 0.89275196E+01</pdfrwt>
<totfact> 0.93460434E+08</totfact>
</mgrwt>
</event>
<event>
 4    1  0.4043737E+006  0.3339437E+02  0.7546771E-02  0.1563339E+00
         21   -1    0    0  501  502  0.00000000000E+00  0.00000000000E+00  0.78847778871E+03  0.78847778871E+03  0.00000000000E+00 0. -1.
         21   -1    0    0  502  503 -0.00000000000E+00 -0.00000000000E+00 -0.17667479542E+01  0.17667479542E+01  0.00000000000E+00 0.  1.
          5    1    1    2  501    0  0.21938350244E+02 -0.24734642390E+02  0.56982140290E+03  0.57079910209E+03  0.47000000000E+01 0. -1.
         -5    1    1    2    0  503 -0.21938350244E+02  0.24734642390E+02  0.21688963786E+03  0.21944543457E+03  0.47000000000E+01 0.  1.
<mgrwt>
<rscale>  2 0.33394367E+02</rscale>
<asrwt>0</asrwt>
<pdfrwt beam="1">  1       21 0.12130399E+00 0.33394367E+02</pdfrwt>
<pdfrwt beam="2">  1       21 0.27180801E-03 0.33394367E+02</pdfrwt>
<totfact> 0.12954305E+07</totfact>
</mgrwt>
</event>
<event>
 4    1  0.4043737E+006  0.8154436E+01  0.7546771E-02  0.2198274E+00
         21   -1    0    0  501  502  0.00000000000E+00  0.00000000000E+00  0.35945024154E+02  0.35945024154E+02  0.00000000000E+00 0.  1.
         21   -1    0    0  502  503 -0.00000000000E+00 -0.00000000000E+00 -0.36055144128E+01  0.36055144128E+01  0.00000000000E+00 0. -1.
          5    1    1    2  501    0  0.65977651192E+01  0.93505123447E+00  0.29968923633E+02  0.31058512667E+02  0.47000000000E+01 0.  1.
         -5    1    1    2    0  503 -0.65977651192E+01 -0.93505123447E+00  0.23705861078E+01  0.84920258992E+01  0.47000000000E+01 0. -1.
<mgrwt>
<rscale>  2 0.81544359E+01</rscale>
<asrwt>0</asrwt>
<pdfrwt beam="1">  1       21 0.55300035E-02 0.81544359E+01</pdfrwt>
<pdfrwt beam="2">  1       21 0.55469455E-03 0.81544359E+01</pdfrwt>
<totfact> 0.75607859E+08</totfact>
</mgrwt>
</event>
<event>
 4    1  0.4043737E+006  0.9962855E+01  0.7546771E-02  0.2077108E+00
         21   -1    0    0  503  502  0.00000000000E+00  0.00000000000E+00  0.26810687994E+01  0.26810687994E+01  0.00000000000E+00 0.  1.
         21   -1    0    0  501  503 -0.00000000000E+00 -0.00000000000E+00 -0.37078522803E+02  0.37078522803E+02  0.00000000000E+00 0. -1.
          5    1    1    2  501    0  0.59461661695E+01 -0.64661881537E+01 -0.17975029431E+02  0.20551402979E+02  0.47000000000E+01 0. -1.
         -5    1    1    2    0  502 -0.59461661695E+01  0.64661881537E+01 -0.16422424572E+02  0.19208188623E+02  0.47000000000E+01 0.  1.
<mgrwt>
<rscale>  2 0.99628551E+01</rscale>
<asrwt>0</asrwt>
<pdfrwt beam="1">  1       21 0.41247216E-03 0.99628551E+01</pdfrwt>
<pdfrwt beam="2">  1       21 0.57043876E-02 0.99628551E+01</pdfrwt>
<totfact> 0.12411206E+09</totfact>
</mgrwt>
</event>
<event>
 4    1  0.4043737E+006  0.7723362E+01  0.7546771E-02  0.2233709E+00
         21   -1    0    0  503  502  0.00000000000E+00  0.00000000000E+00  0.56495926404E+00  0.56495926404E+00  0.00000000000E+00 0.  1.
         21   -1    0    0  501  503 -0.00000000000E+00 -0.00000000000E+00 -0.15549367249E+03  0.15549367249E+03  0.00000000000E+00 0. -1.
          5    1    1    2  501    0 -0.48564846122E+01  0.37382982663E+01 -0.12167190533E+03  0.12191678663E+03  0.47000000000E+01 0. -1.
         -5    1    1    2    0  502  0.48564846122E+01 -0.37382982663E+01 -0.33256807894E+02  0.34141845117E+02  0.47000000000E+01 0.  1.
<mgrwt>
<rscale>  2 0.77233617E+01</rscale>
<asrwt>0</asrwt>
<pdfrwt beam="1">  1       21 0.86916619E-04 0.77233617E+01</pdfrwt>
<pdfrwt beam="2">  1       21 0.23922156E-01 0.77233617E+01</pdfrwt>
<totfact> 0.93492038E+08</totfact>
</mgrwt>
</event>
<event>
 4    1  0.4043737E+006  0.5307259E+01  0.7546771E-02  0.2515372E+00
         21   -1    0    0  501  502  0.00000000000E+00  0.00000000000E+00  0.18659718321E+00  0.18659718321E+00  0.00000000000E+00 0. -1.
         21   -1    0    0  502  503 -0.00000000000E+00 -0.00000000000E+00 -0.19463630421E+03  0.19463630421E+03  0.00000000000E+00 0.  1.
          5    1    1    2  501    0 -0.23641775234E+01  0.69833001660E+00 -0.51075395987E+02  0.51350395085E+02  0.47000000000E+01 0.  1.
         -5    1    1    2    0  503  0.23641775234E+01 -0.69833001660E+00 -0.14337431104E+03  0.14347250630E+03  0.47000000000E+01 0.  1.
<mgrwt>
<rscale>  2 0.53072592E+01</rscale>
<asrwt>0</asrwt>
<pdfrwt beam="1">  1       21 0.28707297E-04 0.53072592E+01</pdfrwt>
<pdfrwt beam="2">  1       21 0.29944007E-01 0.53072592E+01</pdfrwt>
<totfact> 0.21453447E+09</totfact>
</mgrwt>
</event>
<event>
 4    1  0.4043737E+006  0.5709666E+01  0.7546771E-02  0.2454815E+00
         21   -1    0    0  501  502  0.00000000000E+00  0.00000000000E+00  0.18486344900E+03  0.18486344900E+03  0.00000000000E+00 0. -1.
         21   -1    0    0  502  503 -0.00000000000E+00 -0.00000000000E+00 -0.28906577420E+00  0.28906577420E+00  0.00000000000E+00 0. -1.
          5    1    1    2  501    0 -0.27968219696E+01 -0.16395326347E+01  0.15009648806E+03  0.15020504655E+03  0.47000000000E+01 0. -1.
         -5    1    1    2    0  503  0.27968219696E+01  0.16395326347E+01  0.34477895163E+02  0.34947468224E+02  0.47000000000E+01 0. -1.
<mgrwt>
<rscale>  2 0.57096655E+01</rscale>
<asrwt>0</asrwt>
<pdfrwt beam="1">  1       21 0.28440436E-01 0.57096655E+01</pdfrwt>
<pdfrwt beam="2">  1       21 0.44471805E-04 0.57096655E+01</pdfrwt>
<totfact> 0.13882639E+09</totfact>
</mgrwt>
</event>
<event>
 4    1  0.4043737E+006  0.5985880E+01  0.7546771E-02  0.2417265E+00
         21   -1    0    0  501  502  0.00000000000E+00  0.00000000000E+00  0.67392098171E+00  0.67392098171E+00  0.00000000000E+00 0.  1.
         21   -1    0    0  502  503 -0.00000000000E+00 -0.00000000000E+00 -0.54340592346E+02  0.54340592346E+02  0.00000000000E+00 0. -1.
          5    1    1    2  501    0  0.24411420894E+01 -0.27895497311E+01 -0.30874740463E+02  0.31449648027E+02  0.47000000000E+01 0.  1.
         -5    1    1    2    0  503 -0.24411420894E+01  0.27895497311E+01 -0.22791930902E+02  0.23564865300E+02  0.47000000000E+01 0. -1.
<mgrwt>
<rscale>  2 0.59858803E+01</rscale>
<asrwt>0</asrwt>
<pdfrwt beam="1">  1       21 0.10368012E-03 0.59858803E+01</pdfrwt>
<pdfrwt beam="2">  1       21 0.83600934E-02 0.59858803E+01</pdfrwt>
<totfact> 0.32317971E+09</totfact>
</mgrwt>
</event>
<event>
 4    1  0.4043737E+006  0.6736806E+01  0.7546771E-02  0.2328375E+00
         21   -1    0    0  501  502  0.00000000000E+00  0.00000000000E+00  0.97615328402E+02  0.97615328402E+02  0.00000000000E+00 0.  1.
         21   -1    0    0  502  503 -0.00000000000E+00 -0.00000000000E+00 -0.98006206043E+00  0.98006206043E+00  0.00000000000E+00 0. -1.
          5    1    1    2  501    0  0.10771981352E+01 -0.47046999398E+01  0.84057915793E+02  0.84327443722E+02  0.47000000000E+01 0.  1.
         -5    1    1    2    0  503 -0.10771981352E+01  0.47046999398E+01  0.12577350549E+02  0.14267946740E+02  0.47000000000E+01 0. -1.
<mgrwt>
<rscale>  2 0.67368062E+01</rscale>
<asrwt>0</asrwt>
<pdfrwt beam="1">  1       21 0.15017735E-01 0.67368062E+01</pdfrwt>
<pdfrwt beam="2">  1       21 0.15077886E-03 0.67368062E+01</pdfrwt>
<totfact> 0.86060175E+08</totfact>
</mgrwt>
</event>
<event>
 4    1  0.4043737E+006  0.6422624E+01  0.7546771E-02  0.2363463E+00
         21   -1    0    0  501  502  0.00000000000E+00  0.00000000000E+00  0.64042155110E+02  0.64042155110E+02  0.00000000000E+00 0.  1.
         21   -1    0    0  502  503 -0.00000000000E+00 -0.00000000000E+00 -0.78322467367E+00  0.78322467367E+00  0.00000000000E+00 0. -1.
          5    1    1    2  501    0  0.61975360802E+00  0.43331281631E+01  0.45289781689E+02  0.45742916607E+02  0.47000000000E+01 0.  1.
         -5    1    1    2    0  503 -0.61975360802E+00 -0.43331281631E+01  0.17969148747E+02  0.19082463177E+02  0.47000000000E+01 0. -1.
<mgrwt>
<rscale>  2 0.64226236E+01</rscale>
<asrwt>0</asrwt>
<pdfrwt beam="1">  1       21 0.98526351E-02 0.64226236E+01</pdfrwt>
<pdfrwt beam="2">  1       21 0.12049615E-03 0.64226236E+01</pdfrwt>
<totfact> 0.21769615E+09</totfact>
</mgrwt>
</event>
<event>
 4    1  0.4043737E+006  0.1177299E+02  0.7546771E-02  0.1986218E+00
         21   -1    0    0  503  502  0.00000000000E+00  0.00000000000E+00  0.23140386851E+01  0.23140386851E+01  0.00000000000E+00 0. -1.
         21   -1    0    0  501  503 -0.00000000000E+00 -0.00000000000E+00 -0.64774075984E+02  0.64774075984E+02  0.00000000000E+00 0.  1.
          5    1    1    2  501    0 -0.30802646749E+01 -0.10345301267E+02 -0.40434682750E+02  0.42113737164E+02  0.47000000000E+01 0. -1.
         -5    1    1    2    0  502  0.30802646749E+01  0.10345301267E+02 -0.22025354548E+02  0.24974377505E+02  0.47000000000E+01 0.  1.
<mgrwt>
<rscale>  2 0.11772990E+02</rscale>
<asrwt>0</asrwt>
<pdfrwt beam="1">  1       21 0.35600595E-03 0.11772990E+02</pdfrwt>
<pdfrwt beam="2">  1       21 0.99652426E-02 0.11772990E+02</pdfrwt>
<totfact> 0.69823776E+08</totfact>
</mgrwt>
</event>
<event>
 4    1  0.4043737E+006  0.6607221E+01  0.7546771E-02  0.2342513E+00
         21   -1    0    0  501  502  0.00000000000E+00  0.00000000000E+00  0.86308427544E-01  0.86308427544E-01  0.00000000000E+00 0.  1.
         21   -1    0    0  502  503 -0.00000000000E+00 -0.00000000000E+00 -0.11753619870E+04  0.11753619870E+04  0.00000000000E+00 0.  1.
          5    1    1    2  501    0  0.41884930548E+01  0.20054648787E+01 -0.14404860045E+03  0.14420005082E+03  0.47000000000E+01 0.  1.
         -5    1    1    2    0  503 -0.41884930548E+01 -0.20054648787E+01 -0.10312270781E+04  0.10312482446E+04  0.47000000000E+01 0.  1.
<mgrwt>
<rscale>  2 0.66072206E+01</rscale>
<asrwt>0</asrwt>
<pdfrwt beam="1">  1       21 0.13277901E-04 0.66072206E+01</pdfrwt>
<pdfrwt beam="2">  1       21 0.18082927E+00 0.66072206E+01</pdfrwt>
<totfact> 0.21852733E+08</totfact>
</mgrwt>
</event>
<event>
 4    1  0.4043737E+006  0.7341849E+01  0.7546771E-02  0.2267851E+00
         21   -1    0    0  503  502  0.00000000000E+00  0.00000000000E+00  0.24848324185E+01  0.24848324185E+01  0.00000000000E+00 0.  1.
         21   -1    0    0  501  503 -0.00000000000E+00 -0.00000000000E+00 -0.56273140976E+02  0.56273140976E+02  0.00000000000E+00 0.  1.
          5    1    1    2  501    0  0.16837059659E+01 -0.53831104422E+01 -0.49924552544E+02  0.50461507018E+02  0.47000000000E+01 0.  1.
         -5    1    1    2    0  502 -0.16837059659E+01  0.53831104422E+01 -0.38637560143E+01  0.82964663774E+01  0.47000000000E+01 0.  1.
<mgrwt>
<rscale>  2 0.73418488E+01</rscale>
<asrwt>0</asrwt>
<pdfrwt beam="1">  1       21 0.38228194E-03 0.73418488E+01</pdfrwt>
<pdfrwt beam="2">  1       21 0.86574057E-02 0.73418488E+01</pdfrwt>
<totfact> 0.59967146E+08</totfact>
</mgrwt>
</event>
<event>
 4    1  0.4043737E+006  0.5093753E+01  0.7546771E-02  0.2550786E+00
         21   -1    0    0  503  502  0.00000000000E+00  0.00000000000E+00  0.18354501361E+01  0.18354501361E+01  0.00000000000E+00 0.  1.
         21   -1    0    0  501  503 -0.00000000000E+00 -0.00000000000E+00 -0.37934897934E+02  0.37934897934E+02  0.00000000000E+00 0. -1.
          5    1    1    2  501    0 -0.16880223761E+01  0.10034430838E+01 -0.33799935714E+02  0.34181602827E+02  0.47000000000E+01 0. -1.
         -5    1    1    2    0  502  0.16880223761E+01 -0.10034430838E+01 -0.22995120837E+01  0.55887452427E+01  0.47000000000E+01 0.  1.
<mgrwt>
<rscale>  2 0.50937528E+01</rscale>
<asrwt>0</asrwt>
<pdfrwt beam="1">  1       21 0.28237695E-03 0.50937528E+01</pdfrwt>
<pdfrwt beam="2">  1       21 0.58361381E-02 0.50937528E+01</pdfrwt>
<totfact> 0.12372034E+09</totfact>
</mgrwt>
</event>
<event>
 4    1  0.4043737E+006  0.8231810E+01  0.7546771E-02  0.2192231E+00
         21   -1    0    0  503  502  0.00000000000E+00  0.00000000000E+00  0.46746979911E+02  0.46746979911E+02  0.00000000000E+00 0.  1.
         21   -1    0    0  501  503 -0.00000000000E+00 -0.00000000000E+00 -0.41746577336E+01  0.41746577336E+01  0.00000000000E+00 0. -1.
          5    1    1    2  501    0 -0.19530598990E+01  0.64697957063E+01  0.71528826145E+00  0.82628286166E+01  0.47000000000E+01 0. -1.
         -5    1    1    2    0  502  0.19530598990E+01 -0.64697957063E+01  0.41857033916E+02  0.42658809028E+02  0.47000000000E+01 0.  1.
<mgrwt>
<rscale>  2 0.82318102E+01</rscale>
<asrwt>0</asrwt>
<pdfrwt beam="1">  1       21 0.71918427E-02 0.82318102E+01</pdfrwt>
<pdfrwt beam="2">  1       21 0.64225507E-03 0.82318102E+01</pdfrwt>
<totfact> 0.41323895E+08</totfact>
</mgrwt>
</event>
<event>
 4    1  0.4043737E+006  0.5752503E+01  0.7546771E-02  0.2448793E+00
         21   -1    0    0  503  502  0.00000000000E+00  0.00000000000E+00  0.10995954530E+02  0.10995954530E+02  0.00000000000E+00 0. -1.
         21   -1    0    0  501  503 -0.00000000000E+00 -0.00000000000E+00 -0.77566869476E+01  0.77566869476E+01  0.00000000000E+00 0.  1.
          5    1    1    2  501    0  0.18530174665E+01 -0.27509302386E+01 -0.57156478383E+01  0.81092491095E+01  0.47000000000E+01 0.  1.
         -5    1    1    2    0  502 -0.18530174665E+01  0.27509302386E+01  0.89549154206E+01  0.10643392368E+02  0.47000000000E+01 0. -1.
<mgrwt>
<rscale>  2 0.57525030E+01</rscale>
<asrwt>0</asrwt>
<pdfrwt beam="1">  1       21 0.16916853E-02 0.57525030E+01</pdfrwt>
<pdfrwt beam="2">  1       21 0.11933365E-02 0.57525030E+01</pdfrwt>
<totfact> 0.11246668E+09</totfact>
</mgrwt>
</event>
<event>
 4    1  0.4043737E+006  0.5359988E+01  0.7546771E-02  0.2506998E+00
         21   -1    0    0  503  502  0.00000000000E+00  0.00000000000E+00  0.43975295509E+00  0.43975295509E+00  0.00000000000E+00 0. -1.
         21   -1    0    0  501  503 -0.00000000000E+00 -0.00000000000E+00 -0.15322423654E+03  0.15322423654E+03  0.00000000000E+00 0.  1.
          5    1    1    2  501    0  0.12715767227E+01  0.22411084569E+01 -0.13458329924E+03  0.13468999187E+03  0.47000000000E+01 0.  1.
         -5    1    1    2    0  502 -0.12715767227E+01 -0.22411084569E+01 -0.18201184343E+02  0.18973997628E+02  0.47000000000E+01 0. -1.
<mgrwt>
<rscale>  2 0.53599883E+01</rscale>
<asrwt>0</asrwt>
<pdfrwt beam="1">  1       21 0.67654233E-04 0.53599883E+01</pdfrwt>
<pdfrwt beam="2">  1       21 0.23572983E-01 0.53599883E+01</pdfrwt>
<totfact> 0.10267535E+09</totfact>
</mgrwt>
</event>
<event>
 4    1  0.4043737E+006  0.5185090E+01  0.7546771E-02  0.2535330E+00
         21   -1    0    0  501  502  0.00000000000E+00  0.00000000000E+00  0.30050261008E+01  0.30050261008E+01  0.00000000000E+00 0.  1.
         21   -1    0    0  502  503 -0.00000000000E+00 -0.00000000000E+00 -0.95336677346E+01  0.95336677346E+01  0.00000000000E+00 0. -1.
          5    1    1    2  501    0  0.87856019531E-01 -0.21880223248E+01 -0.17087566966E+01  0.54593964705E+01  0.47000000000E+01 0.  1.
         -5    1    1    2    0  503 -0.87856019531E-01  0.21880223248E+01 -0.48198849371E+01  0.70792973649E+01  0.47000000000E+01 0. -1.
<mgrwt>
<rscale>  2 0.51850902E+01</rscale>
<asrwt>0</asrwt>
<pdfrwt beam="1">  1       21 0.46231172E-03 0.51850902E+01</pdfrwt>
<pdfrwt beam="2">  1       21 0.14667181E-02 0.51850902E+01</pdfrwt>
<totfact> 0.46824666E+09</totfact>
</mgrwt>
</event>
<event>
 4    1  0.4043737E+006  0.5018537E+01  0.7546771E-02  0.2563876E+00
         21   -1    0    0  503  502  0.00000000000E+00  0.00000000000E+00  0.10732791178E+02  0.10732791178E+02  0.00000000000E+00 0. -1.
         21   -1    0    0  501  503 -0.00000000000E+00 -0.00000000000E+00 -0.38132418494E+01  0.38132418494E+01  0.00000000000E+00 0. -1.
          5    1    1    2  501    0 -0.17154865287E+01 -0.39092645756E+00 -0.10507531901E+01  0.51273579738E+01  0.47000000000E+01 0. -1.
         -5    1    1    2    0  502  0.17154865287E+01  0.39092645756E+00  0.79703025188E+01  0.94186750536E+01  0.47000000000E+01 0. -1.
<mgrwt>
<rscale>  2 0.50185374E+01</rscale>
<asrwt>0</asrwt>
<pdfrwt beam="1">  1       21 0.16511986E-02 0.50185374E+01</pdfrwt>
<pdfrwt beam="2">  1       21 0.58665259E-03 0.50185374E+01</pdfrwt>
<totfact> 0.27599028E+09</totfact>
</mgrwt>
</event>
<event>
 4    1  0.4043737E+006  0.5113375E+01  0.7546771E-02  0.2547426E+00
         21   -1    0    0  501  502  0.00000000000E+00  0.00000000000E+00  0.11305747176E+04  0.11305747176E+04  0.00000000000E+00 0.  1.
         21   -1    0    0  502  503 -0.00000000000E+00 -0.00000000000E+00 -0.52759333363E-01  0.52759333363E-01  0.00000000000E+00 0.  1.
          5    1    1    2  501    0 -0.11756247584E+01  0.16353920220E+01  0.98892747190E+03  0.98894069149E+03  0.47000000000E+01 0.  1.
         -5    1    1    2    0  503  0.11756247584E+01 -0.16353920220E+01  0.14159448637E+03  0.14168678545E+03  0.47000000000E+01 0.  1.
<mgrwt>
<rscale>  2 0.51133747E+01</rscale>
<asrwt>0</asrwt>
<pdfrwt beam="1">  1       21 0.17391517E+00 0.51133747E+01</pdfrwt>
<pdfrwt beam="2">  1       21 0.81177260E-05 0.51133747E+01</pdfrwt>
<totfact> 0.39315428E+08</totfact>
</mgrwt>
</event>
<event>
 4    1  0.4043737E+006  0.4736344E+01  0.7546771E-02  0.2616165E+00
         21   -1    0    0  501  502  0.00000000000E+00  0.00000000000E+00  0.26629121964E+02  0.26629121964E+02  0.00000000000E+00 0. -1.
         21   -1    0    0  502  503 -0.00000000000E+00 -0.00000000000E+00 -0.44211804941E+01  0.44211804941E+01  0.00000000000E+00 0. -1.
          5    1    1    2  501    0  0.47485149914E+00 -0.34274171918E+00  0.25071928652E+02  0.25515378935E+02  0.47000000000E+01 0. -1.
         -5    1    1    2    0  503 -0.47485149914E+00  0.34274171918E+00 -0.28639871823E+01  0.55349235236E+01  0.47000000000E+01 0. -1.
<mgrwt>
<rscale>  2 0.47363441E+01</rscale>
<asrwt>0</asrwt>
<pdfrwt beam="1">  1       21 0.40967879E-02 0.47363441E+01</pdfrwt>
<pdfrwt beam="2">  1       21 0.68018163E-03 0.47363441E+01</pdfrwt>
<totfact> 0.58172552E+08</totfact>
</mgrwt>
</event>
<event>
 4    1  0.4043737E+006  0.6359869E+01  0.7546771E-02  0.2370814E+00
         21   -1    0    0  501  502  0.00000000000E+00  0.00000000000E+00  0.25556878322E+02  0.25556878322E+02  0.00000000000E+00 0.  1.
         21   -1    0    0  502  503 -0.00000000000E+00 -0.00000000000E+00 -0.33796627185E+01  0.33796627185E+01  0.00000000000E+00 0. -1.
          5    1    1    2  501    0  0.42385508034E+01  0.62659897973E+00  0.21638642323E+02  0.22553908326E+02  0.47000000000E+01 0.  1.
         -5    1    1    2    0  503 -0.42385508034E+01 -0.62659897973E+00  0.53857328086E+00  0.63826327149E+01  0.47000000000E+01 0. -1.
<mgrwt>
<rscale>  2 0.63598694E+01</rscale>
<asrwt>0</asrwt>
<pdfrwt beam="1">  1       21 0.39318273E-02 0.63598694E+01</pdfrwt>
<pdfrwt beam="2">  1       21 0.51994813E-03 0.63598694E+01</pdfrwt>
<totfact> 0.11559659E+09</totfact>
</mgrwt>
</event>
<event>
 4    1  0.4043737E+006  0.7577533E+01  0.7546771E-02  0.2246430E+00
         21   -1    0    0  501  502  0.00000000000E+00  0.00000000000E+00  0.87261735243E+01  0.87261735243E+01  0.00000000000E+00 0. -1.
         21   -1    0    0  502  503 -0.00000000000E+00 -0.00000000000E+00 -0.66096639242E+01  0.66096639242E+01  0.00000000000E+00 0.  1.
          5    1    1    2  501    0 -0.38708105737E+01  0.45106358460E+01  0.15711630593E+01  0.77387055501E+01  0.47000000000E+01 0. -1.
         -5    1    1    2    0  503  0.38708105737E+01 -0.45106358460E+01  0.54534654080E+00  0.75971318984E+01  0.47000000000E+01 0.  1.
<mgrwt>
<rscale>  2 0.75775333E+01</rscale>
<asrwt>0</asrwt>
<pdfrwt beam="1">  1       21 0.13424882E-02 0.75775333E+01</pdfrwt>
<pdfrwt beam="2">  1       21 0.10168714E-02 0.75775333E+01</pdfrwt>
<totfact> 0.24516389E+09</totfact>
</mgrwt>
</event>
<event>
 4    1  0.4043737E+006  0.7010222E+01  0.7546771E-02  0.2299964E+00
         21   -1    0    0  501  502  0.00000000000E+00  0.00000000000E+00  0.11105119207E+04  0.11105119207E+04  0.00000000000E+00 0. -1.
         21   -1    0    0  502  503 -0.00000000000E+00 -0.00000000000E+00 -0.10142071210E+00  0.10142071210E+00  0.00000000000E+00 0. -1.
          5    1    1    2  501    0  0.35608076398E+01 -0.37912869072E+01  0.97211870823E+03  0.97214398424E+03  0.47000000000E+01 0. -1.
         -5    1    1    2    0  503 -0.35608076398E+01  0.37912869072E+01  0.13829179180E+03  0.13846935721E+03  0.47000000000E+01 0. -1.
<mgrwt>
<rscale>  2 0.70102216E+01</rscale>
<asrwt>0</asrwt>
<pdfrwt beam="1">  1       21 0.17083825E+00 0.70102216E+01</pdfrwt>
<pdfrwt beam="2">  1       21 0.15604076E-04 0.70102216E+01</pdfrwt>
<totfact> 0.20617248E+08</totfact>
</mgrwt>
</event>
<event>
 4    1  0.4043737E+006  0.6224879E+01  0.7546771E-02  0.2387043E+00
         21   -1    0    0  503  502  0.00000000000E+00  0.00000000000E+00  0.11713798469E+01  0.11713798469E+01  0.00000000000E+00 0.  1.
         21   -1    0    0  501  503 -0.00000000000E+00 -0.00000000000E+00 -0.33578517942E+02  0.33578517942E+02  0.00000000000E+00 0.  1.
          5    1    1    2  501    0 -0.15397877598E+01  0.37799694209E+01 -0.18320865006E+02  0.19349501537E+02  0.47000000000E+01 0.  1.
         -5    1    1    2    0  502  0.15397877598E+01 -0.37799694209E+01 -0.14086273088E+02  0.15400396251E+02  0.47000000000E+01 0.  1.
<mgrwt>
<rscale>  2 0.62248787E+01</rscale>
<asrwt>0</asrwt>
<pdfrwt beam="1">  1       21 0.18021228E-03 0.62248787E+01</pdfrwt>
<pdfrwt beam="2">  1       21 0.51659259E-02 0.62248787E+01</pdfrwt>
<totfact> 0.32635589E+09</totfact>
</mgrwt>
</event>
<event>
 4    1  0.4043737E+006  0.6663932E+01  0.7546771E-02  0.2336269E+00
         21   -1    0    0  503  502  0.00000000000E+00  0.00000000000E+00  0.62445907953E+01  0.62445907953E+01  0.00000000000E+00 0.  1.
         21   -1    0    0  501  503 -0.00000000000E+00 -0.00000000000E+00 -0.71166179344E+01  0.71166179344E+01  0.00000000000E+00 0.  1.
          5    1    1    2  501    0 -0.84992498633E+00 -0.46471083598E+01 -0.61633762496E+00  0.66923733203E+01  0.47000000000E+01 0.  1.
         -5    1    1    2    0  502  0.84992498633E+00  0.46471083598E+01 -0.25568951412E+00  0.66688354094E+01  0.47000000000E+01 0.  1.
<mgrwt>
<rscale>  2 0.66639319E+01</rscale>
<asrwt>0</asrwt>
<pdfrwt beam="1">  1       21 0.96070628E-03 0.66639319E+01</pdfrwt>
<pdfrwt beam="2">  1       21 0.10948643E-02 0.66639319E+01</pdfrwt>
<totfact> 0.32172739E+09</totfact>
</mgrwt>
</event>
<event>
 4    1  0.4043737E+006  0.8582460E+01  0.7546771E-02  0.2165949E+00
         21   -1    0    0  503  502  0.00000000000E+00  0.00000000000E+00  0.11058752869E+04  0.11058752869E+04  0.00000000000E+00 0. -1.
         21   -1    0    0  501  503 -0.00000000000E+00 -0.00000000000E+00 -0.68415986123E-01  0.68415986123E-01  0.00000000000E+00 0. -1.
          5    1    1    2  501    0 -0.15956480111E+01 -0.70016088707E+01  0.46297708179E+03  0.46305662384E+03  0.47000000000E+01 0. -1.
         -5    1    1    2    0  502  0.15956480111E+01  0.70016088707E+01  0.64282978911E+03  0.64288707903E+03  0.47000000000E+01 0. -1.
<mgrwt>
<rscale>  2 0.85824600E+01</rscale>
<asrwt>0</asrwt>
<pdfrwt beam="1">  1       21 0.17012034E+00 0.85824600E+01</pdfrwt>
<pdfrwt beam="2">  1       21 0.10526422E-04 0.85824600E+01</pdfrwt>
<totfact> 0.38965612E+08</totfact>
</mgrwt>
</event>
<event>
 4    1  0.4043737E+006  0.5136535E+01  0.7546771E-02  0.2543488E+00
         21   -1    0    0  503  502  0.00000000000E+00  0.00000000000E+00  0.26729926077E+03  0.26729926077E+03  0.00000000000E+00 0.  1.
         21   -1    0    0  501  503 -0.00000000000E+00 -0.00000000000E+00 -0.11319584263E+00  0.11319584263E+00  0.00000000000E+00 0.  1.
          5    1    1    2  501    0  0.61360727264E-01 -0.20712868664E+01  0.85755272406E+02  0.85908967750E+02  0.47000000000E+01 0.  1.
         -5    1    1    2    0  502 -0.61360727264E-01  0.20712868664E+01  0.18143079252E+03  0.18150348886E+03  0.47000000000E+01 0.  1.
<mgrwt>
<rscale>  2 0.51365353E+01</rscale>
<asrwt>0</asrwt>
<pdfrwt beam="1">  1       21 0.41122458E-01 0.51365353E+01</pdfrwt>
<pdfrwt beam="2">  1       21 0.17414959E-04 0.51365353E+01</pdfrwt>
<totfact> 0.23612372E+09</totfact>
</mgrwt>
</event>
<event>
 4    1  0.4043737E+006  0.1010944E+02  0.7546771E-02  0.2068812E+00
         21   -1    0    0  503  502  0.00000000000E+00  0.00000000000E+00  0.15552921820E+02  0.15552921820E+02  0.00000000000E+00 0. -1.
         21   -1    0    0  501  503 -0.00000000000E+00 -0.00000000000E+00 -0.44985696510E+02  0.44985696510E+02  0.00000000000E+00 0.  1.
          5    1    1    2  501    0  0.87376675060E+01  0.19401042387E+01 -0.42687712841E+02  0.43868458664E+02  0.47000000000E+01 0.  1.
         -5    1    1    2    0  502 -0.87376675060E+01 -0.19401042387E+01  0.13254938152E+02  0.16670159667E+02  0.47000000000E+01 0. -1.
<mgrwt>
<rscale>  2 0.10109443E+02</rscale>
<asrwt>0</asrwt>
<pdfrwt beam="1">  1       21 0.23927572E-02 0.10109443E+02</pdfrwt>
<pdfrwt beam="2">  1       21 0.69208764E-02 0.10109443E+02</pdfrwt>
<totfact> 0.72161937E+07</totfact>
</mgrwt>
</event>
<event>
 4    1  0.4043737E+006  0.8448410E+01  0.7546771E-02  0.2175790E+00
         21   -1    0    0  503  502  0.00000000000E+00  0.00000000000E+00  0.51373272884E+02  0.51373272884E+02  0.00000000000E+00 0.  1.
         21   -1    0    0  501  503 -0.00000000000E+00 -0.00000000000E+00 -0.26076825911E+01  0.26076825911E+01  0.00000000000E+00 0.  1.
          5    1    1    2  501    0  0.54364476286E+00  0.69992911013E+01  0.59341043085E+01  0.10324205514E+02  0.47000000000E+01 0.  1.
         -5    1    1    2    0  502 -0.54364476286E+00 -0.69992911013E+01  0.42831485984E+02  0.43656749961E+02  0.47000000000E+01 0.  1.
<mgrwt>
<rscale>  2 0.84484096E+01</rscale>
<asrwt>0</asrwt>
<pdfrwt beam="1">  1       21 0.79035797E-02 0.84484096E+01</pdfrwt>
<pdfrwt beam="2">  1       21 0.40118198E-03 0.84484096E+01</pdfrwt>
<totfact> 0.70605756E+08</totfact>
</mgrwt>
</event>
<event>
 4    1  0.4043737E+006  0.6269010E+01  0.7546771E-02  0.2381673E+00
         21   -1    0    0  503  502  0.00000000000E+00  0.00000000000E+00  0.40784010420E+03  0.40784010420E+03  0.00000000000E+00 0. -1.
         21   -1    0    0  501  503 -0.00000000000E+00 -0.00000000000E+00 -0.11898482825E+00  0.11898482825E+00  0.00000000000E+00 0. -1.
          5    1    1    2  501    0 -0.30037457922E+01  0.28614681790E+01  0.11491801578E+03  0.11508888235E+03  0.47000000000E+01 0. -1.
         -5    1    1    2    0  502  0.30037457922E+01 -0.28614681790E+01  0.29280310359E+03  0.29287020668E+03  0.47000000000E+01 0. -1.
<mgrwt>
<rscale>  2 0.62690102E+01</rscale>
<asrwt>0</asrwt>
<pdfrwt beam="1">  1       21 0.62743512E-01 0.62690102E+01</pdfrwt>
<pdfrwt beam="2">  1       21 0.18305685E-04 0.62690102E+01</pdfrwt>
<totfact> 0.12081140E+09</totfact>
</mgrwt>
</event>
<event>
 4    1  0.4043737E+006  0.4794908E+01  0.7546771E-02  0.2604876E+00
         21   -1    0    0  501  502  0.00000000000E+00  0.00000000000E+00  0.48458585898E+00  0.48458585898E+00  0.00000000000E+00 0.  1.
         21   -1    0    0  502  503 -0.00000000000E+00 -0.00000000000E+00 -0.59205689716E+02  0.59205689716E+02  0.00000000000E+00 0.  1.
          5    1    1    2  501    0 -0.22490376065E+00 -0.92225775215E+00 -0.16058776970E+02  0.16759339451E+02  0.47000000000E+01 0.  1.
         -5    1    1    2    0  503  0.22490376065E+00  0.92225775215E+00 -0.42662326887E+02  0.42930936124E+02  0.47000000000E+01 0.  1.
<mgrwt>
<rscale>  2 0.47949078E+01</rscale>
<asrwt>0</asrwt>
<pdfrwt beam="1">  1       21 0.74551665E-04 0.47949078E+01</pdfrwt>
<pdfrwt beam="2">  1       21 0.91085684E-02 0.47949078E+01</pdfrwt>
<totfact> 0.35691156E+09</totfact>
</mgrwt>
</event>
<event>
 4    1  0.4043737E+006  0.5004575E+01  0.7546771E-02  0.2566343E+00
         21   -1    0    0  501  502  0.00000000000E+00  0.00000000000E+00  0.59119632492E+00  0.59119632492E+00  0.00000000000E+00 0.  1.
         21   -1    0    0  502  503 -0.00000000000E+00 -0.00000000000E+00 -0.46503877330E+02  0.46503877330E+02  0.00000000000E+00 0.  1.
          5    1    1    2  501    0 -0.16848486851E+01 -0.34213367702E+00 -0.29981649140E+02  0.30396464526E+02  0.47000000000E+01 0.  1.
         -5    1    1    2    0  503  0.16848486851E+01  0.34213367702E+00 -0.15931031865E+02  0.16698609129E+02  0.47000000000E+01 0.  1.
<mgrwt>
<rscale>  2 0.50045750E+01</rscale>
<asrwt>0</asrwt>
<pdfrwt beam="1">  1       21 0.90953249E-04 0.50045750E+01</pdfrwt>
<pdfrwt beam="2">  1       21 0.71544451E-02 0.50045750E+01</pdfrwt>
<totfact> 0.41096133E+09</totfact>
</mgrwt>
</event>
<event>
 4    1  0.4043737E+006  0.5760998E+01  0.7546771E-02  0.2447608E+00
         21   -1    0    0  503  502  0.00000000000E+00  0.00000000000E+00  0.18036989091E+01  0.18036989091E+01  0.00000000000E+00 0. -1.
         21   -1    0    0  501  503 -0.00000000000E+00 -0.00000000000E+00 -0.24177817892E+02  0.24177817892E+02  0.00000000000E+00 0.  1.
          5    1    1    2  501    0 -0.22681129280E+01  0.24402370820E+01 -0.17537244044E+02  0.18459253016E+02  0.47000000000E+01 0.  1.
         -5    1    1    2    0  502  0.22681129280E+01 -0.24402370820E+01 -0.48368749390E+01  0.75222637847E+01  0.47000000000E+01 0. -1.
<mgrwt>
<rscale>  2 0.57609976E+01</rscale>
<asrwt>0</asrwt>
<pdfrwt beam="1">  1       21 0.27749215E-03 0.57609976E+01</pdfrwt>
<pdfrwt beam="2">  1       21 0.37196642E-02 0.57609976E+01</pdfrwt>
<totfact> 0.27463449E+09</totfact>
</mgrwt>
</event>
<event>
 4    1  0.4043737E+006  0.5342582E+01  0.7546771E-02  0.2509747E+00
         21   -1    0    0  503  502  0.00000000000E+00  0.00000000000E+00  0.16133555444E+03  0.16133555444E+03  0.00000000000E+00 0. -1.
         21   -1    0    0  501  503 -0.00000000000E+00 -0.00000000000E+00 -0.20676034975E+00  0.20676034975E+00  0.00000000000E+00 0.  1.
          5    1    1    2  501    0  0.13254648012E+01 -0.21671000614E+01  0.49878525439E+02  0.50163836373E+02  0.47000000000E+01 0.  1.
         -5    1    1    2    0  502 -0.13254648012E+01  0.21671000614E+01  0.11125026865E+03  0.11137847841E+03  0.47000000000E+01 0. -1.
<mgrwt>
<rscale>  2 0.53425817E+01</rscale>
<asrwt>0</asrwt>
<pdfrwt beam="1">  1       21 0.24820754E-01 0.53425817E+01</pdfrwt>
<pdfrwt beam="2">  1       21 0.31809414E-04 0.53425817E+01</pdfrwt>
<totfact> 0.25664144E+09</totfact>
</mgrwt>
</event>
<event>
 4    1  0.4043737E+006  0.6945995E+01  0.7546771E-02  0.2306473E+00
         21   -1    0    0  501  502  0.00000000000E+00  0.00000000000E+00  0.47610691482E+02  0.47610691482E+02  0.00000000000E+00 0.  1.
         21   -1    0    0  502  503 -0.00000000000E+00 -0.00000000000E+00 -0.13289422319E+01  0.13289422319E+01  0.00000000000E+00 0. -1.
          5    1    1    2  501    0 -0.28146477541E+01 -0.42701998804E+01  0.35065172105E+02  0.35746512330E+02  0.47000000000E+01 0.  1.
         -5    1    1    2    0  503  0.28146477541E+01  0.42701998804E+01  0.11216577145E+02  0.13193121384E+02  0.47000000000E+01 0. -1.
<mgrwt>
<rscale>  2 0.69459952E+01</rscale>
<asrwt>0</asrwt>
<pdfrwt beam="1">  1       21 0.73247205E-02 0.69459952E+01</pdfrwt>
<pdfrwt beam="2">  1       21 0.20445269E-03 0.69459952E+01</pdfrwt>
<totfact> 0.17727185E+09</totfact>
</mgrwt>
</event>
<event>
 4    1  0.4043737E+006  0.6247993E+01  0.7546771E-02  0.2384223E+00
         21   -1    0    0  503  502  0.00000000000E+00  0.00000000000E+00  0.24662903958E+03  0.24662903958E+03  0.00000000000E+00 0.  1.
         21   -1    0    0  501  503 -0.00000000000E+00 -0.00000000000E+00 -0.52843262008E+00  0.52843262008E+00  0.00000000000E+00 0.  1.
          5    1    1    2  501    0 -0.11651564167E+01 -0.39483958294E+01  0.19622563436E+02  0.20593261395E+02  0.47000000000E+01 0.  1.
         -5    1    1    2    0  502  0.11651564167E+01  0.39483958294E+01  0.22647804353E+03  0.22656421081E+03  0.47000000000E+01 0.  1.
<mgrwt>
<rscale>  2 0.62479932E+01</rscale>
<asrwt>0</asrwt>
<pdfrwt beam="1">  1       21 0.37942837E-01 0.62479932E+01</pdfrwt>
<pdfrwt beam="2">  1       21 0.81297523E-04 0.62479932E+01</pdfrwt>
<totfact> 0.40543941E+08</totfact>
</mgrwt>
</event>
<event>
 4    1  0.4043737E+006  0.4925678E+01  0.7546771E-02  0.2580510E+00
         21   -1    0    0  503  502  0.00000000000E+00  0.00000000000E+00  0.15411256143E+01  0.15411256143E+01  0.00000000000E+00 0. -1.
         21   -1    0    0  501  503 -0.00000000000E+00 -0.00000000000E+00 -0.55471629897E+02  0.55471629897E+02  0.00000000000E+00 0. -1.
          5    1    1    2  501    0  0.14428042702E+01  0.30102934482E+00 -0.51089683300E+02  0.51326582222E+02  0.47000000000E+01 0. -1.
         -5    1    1    2    0  502 -0.14428042702E+01 -0.30102934482E+00 -0.28408209826E+01  0.56861732900E+01  0.47000000000E+01 0. -1.
<mgrwt>
<rscale>  2 0.49256779E+01</rscale>
<asrwt>0</asrwt>
<pdfrwt beam="1">  1       21 0.23709623E-03 0.49256779E+01</pdfrwt>
<pdfrwt beam="2">  1       21 0.85340975E-02 0.49256779E+01</pdfrwt>
<totfact> 0.86395965E+08</totfact>
</mgrwt>
</event>
<event>
 4    1  0.4043737E+006  0.5014914E+01  0.7546771E-02  0.2564515E+00
         21   -1    0    0  503  502  0.00000000000E+00  0.00000000000E+00  0.73970924719E+02  0.73970924719E+02  0.00000000000E+00 0. -1.
         21   -1    0    0  501  503 -0.00000000000E+00 -0.00000000000E+00 -0.98286411108E+00  0.98286411108E+00  0.00000000000E+00 0. -1.
          5    1    1    2  501    0 -0.17323628769E+01 -0.24140624276E+00  0.61844515396E+01  0.79622106827E+01  0.47000000000E+01 0. -1.
         -5    1    1    2    0  502  0.17323628769E+01  0.24140624276E+00  0.66803609068E+02  0.66991578147E+02  0.47000000000E+01 0. -1.
<mgrwt>
<rscale>  2 0.50149136E+01</rscale>
<asrwt>0</asrwt>
<pdfrwt beam="1">  1       21 0.11380138E-01 0.50149136E+01</pdfrwt>
<pdfrwt beam="2">  1       21 0.15120992E-03 0.50149136E+01</pdfrwt>
<totfact> 0.10405297E+09</totfact>
</mgrwt>
</event>
<event>
 4    1  0.4043737E+006  0.1486759E+02  0.7546771E-02  0.1872136E+00
         21   -1    0    0  501  502  0.00000000000E+00  0.00000000000E+00  0.88225953557E+03  0.88225953557E+03  0.00000000000E+00 0.  1.
         21   -1    0    0  502  503 -0.00000000000E+00 -0.00000000000E+00 -0.46757000761E+00  0.46757000761E+00  0.00000000000E+00 0.  1.
          5    1    1    2  501    0  0.13059029667E+02 -0.53307671887E+01  0.74159254704E+03  0.74174156629E+03  0.47000000000E+01 0.  1.
         -5    1    1    2    0  503 -0.13059029667E+02  0.53307671887E+01  0.14019941852E+03  0.14098553929E+03  0.47000000000E+01 0.  1.
<mgrwt>
<rscale>  2 0.14867593E+02</rscale>
<asrwt>0</asrwt>
<pdfrwt beam="1">  1       21 0.13573090E+00 0.14867593E+02</pdfrwt>
<pdfrwt beam="2">  1       21 0.71934554E-04 0.14867593E+02</pdfrwt>
<totfact> 0.57314078E+07</totfact>
</mgrwt>
</event>
<event>
 4    1  0.4043737E+006  0.6760018E+01  0.7546771E-02  0.2325889E+00
         21   -1    0    0  501  502  0.00000000000E+00  0.00000000000E+00  0.23745765949E+02  0.23745765949E+02  0.00000000000E+00 0. -1.
         21   -1    0    0  502  503 -0.00000000000E+00 -0.00000000000E+00 -0.21486071595E+01  0.21486071595E+01  0.00000000000E+00 0. -1.
          5    1    1    2  501    0 -0.24722536781E+01 -0.41827987024E+01  0.14980355758E+02  0.16434990169E+02  0.47000000000E+01 0. -1.
         -5    1    1    2    0  503  0.24722536781E+01  0.41827987024E+01  0.66168030321E+01  0.94593829397E+01  0.47000000000E+01 0. -1.
<mgrwt>
<rscale>  2 0.67600180E+01</rscale>
<asrwt>0</asrwt>
<pdfrwt beam="1">  1       21 0.36531946E-02 0.67600180E+01</pdfrwt>
<pdfrwt beam="2">  1       21 0.33055496E-03 0.67600180E+01</pdfrwt>
<totfact> 0.25385410E+09</totfact>
</mgrwt>
</event>
<event>
 4    1  0.4043737E+006  0.4765309E+01  0.7546771E-02  0.2610551E+00
         21   -1    0    0  503  502  0.00000000000E+00  0.00000000000E+00  0.88570901486E-01  0.88570901486E-01  0.00000000000E+00 0. -1.
         21   -1    0    0  501  503 -0.00000000000E+00 -0.00000000000E+00 -0.61530486122E+03  0.61530486122E+03  0.00000000000E+00 0. -1.
          5    1    1    2  501    0  0.78436471304E+00  0.54265412046E-01 -0.54261307096E+03  0.54263399538E+03  0.47000000000E+01 0. -1.
         -5    1    1    2    0  502 -0.78436471304E+00 -0.54265412046E-01 -0.72603219363E+02  0.72759436739E+02  0.47000000000E+01 0. -1.
<mgrwt>
<rscale>  2 0.47653093E+01</rscale>
<asrwt>0</asrwt>
<pdfrwt beam="1">  1       21 0.13626216E-04 0.47653093E+01</pdfrwt>
<pdfrwt beam="2">  1       21 0.94662816E-01 0.47653093E+01</pdfrwt>
<totfact> 0.66042712E+08</totfact>
</mgrwt>
</event>
<event>
 4    1  0.4043737E+006  0.8994723E+01  0.7546771E-02  0.2137161E+00
         21   -1    0    0  501  502  0.00000000000E+00  0.00000000000E+00  0.14473311143E+01  0.14473311143E+01  0.00000000000E+00 0.  1.
         21   -1    0    0  502  503 -0.00000000000E+00 -0.00000000000E+00 -0.35015243863E+03  0.35015243863E+03  0.00000000000E+00 0. -1.
          5    1    1    2  501    0  0.75227063359E+01 -0.14912846780E+01 -0.13195085551E+02  0.15969199207E+02  0.47000000000E+01 0.  1.
         -5    1    1    2    0  503 -0.75227063359E+01  0.14912846780E+01 -0.33551002197E+03  0.33563057054E+03  0.47000000000E+01 0. -1.
<mgrwt>
<rscale>  2 0.89947229E+01</rscale>
<asrwt>0</asrwt>
<pdfrwt beam="1">  1       21 0.22266637E-03 0.89947229E+01</pdfrwt>
<pdfrwt beam="2">  1       21 0.53869595E-01 0.89947229E+01</pdfrwt>
<totfact> 0.66355064E+07</totfact>
</mgrwt>
</event>
<event>
 4    1  0.4043737E+006  0.6356035E+01  0.7546771E-02  0.2371267E+00
         21   -1    0    0  503  502  0.00000000000E+00  0.00000000000E+00  0.19313668496E+00  0.19313668496E+00  0.00000000000E+00 0. -1.
         21   -1    0    0  501  503 -0.00000000000E+00 -0.00000000000E+00 -0.86969887530E+03  0.86969887530E+03  0.00000000000E+00 0. -1.
          5    1    1    2  501    0 -0.39540052541E+01  0.16355504749E+01 -0.81380196499E+03  0.81382678587E+03  0.47000000000E+01 0. -1.
         -5    1    1    2    0  502  0.39540052541E+01 -0.16355504749E+01 -0.55703773622E+02  0.56065226109E+02  0.47000000000E+01 0. -1.
<mgrwt>
<rscale>  2 0.63560352E+01</rscale>
<asrwt>0</asrwt>
<pdfrwt beam="1">  1       21 0.29713214E-04 0.63560352E+01</pdfrwt>
<pdfrwt beam="2">  1       21 0.13380038E+00 0.63560352E+01</pdfrwt>
<totfact> 0.14025535E+08</totfact>
</mgrwt>
</event>
<event>
 4    1  0.4043737E+006  0.6670094E+01  0.7546771E-02  0.2335596E+00
         21   -1    0    0  501  502  0.00000000000E+00  0.00000000000E+00  0.35599490470E+01  0.35599490470E+01  0.00000000000E+00 0.  1.
         21   -1    0    0  502  503 -0.00000000000E+00 -0.00000000000E+00 -0.14075916401E+02  0.14075916401E+02  0.00000000000E+00 0. -1.
          5    1    1    2  501    0  0.26189307786E+00  0.47256288910E+01 -0.23050676937E+01  0.70571590227E+01  0.47000000000E+01 0.  1.
         -5    1    1    2    0  503 -0.26189307786E+00 -0.47256288910E+01 -0.82108996601E+01  0.10578706425E+02  0.47000000000E+01 0. -1.
<mgrwt>
<rscale>  2 0.66700942E+01</rscale>
<asrwt>0</asrwt>
<pdfrwt beam="1">  1       21 0.54768447E-03 0.66700942E+01</pdfrwt>
<pdfrwt beam="2">  1       21 0.21655256E-02 0.66700942E+01</pdfrwt>
<totfact> 0.26701080E+09</totfact>
</mgrwt>
</event>
<event>
 4    1  0.4043737E+006  0.5243287E+01  0.7546771E-02  0.2525724E+00
         21   -1    0    0  501  502  0.00000000000E+00  0.00000000000E+00  0.42548430072E+00  0.42548430072E+00  0.00000000000E+00 0. -1.
         21   -1    0    0  502  503 -0.00000000000E+00 -0.00000000000E+00 -0.68908321256E+02  0.68908321256E+02  0.00000000000E+00 0. -1.
          5    1    1    2  501    0  0.11654607110E+01  0.20109111982E+01 -0.25586801056E+02  0.26118507821E+02  0.47000000000E+01 0. -1.
         -5    1    1    2    0  503 -0.11654607110E+01 -0.20109111982E+01 -0.42896035899E+02  0.43215297736E+02  0.47000000000E+01 0. -1.
<mgrwt>
<rscale>  2 0.52432874E+01</rscale>
<asrwt>0</asrwt>
<pdfrwt beam="1">  1       21 0.65459196E-04 0.52432874E+01</pdfrwt>
<pdfrwt beam="2">  1       21 0.10601268E-01 0.52432874E+01</pdfrwt>
<totfact> 0.36881993E+09</totfact>
</mgrwt>
</event>
<event>
 4    1  0.4043737E+006  0.5512060E+01  0.7546771E-02  0.2483615E+00
         21   -1    0    0  501  502  0.00000000000E+00  0.00000000000E+00  0.31291771397E+01  0.31291771397E+01  0.00000000000E+00 0.  1.
         21   -1    0    0  502  503 -0.00000000000E+00 -0.00000000000E+00 -0.29913541882E+02  0.29913541882E+02  0.00000000000E+00 0.  1.
          5    1    1    2  501    0 -0.28794813864E+01 -0.37345160898E-01  0.18566050669E+00  0.55151860838E+01  0.47000000000E+01 0.  1.
         -5    1    1    2    0  503  0.28794813864E+01  0.37345160898E-01 -0.26970025249E+02  0.27527532938E+02  0.47000000000E+01 0.  1.
<mgrwt>
<rscale>  2 0.55120602E+01</rscale>
<asrwt>0</asrwt>
<pdfrwt beam="1">  1       21 0.48141188E-03 0.55120602E+01</pdfrwt>
<pdfrwt beam="2">  1       21 0.46020833E-02 0.55120602E+01</pdfrwt>
<totfact> 0.90770641E+08</totfact>
</mgrwt>
</event>
<event>
 4    1  0.4043737E+006  0.6456053E+01  0.7546771E-02  0.2359595E+00
         21   -1    0    0  501  502  0.00000000000E+00  0.00000000000E+00  0.91333065933E+01  0.91333065933E+01  0.00000000000E+00 0. -1.
         21   -1    0    0  502  503 -0.00000000000E+00 -0.00000000000E+00 -0.63678772658E+01  0.63678772658E+01  0.00000000000E+00 0. -1.
          5    1    1    2  501    0 -0.42659693721E+01  0.11798858411E+01  0.55083507452E+01  0.84866102310E+01  0.47000000000E+01 0. -1.
         -5    1    1    2    0  503  0.42659693721E+01 -0.11798858411E+01 -0.27429214177E+01  0.70145736281E+01  0.47000000000E+01 0. -1.
<mgrwt>
<rscale>  2 0.64560534E+01</rscale>
<asrwt>0</asrwt>
<pdfrwt beam="1">  1       21 0.14051241E-02 0.64560534E+01</pdfrwt>
<pdfrwt beam="2">  1       21 0.97967343E-03 0.64560534E+01</pdfrwt>
<totfact> 0.21356769E+09</totfact>
</mgrwt>
</event>
<event>
 4    1  0.4043737E+006  0.6306839E+01  0.7546771E-02  0.2377121E+00
         21   -1    0    0  501  502  0.00000000000E+00  0.00000000000E+00  0.24452262386E+03  0.24452262386E+03  0.00000000000E+00 0.  1.
         21   -1    0    0  502  503 -0.00000000000E+00 -0.00000000000E+00 -0.32487572230E+00  0.32487572230E+00  0.00000000000E+00 0.  1.
          5    1    1    2  501    0 -0.35542558945E+01 -0.22479946867E+01  0.20860396519E+03  0.20869928248E+03  0.47000000000E+01 0.  1.
         -5    1    1    2    0  503  0.35542558945E+01  0.22479946867E+01  0.35593782945E+02  0.36148217099E+02  0.47000000000E+01 0.  1.
<mgrwt>
<rscale>  2 0.63068388E+01</rscale>
<asrwt>0</asrwt>
<pdfrwt beam="1">  1       21 0.37618718E-01 0.63068388E+01</pdfrwt>
<pdfrwt beam="2">  1       21 0.49981076E-04 0.63068388E+01</pdfrwt>
<totfact> 0.79558740E+08</totfact>
</mgrwt>
</event>
<event>
 4    1  0.4043737E+006  0.4828717E+01  0.7546771E-02  0.2598467E+00
         21   -1    0    0  503  502  0.00000000000E+00  0.00000000000E+00  0.93288401729E+00  0.93288401729E+00  0.00000000000E+00 0. -1.
         21   -1    0    0  501  503 -0.00000000000E+00 -0.00000000000E+00 -0.51708859107E+02  0.51708859107E+02  0.00000000000E+00 0. -1.
          5    1    1    2  501    0 -0.64537471125E+00  0.89999737208E+00 -0.44306815438E+02  0.44569164206E+02  0.47000000000E+01 0. -1.
         -5    1    1    2    0  502  0.64537471125E+00 -0.89999737208E+00 -0.64691596515E+01  0.80725789178E+01  0.47000000000E+01 0. -1.
<mgrwt>
<rscale>  2 0.48287166E+01</rscale>
<asrwt>0</asrwt>
<pdfrwt beam="1">  1       21 0.14352059E-03 0.48287166E+01</pdfrwt>
<pdfrwt beam="2">  1       21 0.79552106E-02 0.48287166E+01</pdfrwt>
<totfact> 0.18454212E+09</totfact>
</mgrwt>
</event>
<event>
 4    1  0.4043737E+006  0.8889962E+01  0.7546771E-02  0.2144275E+00
         21   -1    0    0  503  502  0.00000000000E+00  0.00000000000E+00  0.12185379440E+04  0.12185379440E+04  0.00000000000E+00 0.  1.
         21   -1    0    0  501  503 -0.00000000000E+00 -0.00000000000E+00 -0.65877385445E-01  0.65877385445E-01  0.00000000000E+00 0.  1.
          5    1    1    2  501    0 -0.29612775630E+01  0.69406239575E+01  0.68504531954E+03  0.68510300047E+03  0.47000000000E+01 0.  1.
         -5    1    1    2    0  502  0.29612775630E+01 -0.69406239575E+01  0.53342674708E+03  0.53350082093E+03  0.47000000000E+01 0.  1.
<mgrwt>
<rscale>  2 0.88899621E+01</rscale>
<asrwt>0</asrwt>
<pdfrwt beam="1">  1       21 0.18744933E+00 0.88899621E+01</pdfrwt>
<pdfrwt beam="2">  1       21 0.10135958E-04 0.88899621E+01</pdfrwt>
<totfact> 0.33365295E+08</totfact>
</mgrwt>
</event>
<event>
 4    1  0.4043737E+006  0.7038569E+01  0.7546771E-02  0.2297123E+00
         21   -1    0    0  501  502  0.00000000000E+00  0.00000000000E+00  0.21375051485E+02  0.21375051485E+02  0.00000000000E+00 0.  1.
         21   -1    0    0  502  503 -0.00000000000E+00 -0.00000000000E+00 -0.10982786201E+02  0.10982786201E+02  0.00000000000E+00 0.  1.
          5    1    1    2  501    0 -0.31065718214E+01  0.42190840646E+01  0.19566871151E+02  0.20794323876E+02  0.47000000000E+01 0.  1.
         -5    1    1    2    0  503  0.31065718214E+01 -0.42190840646E+01 -0.91746058673E+01  0.11563513810E+02  0.47000000000E+01 0.  1.
<mgrwt>
<rscale>  2 0.70385694E+01</rscale>
<asrwt>0</asrwt>
<pdfrwt beam="1">  1       21 0.32884694E-02 0.70385694E+01</pdfrwt>
<pdfrwt beam="2">  1       21 0.16896594E-02 0.70385694E+01</pdfrwt>
<totfact> 0.30407402E+08</totfact>
</mgrwt>
</event>
<event>
 4    1  0.4043737E+006  0.1443205E+02  0.7546771E-02  0.1885911E+00
         21   -1    0    0  501  502  0.00000000000E+00  0.00000000000E+00  0.13185909284E+03  0.13185909284E+03  0.00000000000E+00 0. -1.
         21   -1    0    0  502  503 -0.00000000000E+00 -0.00000000000E+00 -0.79279033506E+01  0.79279033506E+01  0.00000000000E+00 0.  1.
          5    1    1    2  501    0  0.12049942921E+02 -0.64025628961E+01  0.12450973360E+03  0.12534335921E+03  0.47000000000E+01 0. -1.
         -5    1    1    2    0  503 -0.12049942921E+02  0.64025628961E+01 -0.57854411087E+00  0.14443636984E+02  0.47000000000E+01 0.  1.
<mgrwt>
<rscale>  2 0.14432045E+02</rscale>
<asrwt>0</asrwt>
<pdfrwt beam="1">  1       21 0.20286013E-01 0.14432045E+02</pdfrwt>
<pdfrwt beam="2">  1       21 0.12196775E-02 0.14432045E+02</pdfrwt>
<totfact> 0.39126072E+07</totfact>
</mgrwt>
</event>
<event>
 4    1  0.4043737E+006  0.6302178E+01  0.7546771E-02  0.2377679E+00
         21   -1    0    0  501  502  0.00000000000E+00  0.00000000000E+00  0.19973802302E+02  0.19973802302E+02  0.00000000000E+00 0.  1.
         21   -1    0    0  502  503 -0.00000000000E+00 -0.00000000000E+00 -0.67787853396E+01  0.67787853396E+01  0.00000000000E+00 0.  1.
          5    1    1    2  501    0 -0.18635777808E+01 -0.37622495776E+01  0.17842046028E+02  0.18922369051E+02  0.47000000000E+01 0.  1.
         -5    1    1    2    0  503  0.18635777808E+01  0.37622495776E+01 -0.46470290662E+01  0.78302185903E+01  0.47000000000E+01 0.  1.
<mgrwt>
<rscale>  2 0.63021777E+01</rscale>
<asrwt>0</asrwt>
<pdfrwt beam="1">  1       21 0.30728926E-02 0.63021777E+01</pdfrwt>
<pdfrwt beam="2">  1       21 0.10428901E-02 0.63021777E+01</pdfrwt>
<totfact> 0.61935986E+08</totfact>
</mgrwt>
</event>
<event>
 4    1  0.4043737E+006  0.5332164E+01  0.7546771E-02  0.2511399E+00
         21   -1    0    0  501  502  0.00000000000E+00  0.00000000000E+00  0.36857884096E+04  0.36857884096E+04  0.00000000000E+00 0.  1.
         21   -1    0    0  502  503 -0.00000000000E+00 -0.00000000000E+00 -0.81608871276E-02  0.81608871276E-02  0.00000000000E+00 0. -1.
          5    1    1    2  501    0  0.24734362875E+01  0.47337329783E+00  0.14116111458E+04  0.14116212165E+04  0.47000000000E+01 0. -1.
         -5    1    1    2    0  503 -0.24734362875E+01 -0.47337329783E+00  0.22741691029E+04  0.22741753540E+04  0.47000000000E+01 0.  1.
<mgrwt>
<rscale>  2 0.53321637E+01</rscale>
<asrwt>0</asrwt>
<pdfrwt beam="1">  1       21 0.56571420E+00 0.53321637E+01</pdfrwt>
<pdfrwt beam="2">  1       21 0.12584732E-05 0.53321637E+01</pdfrwt>
<totfact> 0.71070560E+07</totfact>
</mgrwt>
</event>
<event>
 4    1  0.4043737E+006  0.1007551E+02  0.7546771E-02  0.2070716E+00
         21   -1    0    0  503  502  0.00000000000E+00  0.00000000000E+00  0.90079414209E+01  0.90079414209E+01  0.00000000000E+00 0.  1.
         21   -1    0    0  501  503 -0.00000000000E+00 -0.00000000000E+00 -0.16196444921E+02  0.16196444921E+02  0.00000000000E+00 0.  1.
          5    1    1    2  501    0  0.33698901616E+01  0.82504405222E+01 -0.10544824181E+02  0.14584555033E+02  0.47000000000E+01 0.  1.
         -5    1    1    2    0  502 -0.33698901616E+01 -0.82504405222E+01  0.33563206808E+01  0.10619831309E+02  0.47000000000E+01 0.  1.
<mgrwt>
<rscale>  2 0.10075511E+02</rscale>
<asrwt>0</asrwt>
<pdfrwt beam="1">  1       21 0.13858372E-02 0.10075511E+02</pdfrwt>
<pdfrwt beam="2">  1       21 0.24917607E-02 0.10075511E+02</pdfrwt>
<totfact> 0.76280945E+08</totfact>
</mgrwt>
</event>
<event>
 4    1  0.4043737E+006  0.6021389E+01  0.7546771E-02  0.2412648E+00
         21   -1    0    0  503  502  0.00000000000E+00  0.00000000000E+00  0.57057988554E+03  0.57057988554E+03  0.00000000000E+00 0. -1.
         21   -1    0    0  501  503 -0.00000000000E+00 -0.00000000000E+00 -0.29596596699E+00  0.29596596699E+00  0.00000000000E+00 0. -1.
          5    1    1    2  501    0 -0.24880792580E-01 -0.37638417857E+01  0.32195238164E+02  0.32753480494E+02  0.47000000000E+01 0. -1.
         -5    1    1    2    0  502  0.24880792580E-01  0.37638417857E+01  0.53808868141E+03  0.53812237101E+03  0.47000000000E+01 0. -1.
<mgrwt>
<rscale>  2 0.60213889E+01</rscale>
<asrwt>0</asrwt>
<pdfrwt beam="1">  1       21 0.87780641E-01 0.60213889E+01</pdfrwt>
<pdfrwt beam="2">  1       21 0.45533682E-04 0.60213889E+01</pdfrwt>
<totfact> 0.18252444E+08</totfact>
</mgrwt>
</event>
<event>
 4    1  0.4043737E+006  0.8438707E+01  0.7546771E-02  0.2176512E+00
         21   -1    0    0  503  502  0.00000000000E+00  0.00000000000E+00  0.57079203272E+02  0.57079203272E+02  0.00000000000E+00 0.  1.
         21   -1    0    0  501  503 -0.00000000000E+00 -0.00000000000E+00 -0.15031323655E+01  0.15031323655E+01  0.00000000000E+00 0.  1.
          5    1    1    2  501    0  0.69756011739E+01  0.68026854012E+00  0.15710882690E+02  0.17833777275E+02  0.47000000000E+01 0.  1.
         -5    1    1    2    0  502 -0.69756011739E+01 -0.68026854012E+00  0.39865188217E+02  0.40748558362E+02  0.47000000000E+01 0.  1.
<mgrwt>
<rscale>  2 0.84387071E+01</rscale>
<asrwt>0</asrwt>
<pdfrwt beam="1">  1       21 0.87814142E-02 0.84387071E+01</pdfrwt>
<pdfrwt beam="2">  1       21 0.23125118E-03 0.84387071E+01</pdfrwt>
<totfact> 0.12950191E+09</totfact>
</mgrwt>
</event>
<event>
 4    1  0.4043737E+006  0.9672818E+01  0.7546771E-02  0.2094101E+00
         21   -1    0    0  501  502  0.00000000000E+00  0.00000000000E+00  0.82633188932E+01  0.82633188932E+01  0.00000000000E+00 0.  1.
         21   -1    0    0  502  503 -0.00000000000E+00 -0.00000000000E+00 -0.18591864830E+02  0.18591864830E+02  0.00000000000E+00 0. -1.
          5    1    1    2  501    0 -0.34651669167E+01  0.77114220042E+01  0.32318293031E+01  0.10198437710E+02  0.47000000000E+01 0.  1.
         -5    1    1    2    0  503  0.34651669167E+01 -0.77114220042E+01 -0.13560375240E+02  0.16656746013E+02  0.47000000000E+01 0. -1.
<mgrwt>
<rscale>  2 0.96728182E+01</rscale>
<asrwt>0</asrwt>
<pdfrwt beam="1">  1       21 0.12712798E-02 0.96728182E+01</pdfrwt>
<pdfrwt beam="2">  1       21 0.28602869E-02 0.96728182E+01</pdfrwt>
<totfact> 0.68825390E+08</totfact>
</mgrwt>
</event>
<event>
 4    1  0.4043737E+006  0.5183527E+01  0.7546771E-02  0.2535591E+00
         21   -1    0    0  501  502  0.00000000000E+00  0.00000000000E+00  0.58916603478E+01  0.58916603478E+01  0.00000000000E+00 0.  1.
         21   -1    0    0  502  503 -0.00000000000E+00 -0.00000000000E+00 -0.71224880532E+01  0.71224880532E+01  0.00000000000E+00 0.  1.
          5    1    1    2  501    0  0.21096908496E+01  0.57284935909E+00  0.32872212186E+01  0.61379781043E+01  0.47000000000E+01 0.  1.
         -5    1    1    2    0  503 -0.21096908496E+01 -0.57284935909E+00 -0.45180489239E+01  0.68761702966E+01  0.47000000000E+01 0.  1.
<mgrwt>
<rscale>  2 0.51835270E+01</rscale>
<asrwt>0</asrwt>
<pdfrwt beam="1">  1       21 0.90640929E-03 0.51835270E+01</pdfrwt>
<pdfrwt beam="2">  1       21 0.10957674E-02 0.51835270E+01</pdfrwt>
<totfact> 0.27767030E+09</totfact>
</mgrwt>
</event>
<event>
 4    1  0.4043737E+006  0.4818802E+01  0.7546771E-02  0.2600338E+00
         21   -1    0    0  503  502  0.00000000000E+00  0.00000000000E+00  0.39939149836E+03  0.39939149836E+03  0.00000000000E+00 0.  1.
         21   -1    0    0  501  503 -0.00000000000E+00 -0.00000000000E+00 -0.13612620066E+00  0.13612620066E+00  0.00000000000E+00 0. -1.
          5    1    1    2  501    0  0.51744246798E+00  0.92903275311E+00  0.48427176201E+02  0.48666335833E+02  0.47000000000E+01 0. -1.
         -5    1    1    2    0  502 -0.51744246798E+00 -0.92903275311E+00  0.35082819596E+03  0.35086128873E+03  0.47000000000E+01 0.  1.
<mgrwt>
<rscale>  2 0.48188016E+01</rscale>
<asrwt>0</asrwt>
<pdfrwt beam="1">  1       21 0.61443908E-01 0.48188016E+01</pdfrwt>
<pdfrwt beam="2">  1       21 0.20942812E-04 0.48188016E+01</pdfrwt>
<totfact> 0.85747195E+08</totfact>
</mgrwt>
</event>
<event>
 4    1  0.4043737E+006  0.7079973E+01  0.7546771E-02  0.2293006E+00
         21   -1    0    0  503  502  0.00000000000E+00  0.00000000000E+00  0.34181548273E+01  0.34181548273E+01  0.00000000000E+00 0.  1.
         21   -1    0    0  501  503 -0.00000000000E+00 -0.00000000000E+00 -0.34601652433E+02  0.34601652433E+02  0.00000000000E+00 0. -1.
          5    1    1    2  501    0 -0.42336637526E+01 -0.31799552679E+01 -0.30021587949E+02  0.30845125503E+02  0.47000000000E+01 0. -1.
         -5    1    1    2    0  502  0.42336637526E+01  0.31799552679E+01 -0.11619096567E+01  0.71746817579E+01  0.47000000000E+01 0.  1.
<mgrwt>
<rscale>  2 0.70799735E+01</rscale>
<asrwt>0</asrwt>
<pdfrwt beam="1">  1       21 0.52586999E-03 0.70799735E+01</pdfrwt>
<pdfrwt beam="2">  1       21 0.53233310E-02 0.70799735E+01</pdfrwt>
<totfact> 0.78490362E+08</totfact>
</mgrwt>
</event>
<event>
 4    1  0.4043737E+006  0.5464801E+01  0.7546771E-02  0.2490763E+00
         21   -1    0    0  503  502  0.00000000000E+00  0.00000000000E+00  0.16435116260E-01  0.16435116260E-01  0.00000000000E+00 0. -1.
         21   -1    0    0  501  503 -0.00000000000E+00 -0.00000000000E+00 -0.27123722764E+04  0.27123722764E+04  0.00000000000E+00 0.  1.
          5    1    1    2  501    0 -0.14405725097E-01  0.27881602858E+01 -0.21353401105E+04  0.21353471033E+04  0.47000000000E+01 0.  1.
         -5    1    1    2    0  502  0.14405725097E-01 -0.27881602858E+01 -0.57701573081E+03  0.57704160824E+03  0.47000000000E+01 0. -1.
<mgrwt>
<rscale>  2 0.54648006E+01</rscale>
<asrwt>0</asrwt>
<pdfrwt beam="1">  1       21 0.25273677E-05 0.54648006E+01</pdfrwt>
<pdfrwt beam="2">  1       21 0.41747160E+00 0.54648006E+01</pdfrwt>
<totfact> 0.19036489E+08</totfact>
</mgrwt>
</event>
<event>
 4    1  0.4043737E+006  0.7800259E+01  0.7546771E-02  0.2227157E+00
         21   -1    0    0  501  502  0.00000000000E+00  0.00000000000E+00  0.58391890624E+01  0.58391890624E+01  0.00000000000E+00 0.  1.
         21   -1    0    0  502  503 -0.00000000000E+00 -0.00000000000E+00 -0.47601919334E+02  0.47601919334E+02  0.00000000000E+00 0. -1.
          5    1    1    2  501    0 -0.60378326838E+01  0.15161198851E+01  0.27342595754E+01  0.82656045422E+01  0.47000000000E+01 0.  1.
         -5    1    1    2    0  503  0.60378326838E+01 -0.15161198851E+01 -0.44496989847E+02  0.45175503854E+02  0.47000000000E+01 0. -1.
<mgrwt>
<rscale>  2 0.78002592E+01</rscale>
<asrwt>0</asrwt>
<pdfrwt beam="1">  1       21 0.89833677E-03 0.78002592E+01</pdfrwt>
<pdfrwt beam="2">  1       21 0.73233723E-02 0.78002592E+01</pdfrwt>
<totfact> 0.24127781E+08</totfact>
</mgrwt>
</event>
<event>
 4    1  0.4043737E+006  0.7765655E+01  0.7546771E-02  0.2230092E+00
         21   -1    0    0  501  502  0.00000000000E+00  0.00000000000E+00  0.13620828354E+04  0.13620828354E+04  0.00000000000E+00 0.  1.
         21   -1    0    0  502  503 -0.00000000000E+00 -0.00000000000E+00 -0.51100266175E-01  0.51100266175E-01  0.00000000000E+00 0.  1.
          5    1    1    2  501    0 -0.50407875041E+01 -0.35785278924E+01  0.92993433297E+03  0.92996675695E+03  0.47000000000E+01 0.  1.
         -5    1    1    2    0  503  0.50407875041E+01  0.35785278924E+01  0.43209740213E+03  0.43216717868E+03  0.47000000000E+01 0.  1.
<mgrwt>
<rscale>  2 0.77656552E+01</rscale>
<asrwt>0</asrwt>
<pdfrwt beam="1">  1       21 0.20952213E+00 0.77656552E+01</pdfrwt>
<pdfrwt beam="2">  1       21 0.78626703E-05 0.77656552E+01</pdfrwt>
<totfact> 0.34123211E+08</totfact>
</mgrwt>
</event>
<event>
 4    1  0.4043737E+006  0.6813540E+01  0.7546771E-02  0.2320212E+00
         21   -1    0    0  501  502  0.00000000000E+00  0.00000000000E+00  0.27314370201E+00  0.27314370201E+00  0.00000000000E+00 0.  1.
         21   -1    0    0  502  503 -0.00000000000E+00 -0.00000000000E+00 -0.41128042386E+03  0.41128042386E+03  0.00000000000E+00 0. -1.
          5    1    1    2  501    0 -0.44072429155E+01 -0.22159726179E+01 -0.47879877435E+02  0.48362247548E+02  0.47000000000E+01 0.  1.
         -5    1    1    2    0  503  0.44072429155E+01  0.22159726179E+01 -0.36312740272E+03  0.36319132001E+03  0.47000000000E+01 0. -1.
<mgrwt>
<rscale>  2 0.68135398E+01</rscale>
<asrwt>0</asrwt>
<pdfrwt beam="1">  1       21 0.42022351E-04 0.68135398E+01</pdfrwt>
<pdfrwt beam="2">  1       21 0.63273546E-01 0.68135398E+01</pdfrwt>
<totfact> 0.41281781E+08</totfact>
</mgrwt>
</event>
<event>
 4    1  0.4043737E+006  0.5270157E+01  0.7546771E-02  0.2521350E+00
         21   -1    0    0  501  502  0.00000000000E+00  0.00000000000E+00  0.13504726873E+01  0.13504726873E+01  0.00000000000E+00 0.  1.
         21   -1    0    0  502  503 -0.00000000000E+00 -0.00000000000E+00 -0.93578032789E+02  0.93578032789E+02  0.00000000000E+00 0.  1.
          5    1    1    2  501    0 -0.36930597540E+00 -0.23554558464E+01 -0.41885661160E+01  0.67319124516E+01  0.47000000000E+01 0.  1.
         -5    1    1    2    0  503  0.36930597540E+00  0.23554558464E+01 -0.88038993986E+02  0.88196593025E+02  0.47000000000E+01 0.  1.
<mgrwt>
<rscale>  2 0.52701574E+01</rscale>
<asrwt>0</asrwt>
<pdfrwt beam="1">  1       21 0.20776505E-03 0.52701574E+01</pdfrwt>
<pdfrwt beam="2">  1       21 0.14396619E-01 0.52701574E+01</pdfrwt>
<totfact> 0.49362704E+08</totfact>
</mgrwt>
</event>
<event>
 4    1  0.4043737E+006  0.4999039E+01  0.7546771E-02  0.2567324E+00
         21   -1    0    0  501  502  0.00000000000E+00  0.00000000000E+00  0.37728782876E+03  0.37728782876E+03  0.00000000000E+00 0.  1.
         21   -1    0    0  502  503 -0.00000000000E+00 -0.00000000000E+00 -0.18169388553E+00  0.18169388553E+00  0.00000000000E+00 0.  1.
          5    1    1    2  501    0 -0.12291149598E+01  0.11788417102E+01  0.33900292175E+03  0.33903977842E+03  0.47000000000E+01 0.  1.
         -5    1    1    2    0  503  0.12291149598E+01 -0.11788417102E+01  0.38103213124E+02  0.38429744232E+02  0.47000000000E+01 0.  1.
<mgrwt>
<rscale>  2 0.49990390E+01</rscale>
<asrwt>0</asrwt>
<pdfrwt beam="1">  1       21 0.58043654E-01 0.49990390E+01</pdfrwt>
<pdfrwt beam="2">  1       21 0.27953207E-04 0.49990390E+01</pdfrwt>
<totfact> 0.66941441E+08</totfact>
</mgrwt>
</event>
<event>
 4    1  0.4043737E+006  0.4837718E+01  0.7546771E-02  0.2596773E+00
         21   -1    0    0  501  502  0.00000000000E+00  0.00000000000E+00  0.40670067244E+01  0.40670067244E+01  0.00000000000E+00 0.  1.
         21   -1    0    0  502  503 -0.00000000000E+00 -0.00000000000E+00 -0.30987377497E+02  0.30987377497E+02  0.00000000000E+00 0.  1.
          5    1    1    2  501    0  0.11188256982E+01  0.24848589269E+00  0.23560631796E+01  0.53809432155E+01  0.47000000000E+01 0.  1.
         -5    1    1    2    0  503 -0.11188256982E+01 -0.24848589269E+00 -0.29276433952E+02  0.29673441006E+02  0.47000000000E+01 0.  1.
<mgrwt>
<rscale>  2 0.48377181E+01</rscale>
<asrwt>0</asrwt>
<pdfrwt beam="1">  1       21 0.62569335E-03 0.48377181E+01</pdfrwt>
<pdfrwt beam="2">  1       21 0.47672888E-02 0.48377181E+01</pdfrwt>
<totfact> 0.53427000E+08</totfact>
</mgrwt>
</event>
<event>
 4    1  0.4043737E+006  0.5049196E+01  0.7546771E-02  0.2558500E+00
         21   -1    0    0  501  502  0.00000000000E+00  0.00000000000E+00  0.46837850514E+00  0.46837850514E+00  0.00000000000E+00 0. -1.
         21   -1    0    0  502  503 -0.00000000000E+00 -0.00000000000E+00 -0.11760030895E+03  0.11760030895E+03  0.00000000000E+00 0. -1.
          5    1    1    2  501    0  0.51240147714E+00  0.17725192411E+01 -0.15299335941E+02  0.16110991899E+02  0.47000000000E+01 0. -1.
         -5    1    1    2    0  503 -0.51240147714E+00 -0.17725192411E+01 -0.10183259451E+03  0.10195769556E+03  0.47000000000E+01 0. -1.
<mgrwt>
<rscale>  2 0.50491959E+01</rscale>
<asrwt>0</asrwt>
<pdfrwt beam="1">  1       21 0.72058177E-04 0.50491959E+01</pdfrwt>
<pdfrwt beam="2">  1       21 0.18092369E-01 0.50491959E+01</pdfrwt>
<totfact> 0.13683657E+09</totfact>
</mgrwt>
</event>
<event>
 4    1  0.4043737E+006  0.4733574E+01  0.7546771E-02  0.2616705E+00
         21   -1    0    0  503  502  0.00000000000E+00  0.00000000000E+00  0.23410686876E+03  0.23410686876E+03  0.00000000000E+00 0. -1.
         21   -1    0    0  501  503 -0.00000000000E+00 -0.00000000000E+00 -0.95723976976E-01  0.95723976976E-01  0.00000000000E+00 0. -1.
          5    1    1    2  501    0 -0.22573320154E+00  0.51553033688E+00  0.11834079117E+03  0.11843542368E+03  0.47000000000E+01 0. -1.
         -5    1    1    2    0  502  0.22573320154E+00 -0.51553033688E+00  0.11567035361E+03  0.11576716906E+03  0.47000000000E+01 0. -1.
<mgrwt>
<rscale>  2 0.47335744E+01</rscale>
<asrwt>0</asrwt>
<pdfrwt beam="1">  1       21 0.36015983E-01 0.47335744E+01</pdfrwt>
<pdfrwt beam="2">  1       21 0.14726953E-04 0.47335744E+01</pdfrwt>
<totfact> 0.34292995E+09</totfact>
</mgrwt>
</event>
<event>
 4    1  0.4043737E+006  0.6677065E+01  0.7546771E-02  0.2334836E+00
         21   -1    0    0  503  502  0.00000000000E+00  0.00000000000E+00  0.51178369909E+01  0.51178369909E+01  0.00000000000E+00 0. -1.
         21   -1    0    0  501  503 -0.00000000000E+00 -0.00000000000E+00 -0.40723930406E+02  0.40723930406E+02  0.00000000000E+00 0.  1.
          5    1    1    2  501    0 -0.36226476757E+01  0.30609834255E+01 -0.38125070378E+02  0.38705350883E+02  0.47000000000E+01 0.  1.
         -5    1    1    2    0  502  0.36226476757E+01 -0.30609834255E+01  0.25189769626E+01  0.71364165133E+01  0.47000000000E+01 0. -1.
<mgrwt>
<rscale>  2 0.66770649E+01</rscale>
<asrwt>0</asrwt>
<pdfrwt beam="1">  1       21 0.78735955E-03 0.66770649E+01</pdfrwt>
<pdfrwt beam="2">  1       21 0.62652199E-02 0.66770649E+01</pdfrwt>
<totfact> 0.33416437E+08</totfact>
</mgrwt>
</event>
<event>
 4    1  0.4043737E+006  0.4747043E+01  0.7546771E-02  0.2614084E+00
         21   -1    0    0  503  502  0.00000000000E+00  0.00000000000E+00  0.32468799662E+02  0.32468799662E+02  0.00000000000E+00 0.  1.
         21   -1    0    0  501  503 -0.00000000000E+00 -0.00000000000E+00 -0.13693300725E+02  0.13693300725E+02  0.00000000000E+00 0.  1.
          5    1    1    2  501    0 -0.47339861061E+00 -0.46936882112E+00 -0.13100773864E+02  0.13934299019E+02  0.47000000000E+01 0.  1.
         -5    1    1    2    0  502  0.47339861061E+00  0.46936882112E+00  0.31876272800E+02  0.32227801368E+02  0.47000000000E+01 0.  1.
<mgrwt>
<rscale>  2 0.47470426E+01</rscale>
<asrwt>0</asrwt>
<pdfrwt beam="1">  1       21 0.49951999E-02 0.47470426E+01</pdfrwt>
<pdfrwt beam="2">  1       21 0.21066617E-02 0.47470426E+01</pdfrwt>
<totfact> 0.90293004E+07</totfact>
</mgrwt>
</event>
<event>
 4    1  0.4043737E+006  0.4890649E+01  0.7546771E-02  0.2586926E+00
         21   -1    0    0  501  502  0.00000000000E+00  0.00000000000E+00  0.16145882649E+00  0.16145882649E+00  0.00000000000E+00 0.  1.
         21   -1    0    0  502  503 -0.00000000000E+00 -0.00000000000E+00 -0.18386915982E+03  0.18386915982E+03  0.00000000000E+00 0.  1.
          5    1    1    2  501    0  0.12602378517E+01 -0.49014964751E+00 -0.51291840105E+02  0.51524472899E+02  0.47000000000E+01 0.  1.
         -5    1    1    2    0  503 -0.12602378517E+01  0.49014964751E+00 -0.13241586089E+03  0.13250614575E+03  0.47000000000E+01 0.  1.
<mgrwt>
<rscale>  2 0.48906488E+01</rscale>
<asrwt>0</asrwt>
<pdfrwt beam="1">  1       21 0.24839786E-04 0.48906488E+01</pdfrwt>
<pdfrwt beam="2">  1       21 0.28287601E-01 0.48906488E+01</pdfrwt>
<totfact> 0.26509026E+09</totfact>
</mgrwt>
</event>
<event>
 4    1  0.4043737E+006  0.4709906E+01  0.7546771E-02  0.2621341E+00
         21   -1    0    0  501  502  0.00000000000E+00  0.00000000000E+00  0.38739725676E+02  0.38739725676E+02  0.00000000000E+00 0. -1.
         21   -1    0    0  502  503 -0.00000000000E+00 -0.00000000000E+00 -0.98231951091E+00  0.98231951091E+00  0.00000000000E+00 0. -1.
          5    1    1    2  501    0  0.74944447046E-01  0.29597621618E+00  0.31705165453E+02  0.32053092440E+02  0.47000000000E+01 0. -1.
         -5    1    1    2    0  503 -0.74944447046E-01 -0.29597621618E+00  0.60522407119E+01  0.76689527464E+01  0.47000000000E+01 0. -1.
<mgrwt>
<rscale>  2 0.47099064E+01</rscale>
<asrwt>0</asrwt>
<pdfrwt beam="1">  1       21 0.59599566E-02 0.47099064E+01</pdfrwt>
<pdfrwt beam="2">  1       21 0.15112611E-03 0.47099064E+01</pdfrwt>
<totfact> 0.25732486E+09</totfact>
</mgrwt>
</event>
<event>
 4    1  0.4043737E+006  0.5786129E+01  0.7546771E-02  0.2444119E+00
         21   -1    0    0  501  502  0.00000000000E+00  0.00000000000E+00  0.66112972382E+01  0.66112972382E+01  0.00000000000E+00 0. -1.
         21   -1    0    0  502  503 -0.00000000000E+00 -0.00000000000E+00 -0.12743335123E+02  0.12743335123E+02  0.00000000000E+00 0. -1.
          5    1    1    2  501    0 -0.10034435053E+01 -0.32221707840E+01  0.44463443541E+01  0.72972091613E+01  0.47000000000E+01 0. -1.
         -5    1    1    2    0  503  0.10034435053E+01  0.32221707840E+01 -0.10578382239E+02  0.12057423200E+02  0.47000000000E+01 0. -1.
<mgrwt>
<rscale>  2 0.57861285E+01</rscale>
<asrwt>0</asrwt>
<pdfrwt beam="1">  1       21 0.10171227E-02 0.57861285E+01</pdfrwt>
<pdfrwt beam="2">  1       21 0.19605131E-02 0.57861285E+01</pdfrwt>
<totfact> 0.11469598E+09</totfact>
</mgrwt>
</event>
<event>
 4    1  0.4043737E+006  0.6206993E+01  0.7546771E-02  0.2389237E+00
         21   -1    0    0  501  502  0.00000000000E+00  0.00000000000E+00  0.13710840156E+01  0.13710840156E+01  0.00000000000E+00 0.  1.
         21   -1    0    0  502  503 -0.00000000000E+00 -0.00000000000E+00 -0.41666181960E+02  0.41666181960E+02  0.00000000000E+00 0.  1.
          5    1    1    2  501    0 -0.31912287991E+01  0.25005645408E+01 -0.78686401028E+01  0.10022088671E+02  0.47000000000E+01 0.  1.
         -5    1    1    2    0  503  0.31912287991E+01 -0.25005645408E+01 -0.32426457842E+02  0.33015177304E+02  0.47000000000E+01 0.  1.
<mgrwt>
<rscale>  2 0.62069932E+01</rscale>
<asrwt>0</asrwt>
<pdfrwt beam="1">  1       21 0.21093602E-03 0.62069932E+01</pdfrwt>
<pdfrwt beam="2">  1       21 0.64101814E-02 0.62069932E+01</pdfrwt>
<totfact> 0.19024657E+09</totfact>
</mgrwt>
</event>
<event>
 4    1  0.4043737E+006  0.8104037E+01  0.7546771E-02  0.2202260E+00
         21   -1    0    0  501  502  0.00000000000E+00  0.00000000000E+00  0.18081006695E+00  0.18081006695E+00  0.00000000000E+00 0. -1.
         21   -1    0    0  502  503 -0.00000000000E+00 -0.00000000000E+00 -0.54379067757E+03  0.54379067757E+03  0.00000000000E+00 0.  1.
          5    1    1    2  501    0 -0.64184371689E+01  0.15456625408E+01 -0.11507808750E+03  0.11536308608E+03  0.47000000000E+01 0. -1.
         -5    1    1    2    0  503  0.64184371689E+01 -0.15456625408E+01 -0.42853178000E+03  0.42860840155E+03  0.47000000000E+01 0.  1.
<mgrwt>
<rscale>  2 0.81040365E+01</rscale>
<asrwt>0</asrwt>
<pdfrwt beam="1">  1       21 0.27816778E-04 0.81040365E+01</pdfrwt>
<pdfrwt beam="2">  1       21 0.83660571E-01 0.81040365E+01</pdfrwt>
<totfact> 0.46274294E+08</totfact>
</mgrwt>
</event>
<event>
 4    1  0.4043737E+006  0.5103341E+01  0.7546771E-02  0.2549141E+00
         21   -1    0    0  501  502  0.00000000000E+00  0.00000000000E+00  0.19517419179E+00  0.19517419179E+00  0.00000000000E+00 0. -1.
         21   -1    0    0  502  503 -0.00000000000E+00 -0.00000000000E+00 -0.37211411300E+03  0.37211411300E+03  0.00000000000E+00 0. -1.
          5    1    1    2  501    0  0.19806341169E+01 -0.17658343826E+00 -0.36872998941E+02  0.37224483128E+02  0.47000000000E+01 0. -1.
         -5    1    1    2    0  503 -0.19806341169E+01  0.17658343826E+00 -0.33504593987E+03  0.33508480407E+03  0.47000000000E+01 0. -1.
<mgrwt>
<rscale>  2 0.51033414E+01</rscale>
<asrwt>0</asrwt>
<pdfrwt beam="1">  1       21 0.30026783E-04 0.51033414E+01</pdfrwt>
<pdfrwt beam="2">  1       21 0.57248355E-01 0.51033414E+01</pdfrwt>
<totfact> 0.63486000E+08</totfact>
</mgrwt>
</event>
<event>
 4    1  0.4043737E+006  0.4835133E+01  0.7546771E-02  0.2597259E+00
         21   -1    0    0  501  502  0.00000000000E+00  0.00000000000E+00  0.19402725626E-01  0.19402725626E-01  0.00000000000E+00 0.  1.
         21   -1    0    0  502  503 -0.00000000000E+00 -0.00000000000E+00 -0.12541562242E+04  0.12541562242E+04  0.00000000000E+00 0.  1.
          5    1    1    2  501    0  0.20190975719E+00 -0.11170242283E+01 -0.50280443318E+03  0.50282768076E+03  0.47000000000E+01 0.  1.
         -5    1    1    2    0  503 -0.20190975719E+00  0.11170242283E+01 -0.75133238827E+03  0.75134794614E+03  0.47000000000E+01 0.  1.
<mgrwt>
<rscale>  2 0.48351330E+01</rscale>
<asrwt>0</asrwt>
<pdfrwt beam="1">  1       21 0.29856799E-05 0.48351330E+01</pdfrwt>
<pdfrwt beam="2">  1       21 0.19290542E+00 0.48351330E+01</pdfrwt>
<totfact> 0.11715650E+09</totfact>
</mgrwt>
</event>
<event>
 4    1  0.4043737E+006  0.7712498E+01  0.7546771E-02  0.2234643E+00
         21   -1    0    0  503  502  0.00000000000E+00  0.00000000000E+00  0.14947999895E+01  0.14947999895E+01  0.00000000000E+00 0.  1.
         21   -1    0    0  501  503 -0.00000000000E+00 -0.00000000000E+00 -0.70339898219E+02  0.70339898219E+02  0.00000000000E+00 0. -1.
          5    1    1    2  501    0 -0.60801886164E+01  0.65110251310E+00 -0.58091920238E+02  0.58601653774E+02  0.47000000000E+01 0. -1.
         -5    1    1    2    0  502  0.60801886164E+01 -0.65110251310E+00 -0.10753177992E+02  0.13233044435E+02  0.47000000000E+01 0.  1.
<mgrwt>
<rscale>  2 0.77124982E+01</rscale>
<asrwt>0</asrwt>
<pdfrwt beam="1">  1       21 0.22996924E-03 0.77124982E+01</pdfrwt>
<pdfrwt beam="2">  1       21 0.10821522E-01 0.77124982E+01</pdfrwt>
<totfact> 0.88768411E+08</totfact>
</mgrwt>
</event>
<event>
 4    1  0.4043737E+006  0.5437874E+01  0.7546771E-02  0.2494883E+00
         21   -1    0    0  503  502  0.00000000000E+00  0.00000000000E+00  0.72301640018E+02  0.72301640018E+02  0.00000000000E+00 0. -1.
         21   -1    0    0  501  503 -0.00000000000E+00 -0.00000000000E+00 -0.82638861371E+00  0.82638861371E+00  0.00000000000E+00 0.  1.
          5    1    1    2  501    0  0.84433942284E+00 -0.26014553627E+01  0.97516862084E+01  0.11165386826E+02  0.47000000000E+01 0.  1.
         -5    1    1    2    0  502 -0.84433942284E+00  0.26014553627E+01  0.61723565196E+02  0.61962641806E+02  0.47000000000E+01 0. -1.
<mgrwt>
<rscale>  2 0.54378745E+01</rscale>
<asrwt>0</asrwt>
<pdfrwt beam="1">  1       21 0.11123324E-01 0.54378745E+01</pdfrwt>
<pdfrwt beam="2">  1       21 0.12713677E-03 0.54378745E+01</pdfrwt>
<totfact> 0.14628159E+09</totfact>
</mgrwt>
</event>
<event>
 4    1  0.4043737E+006  0.6227063E+01  0.7546771E-02  0.2386776E+00
         21   -1    0    0  501  502  0.00000000000E+00  0.00000000000E+00  0.32994048352E+01  0.32994048352E+01  0.00000000000E+00 0. -1.
         21   -1    0    0  502  503 -0.00000000000E+00 -0.00000000000E+00 -0.13016766266E+02  0.13016766266E+02  0.00000000000E+00 0.  1.
          5    1    1    2  501    0 -0.39236545665E+01  0.11363286934E+01 -0.23162259673E+01  0.66438852179E+01  0.47000000000E+01 0. -1.
         -5    1    1    2    0  503  0.39236545665E+01 -0.11363286934E+01 -0.74011354631E+01  0.96722858828E+01  0.47000000000E+01 0. -1.
<mgrwt>
<rscale>  2 0.62270626E+01</rscale>
<asrwt>0</asrwt>
<pdfrwt beam="1">  1       21 0.50760075E-03 0.62270626E+01</pdfrwt>
<pdfrwt beam="2">  1       21 0.20025794E-02 0.62270626E+01</pdfrwt>
<totfact> 0.31366245E+09</totfact>
</mgrwt>
</event>
<event>
 4    1  0.4043737E+006  0.5161107E+01  0.7546771E-02  0.2539343E+00
         21   -1    0    0  503  502  0.00000000000E+00  0.00000000000E+00  0.58062446579E+02  0.58062446579E+02  0.00000000000E+00 0.  1.
         21   -1    0    0  501  503 -0.00000000000E+00 -0.00000000000E+00 -0.66486964042E+00  0.66486964042E+00  0.00000000000E+00 0.  1.
          5    1    1    2  501    0  0.15685946953E+01 -0.14444860942E+01  0.12349999374E+02  0.13385048148E+02  0.47000000000E+01 0.  1.
         -5    1    1    2    0  502 -0.15685946953E+01  0.14444860942E+01  0.45047577565E+02  0.45342268071E+02  0.47000000000E+01 0.  1.
<mgrwt>
<rscale>  2 0.51611074E+01</rscale>
<asrwt>0</asrwt>
<pdfrwt beam="1">  1       21 0.89326801E-02 0.51611074E+01</pdfrwt>
<pdfrwt beam="2">  1       21 0.10228768E-03 0.51611074E+01</pdfrwt>
<totfact> 0.26005264E+09</totfact>
</mgrwt>
</event>
<event>
 4    1  0.4043737E+006  0.5670588E+01  0.7546771E-02  0.2460376E+00
         21   -1    0    0  501  502  0.00000000000E+00  0.00000000000E+00  0.25678646244E+01  0.25678646244E+01  0.00000000000E+00 0. -1.
         21   -1    0    0  502  503 -0.00000000000E+00 -0.00000000000E+00 -0.16806260346E+02  0.16806260346E+02  0.00000000000E+00 0.  1.
          5    1    1    2  501    0 -0.29753277005E+01 -0.11013610759E+01 -0.22284048876E+01  0.60927300521E+01  0.47000000000E+01 0. -1.
         -5    1    1    2    0  503  0.29753277005E+01  0.11013610759E+01 -0.12009990834E+02  0.13281394919E+02  0.47000000000E+01 0.  1.
<mgrwt>
<rscale>  2 0.56705883E+01</rscale>
<asrwt>0</asrwt>
<pdfrwt beam="1">  1       21 0.39505611E-03 0.56705883E+01</pdfrwt>
<pdfrwt beam="2">  1       21 0.25855784E-02 0.56705883E+01</pdfrwt>
<totfact> 0.28261640E+09</totfact>
</mgrwt>
</event>
<event>
 4    1  0.4043737E+006  0.5863559E+01  0.7546771E-02  0.2433527E+00
         21   -1    0    0  503  502  0.00000000000E+00  0.00000000000E+00  0.33527957772E+00  0.33527957772E+00  0.00000000000E+00 0.  1.
         21   -1    0    0  501  503 -0.00000000000E+00 -0.00000000000E+00 -0.11517657144E+03  0.11517657144E+03  0.00000000000E+00 0.  1.
          5    1    1    2  501    0  0.34430900027E+01 -0.66064964867E+00 -0.76547297192E+02  0.76771544429E+02  0.47000000000E+01 0.  1.
         -5    1    1    2    0  502 -0.34430900027E+01  0.66064964867E+00 -0.38293994671E+02  0.38740306588E+02  0.47000000000E+01 0.  1.
<mgrwt>
<rscale>  2 0.58635592E+01</rscale>
<asrwt>0</asrwt>
<pdfrwt beam="1">  1       21 0.51581537E-04 0.58635592E+01</pdfrwt>
<pdfrwt beam="2">  1       21 0.17719451E-01 0.58635592E+01</pdfrwt>
<totfact> 0.25162977E+09</totfact>
</mgrwt>
</event>
<event>
 4    1  0.4043737E+006  0.5089448E+01  0.7546771E-02  0.2551526E+00
         21   -1    0    0  501  502  0.00000000000E+00  0.00000000000E+00  0.42190906118E+00  0.42190906118E+00  0.00000000000E+00 0. -1.
         21   -1    0    0  502  503 -0.00000000000E+00 -0.00000000000E+00 -0.61393965031E+02  0.61393965031E+02  0.00000000000E+00 0. -1.
          5    1    1    2  501    0  0.30091414590E+00 -0.19292309684E+01 -0.30569449652E+02  0.30990219965E+02  0.47000000000E+01 0. -1.
         -5    1    1    2    0  503 -0.30091414590E+00  0.19292309684E+01 -0.30402606318E+02  0.30825654128E+02  0.47000000000E+01 0. -1.
<mgrwt>
<rscale>  2 0.50894480E+01</rscale>
<asrwt>0</asrwt>
<pdfrwt beam="1">  1       21 0.64909145E-04 0.50894480E+01</pdfrwt>
<pdfrwt beam="2">  1       21 0.94452168E-02 0.50894480E+01</pdfrwt>
<totfact> 0.43147974E+09</totfact>
</mgrwt>
</event>
<event>
 4    1  0.4043737E+006  0.5674463E+01  0.7546771E-02  0.2459822E+00
         21   -1    0    0  501  502  0.00000000000E+00  0.00000000000E+00  0.32778676067E+03  0.32778676067E+03  0.00000000000E+00 0.  1.
         21   -1    0    0  502  503 -0.00000000000E+00 -0.00000000000E+00 -0.11646201584E+00  0.11646201584E+00  0.00000000000E+00 0.  1.
          5    1    1    2  501    0 -0.23890062720E+01  0.20981382864E+01  0.22869904486E+03  0.22876943121E+03  0.47000000000E+01 0.  1.
         -5    1    1    2    0  503  0.23890062720E+01 -0.20981382864E+01  0.98971253795E+02  0.99133791479E+02  0.47000000000E+01 0.  1.
<mgrwt>
<rscale>  2 0.56744634E+01</rscale>
<asrwt>0</asrwt>
<pdfrwt beam="1">  1       21 0.50427994E-01 0.56744634E+01</pdfrwt>
<pdfrwt beam="2">  1       21 0.17917496E-04 0.56744634E+01</pdfrwt>
<totfact> 0.17237026E+09</totfact>
</mgrwt>
</event>
<event>
 4    1  0.4043737E+006  0.5202185E+01  0.7546771E-02  0.2532489E+00
         21   -1    0    0  501  502  0.00000000000E+00  0.00000000000E+00  0.18240347900E+00  0.18240347900E+00  0.00000000000E+00 0.  1.
         21   -1    0    0  502  503 -0.00000000000E+00 -0.00000000000E+00 -0.56861298611E+03  0.56861298611E+03  0.00000000000E+00 0.  1.
          5    1    1    2  501    0 -0.17570108983E+01  0.13731881649E+01 -0.39720699839E+02  0.40059914238E+02  0.47000000000E+01 0.  1.
         -5    1    1    2    0  503  0.17570108983E+01 -0.13731881649E+01 -0.52870988279E+03  0.52873547535E+03  0.47000000000E+01 0.  1.
<mgrwt>
<rscale>  2 0.52021854E+01</rscale>
<asrwt>0</asrwt>
<pdfrwt beam="1">  1       21 0.28061982E-04 0.52021854E+01</pdfrwt>
<pdfrwt beam="2">  1       21 0.87479207E-01 0.52021854E+01</pdfrwt>
<totfact> 0.31715326E+08</totfact>
</mgrwt>
</event>
<event>
 4    1  0.4043737E+006  0.4977863E+01  0.7546771E-02  0.2571096E+00
         21   -1    0    0  501  502  0.00000000000E+00  0.00000000000E+00  0.22491444997E+00  0.22491444997E+00  0.00000000000E+00 0.  1.
         21   -1    0    0  502  503 -0.00000000000E+00 -0.00000000000E+00 -0.41373385567E+03  0.41373385567E+03  0.00000000000E+00 0.  1.
          5    1    1    2  501    0  0.11871874218E+01 -0.11312430552E+01 -0.29461858566E+02  0.29879428291E+02  0.47000000000E+01 0.  1.
         -5    1    1    2    0  503 -0.11871874218E+01  0.11312430552E+01 -0.38404708266E+03  0.38407934183E+03  0.47000000000E+01 0.  1.
<mgrwt>
<rscale>  2 0.49778635E+01</rscale>
<asrwt>0</asrwt>
<pdfrwt beam="1">  1       21 0.34602481E-04 0.49778635E+01</pdfrwt>
<pdfrwt beam="2">  1       21 0.63650888E-01 0.49778635E+01</pdfrwt>
<totfact> 0.42476424E+08</totfact>
</mgrwt>
</event>
<event>
 4    1  0.4043737E+006  0.4878169E+01  0.7546771E-02  0.2589231E+00
         21   -1    0    0  503  502  0.00000000000E+00  0.00000000000E+00  0.10738961307E+03  0.10738961307E+03  0.00000000000E+00 0. -1.
         21   -1    0    0  501  503 -0.00000000000E+00 -0.00000000000E+00 -0.72820683250E+00  0.72820683250E+00  0.00000000000E+00 0. -1.
          5    1    1    2  501    0  0.11934674312E+01 -0.53119161645E+00  0.82407837134E+01  0.95763795483E+01  0.47000000000E+01 0. -1.
         -5    1    1    2    0  502 -0.11934674312E+01  0.53119161645E+00  0.98420622525E+02  0.98541440355E+02  0.47000000000E+01 0. -1.
<mgrwt>
<rscale>  2 0.48781686E+01</rscale>
<asrwt>0</asrwt>
<pdfrwt beam="1">  1       21 0.16521466E-01 0.48781686E+01</pdfrwt>
<pdfrwt beam="2">  1       21 0.11203191E-03 0.48781686E+01</pdfrwt>
<totfact> 0.85130512E+08</totfact>
</mgrwt>
</event>
<event>
 4    1  0.4043737E+006  0.5037997E+01  0.7546771E-02  0.2560457E+00
         21   -1    0    0  503  502  0.00000000000E+00  0.00000000000E+00  0.81184257039E+02  0.81184257039E+02  0.00000000000E+00 0.  1.
         21   -1    0    0  501  503 -0.00000000000E+00 -0.00000000000E+00 -0.33249431919E+00  0.33249431919E+00  0.00000000000E+00 0. -1.
          5    1    1    2  501    0 -0.78780049474E+00  0.16342549066E+01  0.30465959196E+02  0.30879703504E+02  0.47000000000E+01 0. -1.
         -5    1    1    2    0  502  0.78780049474E+00 -0.16342549066E+01  0.50385803524E+02  0.50637047855E+02  0.47000000000E+01 0.  1.
<mgrwt>
<rscale>  2 0.50379975E+01</rscale>
<asrwt>0</asrwt>
<pdfrwt beam="1">  1       21 0.12489870E-01 0.50379975E+01</pdfrwt>
<pdfrwt beam="2">  1       21 0.51153037E-04 0.50379975E+01</pdfrwt>
<totfact> 0.38279111E+09</totfact>
</mgrwt>
</event>
<event>
 4    1  0.4043737E+006  0.8274151E+01  0.7546771E-02  0.2188963E+00
         21   -1    0    0  501  502  0.00000000000E+00  0.00000000000E+00  0.77661847579E+01  0.77661847579E+01  0.00000000000E+00 0.  1.
         21   -1    0    0  502  503 -0.00000000000E+00 -0.00000000000E+00 -0.51851361675E+02  0.51851361675E+02  0.00000000000E+00 0.  1.
          5    1    1    2  501    0 -0.57232464281E+01  0.36899893568E+01  0.51143039067E+01  0.97271617433E+01  0.47000000000E+01 0.  1.
         -5    1    1    2    0  503  0.57232464281E+01 -0.36899893568E+01 -0.49199480824E+02  0.49890384690E+02  0.47000000000E+01 0.  1.
<mgrwt>
<rscale>  2 0.82741508E+01</rscale>
<asrwt>0</asrwt>
<pdfrwt beam="1">  1       21 0.11947977E-02 0.82741508E+01</pdfrwt>
<pdfrwt beam="2">  1       21 0.79771324E-02 0.82741508E+01</pdfrwt>
<totfact> 0.14513073E+08</totfact>
</mgrwt>
</event>
<event>
 4    1  0.4043737E+006  0.7464918E+01  0.7546771E-02  0.2256528E+00
         21   -1    0    0  503  502  0.00000000000E+00  0.00000000000E+00  0.34709148242E+03  0.34709148242E+03  0.00000000000E+00 0.  1.
         21   -1    0    0  501  503 -0.00000000000E+00 -0.00000000000E+00 -0.37327796978E+00  0.37327796978E+00  0.00000000000E+00 0.  1.
          5    1    1    2  501    0 -0.54614057925E+01 -0.19514228866E+01  0.42206033968E+02  0.42861104837E+02  0.47000000000E+01 0.  1.
         -5    1    1    2    0  502  0.54614057925E+01  0.19514228866E+01  0.30451217048E+03  0.30460365555E+03  0.47000000000E+01 0.  1.
<mgrwt>
<rscale>  2 0.74649183E+01</rscale>
<asrwt>0</asrwt>
<pdfrwt beam="1">  1       21 0.53398432E-01 0.74649183E+01</pdfrwt>
<pdfrwt beam="2">  1       21 0.57427658E-04 0.74649183E+01</pdfrwt>
<totfact> 0.39298058E+08</totfact>
</mgrwt>
</event>
<event>
 4    1  0.4043737E+006  0.6539910E+01  0.7546771E-02  0.2350038E+00
         21   -1    0    0  501  502  0.00000000000E+00  0.00000000000E+00  0.31526388700E+02  0.31526388700E+02  0.00000000000E+00 0. -1.
         21   -1    0    0  502  503 -0.00000000000E+00 -0.00000000000E+00 -0.28162940592E+01  0.28162940592E+01  0.00000000000E+00 0.  1.
          5    1    1    2  501    0 -0.40309473300E+01  0.21052058502E+01  0.26717025816E+02  0.27505815686E+02  0.47000000000E+01 0. -1.
         -5    1    1    2    0  503  0.40309473300E+01 -0.21052058502E+01  0.19930688247E+01  0.68368670741E+01  0.47000000000E+01 0.  1.
<mgrwt>
<rscale>  2 0.65399104E+01</rscale>
<asrwt>0</asrwt>
<pdfrwt beam="1">  1       21 0.48502134E-02 0.65399104E+01</pdfrwt>
<pdfrwt beam="2">  1       21 0.43327603E-03 0.65399104E+01</pdfrwt>
<totfact> 0.11163348E+09</totfact>
</mgrwt>
</event>
<event>
 4    1  0.4043737E+006  0.5442174E+01  0.7546771E-02  0.2494223E+00
         21   -1    0    0  503  502  0.00000000000E+00  0.00000000000E+00  0.12002687659E+02  0.12002687659E+02  0.00000000000E+00 0. -1.
         21   -1    0    0  501  503 -0.00000000000E+00 -0.00000000000E+00 -0.24748259404E+01  0.24748259404E+01  0.00000000000E+00 0. -1.
          5    1    1    2  501    0  0.12849203597E+01 -0.24240960350E+01  0.43715013505E+01  0.69804932473E+01  0.47000000000E+01 0. -1.
         -5    1    1    2    0  502 -0.12849203597E+01  0.24240960350E+01  0.51563603685E+01  0.74970203527E+01  0.47000000000E+01 0. -1.
<mgrwt>
<rscale>  2 0.54421744E+01</rscale>
<asrwt>0</asrwt>
<pdfrwt beam="1">  1       21 0.18465673E-02 0.54421744E+01</pdfrwt>
<pdfrwt beam="2">  1       21 0.38074246E-03 0.54421744E+01</pdfrwt>
<totfact> 0.46338532E+09</totfact>
</mgrwt>
</event>
<event>
 4    1  0.4043737E+006  0.4702804E+01  0.7546771E-02  0.2622740E+00
         21   -1    0    0  503  502  0.00000000000E+00  0.00000000000E+00  0.44227824659E+03  0.44227824659E+03  0.00000000000E+00 0.  1.
         21   -1    0    0  501  503 -0.00000000000E+00 -0.00000000000E+00 -0.53861343124E-01  0.53861343124E-01  0.00000000000E+00 0.  1.
          5    1    1    2  501    0  0.15612984099E+00 -0.44638565612E-01  0.16193743774E+03  0.16200571012E+03  0.47000000000E+01 0.  1.
         -5    1    1    2    0  502 -0.15612984099E+00  0.44638565612E-01  0.28028694750E+03  0.28032639781E+03  0.47000000000E+01 0.  1.
<mgrwt>
<rscale>  2 0.47028044E+01</rscale>
<asrwt>0</asrwt>
<pdfrwt beam="1">  1       21 0.68039899E-01 0.47028044E+01</pdfrwt>
<pdfrwt beam="2">  1       21 0.82867146E-05 0.47028044E+01</pdfrwt>
<totfact> 0.23701203E+09</totfact>
</mgrwt>
</event>
<event>
 4    1  0.4043737E+006  0.4938651E+01  0.7546771E-02  0.2578153E+00
         21   -1    0    0  503  502  0.00000000000E+00  0.00000000000E+00  0.32543811179E+00  0.32543811179E+00  0.00000000000E+00 0. -1.
         21   -1    0    0  501  503 -0.00000000000E+00 -0.00000000000E+00 -0.16620162344E+03  0.16620162344E+03  0.00000000000E+00 0. -1.
          5    1    1    2  501    0 -0.77726944263E+00  0.13023557126E+01 -0.14463552045E+03  0.14471981224E+03  0.47000000000E+01 0. -1.
         -5    1    1    2    0  502  0.77726944263E+00 -0.13023557126E+01 -0.21240664876E+02  0.21807249312E+02  0.47000000000E+01 0. -1.
<mgrwt>
<rscale>  2 0.49386515E+01</rscale>
<asrwt>0</asrwt>
<pdfrwt beam="1">  1       21 0.50067398E-04 0.49386515E+01</pdfrwt>
<pdfrwt beam="2">  1       21 0.25569483E-01 0.49386515E+01</pdfrwt>
<totfact> 0.12479822E+09</totfact>
</mgrwt>
</event>
<event>
 4    1  0.4043737E+006  0.6047399E+01  0.7546771E-02  0.2409295E+00
         21   -1    0    0  503  502  0.00000000000E+00  0.00000000000E+00  0.77204193438E+02  0.77204193438E+02  0.00000000000E+00 0. -1.
         21   -1    0    0  501  503 -0.00000000000E+00 -0.00000000000E+00 -0.38620066123E+01  0.38620066123E+01  0.00000000000E+00 0.  1.
          5    1    1    2  501    0 -0.11291846385E+01 -0.36340022620E+01 -0.12949342950E+01  0.61844874659E+01  0.47000000000E+01 0.  1.
         -5    1    1    2    0  502  0.11291846385E+01  0.36340022620E+01  0.74637121121E+02  0.74881712584E+02  0.47000000000E+01 0. -1.
<mgrwt>
<rscale>  2 0.60473986E+01</rscale>
<asrwt>0</asrwt>
<pdfrwt beam="1">  1       21 0.11877567E-01 0.60473986E+01</pdfrwt>
<pdfrwt beam="2">  1       21 0.59415492E-03 0.60473986E+01</pdfrwt>
<totfact> 0.17427376E+08</totfact>
</mgrwt>
</event>
<event>
 4    1  0.4043737E+006  0.1265460E+02  0.7546771E-02  0.1949406E+00
         21   -1    0    0  503  502  0.00000000000E+00  0.00000000000E+00  0.29765194041E+00  0.29765194041E+00  0.00000000000E+00 0.  1.
         21   -1    0    0  501  503 -0.00000000000E+00 -0.00000000000E+00 -0.66985023171E+03  0.66985023171E+03  0.00000000000E+00 0.  1.
          5    1    1    2  501    0 -0.61369362279E+01 -0.10019329838E+02 -0.18612112467E+03  0.18655082955E+03  0.47000000000E+01 0.  1.
         -5    1    1    2    0  502  0.61369362279E+01  0.10019329838E+02 -0.48343145509E+03  0.48359705410E+03  0.47000000000E+01 0.  1.
<mgrwt>
<rscale>  2 0.12654602E+02</rscale>
<asrwt>0</asrwt>
<pdfrwt beam="1">  1       21 0.45792789E-04 0.12654602E+02</pdfrwt>
<pdfrwt beam="2">  1       21 0.10305347E+00 0.12654602E+02</pdfrwt>
<totfact> 0.18632272E+08</totfact>
</mgrwt>
</event>
<event>
 4    1  0.4043737E+006  0.7171354E+01  0.7546771E-02  0.2284058E+00
         21   -1    0    0  503  502  0.00000000000E+00  0.00000000000E+00  0.16661428971E+02  0.16661428971E+02  0.00000000000E+00 0.  1.
         21   -1    0    0  501  503 -0.00000000000E+00 -0.00000000000E+00 -0.60129813264E+01  0.60129813264E+01  0.00000000000E+00 0. -1.
          5    1    1    2  501    0 -0.54070434186E+01  0.31969289929E+00 -0.25847728056E+01  0.76229503827E+01  0.47000000000E+01 0. -1.
         -5    1    1    2    0  502  0.54070434186E+01 -0.31969289929E+00  0.13233220450E+02  0.15051459915E+02  0.47000000000E+01 0.  1.
<mgrwt>
<rscale>  2 0.71713543E+01</rscale>
<asrwt>0</asrwt>
<pdfrwt beam="1">  1       21 0.25632967E-02 0.71713543E+01</pdfrwt>
<pdfrwt beam="2">  1       21 0.92507406E-03 0.71713543E+01</pdfrwt>
<totfact> 0.10532228E+09</totfact>
</mgrwt>
</event>
<event>
 4    1  0.4043737E+006  0.1666985E+02  0.7546771E-02  0.1821013E+00
         21   -1    0    0  501  502  0.00000000000E+00  0.00000000000E+00  0.18192311884E+01  0.18192311884E+01  0.00000000000E+00 0.  1.
         21   -1    0    0  502  503 -0.00000000000E+00 -0.00000000000E+00 -0.18197682126E+03  0.18197682126E+03  0.00000000000E+00 0. -1.
          5    1    1    2  501    0  0.12874239840E+02 -0.94893618617E+01 -0.53248658412E+02  0.55796986143E+02  0.47000000000E+01 0.  1.
         -5    1    1    2    0  503 -0.12874239840E+02  0.94893618617E+01 -0.12690893166E+03  0.12799906630E+03  0.47000000000E+01 0. -1.
<mgrwt>
<rscale>  2 0.16669854E+02</rscale>
<asrwt>0</asrwt>
<pdfrwt beam="1">  1       21 0.27988162E-03 0.16669854E+02</pdfrwt>
<pdfrwt beam="2">  1       21 0.27996444E-01 0.16669854E+02</pdfrwt>
<totfact> 0.20082904E+08</totfact>
</mgrwt>
</event>
<event>
 4    1  0.4043737E+006  0.7401702E+01  0.7546771E-02  0.2262306E+00
         21   -1    0    0  501  502  0.00000000000E+00  0.00000000000E+00  0.27446542975E+03  0.27446542975E+03  0.00000000000E+00 0.  1.
         21   -1    0    0  502  503 -0.00000000000E+00 -0.00000000000E+00 -0.66523222019E+00  0.66523222019E+00  0.00000000000E+00 0. -1.
          5    1    1    2  501    0  0.56787366155E+01  0.66868876682E+00  0.25199091040E+03  0.25209959167E+03  0.47000000000E+01 0.  1.
         -5    1    1    2    0  503 -0.56787366155E+01 -0.66868876682E+00  0.21809287127E+02  0.23031070301E+02  0.47000000000E+01 0. -1.
<mgrwt>
<rscale>  2 0.74017021E+01</rscale>
<asrwt>0</asrwt>
<pdfrwt beam="1">  1       21 0.42225360E-01 0.74017021E+01</pdfrwt>
<pdfrwt beam="2">  1       21 0.10234364E-03 0.74017021E+01</pdfrwt>
<totfact> 0.27362274E+08</totfact>
</mgrwt>
</event>
<event>
 4    1  0.4043737E+006  0.6485592E+01  0.7546771E-02  0.2356206E+00
         21   -1    0    0  501  502  0.00000000000E+00  0.00000000000E+00  0.22727086310E+02  0.22727086310E+02  0.00000000000E+00 0. -1.
         21   -1    0    0  502  503 -0.00000000000E+00 -0.00000000000E+00 -0.23637232809E+01  0.23637232809E+01  0.00000000000E+00 0. -1.
          5    1    1    2  501    0  0.44648763194E+01 -0.19437561221E+00  0.16025810773E+02  0.17288421366E+02  0.47000000000E+01 0. -1.
         -5    1    1    2    0  503 -0.44648763194E+01  0.19437561221E+00  0.43375522566E+01  0.78023882245E+01  0.47000000000E+01 0. -1.
<mgrwt>
<rscale>  2 0.64855919E+01</rscale>
<asrwt>0</asrwt>
<pdfrwt beam="1">  1       21 0.34964747E-02 0.64855919E+01</pdfrwt>
<pdfrwt beam="2">  1       21 0.36364975E-03 0.64855919E+01</pdfrwt>
<totfact> 0.22948412E+09</totfact>
</mgrwt>
</event>
<event>
 4    1  0.4043737E+006  0.5818612E+01  0.7546771E-02  0.2439647E+00
         21   -1    0    0  501  502  0.00000000000E+00  0.00000000000E+00  0.25686943840E+00  0.25686943840E+00  0.00000000000E+00 0. -1.
         21   -1    0    0  502  503 -0.00000000000E+00 -0.00000000000E+00 -0.53432361003E+03  0.53432361003E+03  0.00000000000E+00 0. -1.
          5    1    1    2  501    0 -0.30409276403E+01  0.15871360372E+01 -0.35040406552E+02  0.35520224282E+02  0.47000000000E+01 0. -1.
         -5    1    1    2    0  503  0.30409276403E+01 -0.15871360372E+01 -0.49902633404E+03  0.49906025518E+03  0.47000000000E+01 0. -1.
<mgrwt>
<rscale>  2 0.58186117E+01</rscale>
<asrwt>0</asrwt>
<pdfrwt beam="1">  1       21 0.39518495E-04 0.58186117E+01</pdfrwt>
<pdfrwt beam="2">  1       21 0.82203383E-01 0.58186117E+01</pdfrwt>
<totfact> 0.24543531E+08</totfact>
</mgrwt>
</event>
<event>
 4    1  0.4043737E+006  0.4754273E+01  0.7546771E-02  0.2612683E+00
         21   -1    0    0  501  502  0.00000000000E+00  0.00000000000E+00  0.29765044966E+02  0.29765044966E+02  0.00000000000E+00 0.  1.
         21   -1    0    0  502  503 -0.00000000000E+00 -0.00000000000E+00 -0.23375510934E+01  0.23375510934E+01  0.00000000000E+00 0.  1.
          5    1    1    2  501    0 -0.62696228072E+00 -0.34644879729E+00  0.26902570242E+02  0.27319432536E+02  0.47000000000E+01 0.  1.
         -5    1    1    2    0  503  0.62696228072E+00  0.34644879729E+00  0.52492363034E+00  0.47831635231E+01  0.47000000000E+01 0.  1.
<mgrwt>
<rscale>  2 0.47542727E+01</rscale>
<asrwt>0</asrwt>
<pdfrwt beam="1">  1       21 0.45792374E-02 0.47542727E+01</pdfrwt>
<pdfrwt beam="2">  1       21 0.35962327E-03 0.47542727E+01</pdfrwt>
<totfact> 0.11885148E+09</totfact>
</mgrwt>
</event>
<event>
 4    1  0.4043737E+006  0.6407614E+01  0.7546771E-02  0.2365210E+00
         21   -1    0    0  503  502  0.00000000000E+00  0.00000000000E+00  0.19873793017E+02  0.19873793017E+02  0.00000000000E+00 0.  1.
         21   -1    0    0  501  503 -0.00000000000E+00 -0.00000000000E+00 -0.74987733961E+01  0.74987733961E+01  0.00000000000E+00 0. -1.
          5    1    1    2  501    0 -0.43091781405E+01 -0.63126866862E+00 -0.54619208929E+01  0.84196256579E+01  0.47000000000E+01 0. -1.
         -5    1    1    2    0  502  0.43091781405E+01  0.63126866862E+00  0.17836940514E+02  0.18952940755E+02  0.47000000000E+01 0.  1.
<mgrwt>
<rscale>  2 0.64076139E+01</rscale>
<asrwt>0</asrwt>
<pdfrwt beam="1">  1       21 0.30575066E-02 0.64076139E+01</pdfrwt>
<pdfrwt beam="2">  1       21 0.11536575E-02 0.64076139E+01</pdfrwt>
<totfact> 0.54753540E+08</totfact>
</mgrwt>
</event>
<event>
 4    1  0.4043737E+006  0.5139821E+01  0.7546771E-02  0.2542932E+00
         21   -1    0    0  503  502  0.00000000000E+00  0.00000000000E+00  0.47713483547E+03  0.47713483547E+03  0.00000000000E+00 0. -1.
         21   -1    0    0  501  503 -0.00000000000E+00 -0.00000000000E+00 -0.82813254031E-01  0.82813254031E-01  0.00000000000E+00 0. -1.
          5    1    1    2  501    0  0.23998763876E+00 -0.20664389241E+01  0.10116162657E+03  0.10129211447E+03  0.47000000000E+01 0. -1.
         -5    1    1    2    0  502 -0.23998763876E+00  0.20664389241E+01  0.37589039564E+03  0.37592553425E+03  0.47000000000E+01 0. -1.
<mgrwt>
<rscale>  2 0.51398214E+01</rscale>
<asrwt>0</asrwt>
<pdfrwt beam="1">  1       21 0.73403158E-01 0.51398214E+01</pdfrwt>
<pdfrwt beam="2">  1       21 0.12740883E-04 0.51398214E+01</pdfrwt>
<totfact> 0.12537769E+09</totfact>
</mgrwt>
</event>
<event>
 4    1  0.4043737E+006  0.8527184E+01  0.7546771E-02  0.2169977E+00
         21   -1    0    0  501  502  0.00000000000E+00  0.00000000000E+00  0.11986414492E+01  0.11986414492E+01  0.00000000000E+00 0. -1.
         21   -1    0    0  502  503 -0.00000000000E+00 -0.00000000000E+00 -0.71747958242E+02  0.71747958242E+02  0.00000000000E+00 0.  1.
          5    1    1    2  501    0  0.17895784120E+01  0.68862375983E+01 -0.20938174218E+02  0.22607963171E+02  0.47000000000E+01 0. -1.
         -5    1    1    2    0  503 -0.17895784120E+01 -0.68862375983E+01 -0.49611142575E+02  0.50338636520E+02  0.47000000000E+01 0.  1.
<mgrwt>
<rscale>  2 0.85271835E+01</rscale>
<asrwt>0</asrwt>
<pdfrwt beam="1">  1       21 0.18440631E-03 0.85271835E+01</pdfrwt>
<pdfrwt beam="2">  1       21 0.11038152E-01 0.85271835E+01</pdfrwt>
<totfact> 0.12461686E+09</totfact>
</mgrwt>
</event>
<event>
 4    1  0.4043737E+006  0.5250711E+01  0.7546771E-02  0.2524511E+00
         21   -1    0    0  503  502  0.00000000000E+00  0.00000000000E+00  0.93262050172E+00  0.93262050172E+00  0.00000000000E+00 0. -1.
         21   -1    0    0  501  503 -0.00000000000E+00 -0.00000000000E+00 -0.29819507051E+02  0.29819507051E+02  0.00000000000E+00 0. -1.
          5    1    1    2  501    0  0.77567942693E+00  0.22086838035E+01 -0.15872792144E+02  0.16718716852E+02  0.47000000000E+01 0. -1.
         -5    1    1    2    0  502 -0.77567942693E+00 -0.22086838035E+01 -0.13014094405E+02  0.14033410701E+02  0.47000000000E+01 0. -1.
<mgrwt>
<rscale>  2 0.52507107E+01</rscale>
<asrwt>0</asrwt>
<pdfrwt beam="1">  1       21 0.14348007E-03 0.52507107E+01</pdfrwt>
<pdfrwt beam="2">  1       21 0.45876168E-02 0.52507107E+01</pdfrwt>
<totfact> 0.45221013E+09</totfact>
</mgrwt>
</event>
<event>
 4    1  0.4043737E+006  0.8659767E+01  0.7546771E-02  0.2160385E+00
         21   -1    0    0  501  502  0.00000000000E+00  0.00000000000E+00  0.14027140217E+02  0.14027140217E+02  0.00000000000E+00 0. -1.
         21   -1    0    0  502  503 -0.00000000000E+00 -0.00000000000E+00 -0.19241270061E+02  0.19241270061E+02  0.00000000000E+00 0.  1.
          5    1    1    2  501    0  0.34480008144E+01 -0.64041283634E+01  0.11528589541E+02  0.14418735954E+02  0.47000000000E+01 0. -1.
         -5    1    1    2    0  503 -0.34480008144E+01  0.64041283634E+01 -0.16742719385E+02  0.18849674324E+02  0.47000000000E+01 0.  1.
<mgrwt>
<rscale>  2 0.86597673E+01</rscale>
<asrwt>0</asrwt>
<pdfrwt beam="1">  1       21 0.21580216E-02 0.86597673E+01</pdfrwt>
<pdfrwt beam="2">  1       21 0.29601954E-02 0.86597673E+01</pdfrwt>
<totfact> 0.28253092E+08</totfact>
</mgrwt>
</event>
<event>
 4    1  0.4043737E+006  0.5552938E+01  0.7546771E-02  0.2477515E+00
         21   -1    0    0  503  502  0.00000000000E+00  0.00000000000E+00  0.61709702610E+01  0.61709702610E+01  0.00000000000E+00 0.  1.
         21   -1    0    0  501  503 -0.00000000000E+00 -0.00000000000E+00 -0.68495486157E+01  0.68495486157E+01  0.00000000000E+00 0.  1.
          5    1    1    2  501    0  0.17870835243E+01  0.23561514377E+01 -0.37251984982E+01  0.66867197467E+01  0.47000000000E+01 0.  1.
         -5    1    1    2    0  502 -0.17870835243E+01 -0.23561514377E+01  0.30466201435E+01  0.63337991300E+01  0.47000000000E+01 0.  1.
<mgrwt>
<rscale>  2 0.55529377E+01</rscale>
<asrwt>0</asrwt>
<pdfrwt beam="1">  1       21 0.94938004E-03 0.55529377E+01</pdfrwt>
<pdfrwt beam="2">  1       21 0.10537767E-02 0.55529377E+01</pdfrwt>
<totfact> 0.29396220E+09</totfact>
</mgrwt>
</event>
<event>
 4    1  0.4043737E+006  0.5368654E+01  0.7546771E-02  0.2505635E+00
         21   -1    0    0  501  502  0.00000000000E+00  0.00000000000E+00  0.19737422719E+02  0.19737422719E+02  0.00000000000E+00 0. -1.
         21   -1    0    0  502  503 -0.00000000000E+00 -0.00000000000E+00 -0.14726596482E+01  0.14726596482E+01  0.00000000000E+00 0. -1.
          5    1    1    2  501    0  0.23230214934E+01  0.11558642861E+01  0.10104143064E+02  0.11441859909E+02  0.47000000000E+01 0. -1.
         -5    1    1    2    0  503 -0.23230214934E+01 -0.11558642861E+01  0.81606200061E+01  0.97682224581E+01  0.47000000000E+01 0. -1.
<mgrwt>
<rscale>  2 0.53686545E+01</rscale>
<asrwt>0</asrwt>
<pdfrwt beam="1">  1       21 0.30365264E-02 0.53686545E+01</pdfrwt>
<pdfrwt beam="2">  1       21 0.22656304E-03 0.53686545E+01</pdfrwt>
<totfact> 0.45497887E+09</totfact>
</mgrwt>
</event>
<event>
 4    1  0.4043737E+006  0.1190287E+02  0.7546771E-02  0.1980532E+00
         21   -1    0    0  503  502  0.00000000000E+00  0.00000000000E+00  0.15326492990E+01  0.15326492990E+01  0.00000000000E+00 0.  1.
         21   -1    0    0  501  503 -0.00000000000E+00 -0.00000000000E+00 -0.10187499010E+03  0.10187499010E+03  0.00000000000E+00 0. -1.
          5    1    1    2  501    0  0.90341668112E+01  0.61621620839E+01 -0.65905741270E+02  0.66971972824E+02  0.47000000000E+01 0. -1.
         -5    1    1    2    0  502 -0.90341668112E+01 -0.61621620839E+01 -0.34436599526E+02  0.36435666571E+02  0.47000000000E+01 0.  1.
<mgrwt>
<rscale>  2 0.11902874E+02</rscale>
<asrwt>0</asrwt>
<pdfrwt beam="1">  1       21 0.23579221E-03 0.11902874E+02</pdfrwt>
<pdfrwt beam="2">  1       21 0.15673075E-01 0.11902874E+02</pdfrwt>
<totfact> 0.60302564E+08</totfact>
</mgrwt>
</event>
<event>
 4    1  0.4043737E+006  0.7262317E+01  0.7546771E-02  0.2275334E+00
         21   -1    0    0  501  502  0.00000000000E+00  0.00000000000E+00  0.34179101102E+01  0.34179101102E+01  0.00000000000E+00 0. -1.
         21   -1    0    0  502  503 -0.00000000000E+00 -0.00000000000E+00 -0.26775046266E+03  0.26775046266E+03  0.00000000000E+00 0.  1.
          5    1    1    2  501    0  0.18537564838E+01 -0.52167842880E+01 -0.54702052354E+00  0.72828897330E+01  0.47000000000E+01 0. -1.
         -5    1    1    2    0  503 -0.18537564838E+01  0.52167842880E+01 -0.26378553202E+03  0.26388548303E+03  0.47000000000E+01 0.  1.
<mgrwt>
<rscale>  2 0.72623172E+01</rscale>
<asrwt>0</asrwt>
<pdfrwt beam="1">  1       21 0.52583224E-03 0.72623172E+01</pdfrwt>
<pdfrwt beam="2">  1       21 0.41192385E-01 0.72623172E+01</pdfrwt>
<totfact> 0.29507998E+07</totfact>
</mgrwt>
</event>
<event>
 4    1  0.4043737E+006  0.3219262E+02  0.7546771E-02  0.1575044E+00
         21   -1    0    0  503  502  0.00000000000E+00  0.00000000000E+00  0.96920250652E+02  0.96920250652E+02  0.00000000000E+00 0.  1.
         21   -1    0    0  501  503 -0.00000000000E+00 -0.00000000000E+00 -0.71209794311E+02  0.71209794311E+02  0.00000000000E+00 0. -1.
          5    1    1    2  501    0 -0.31732017807E+02 -0.27117364064E+01 -0.64641535203E+02  0.72214212879E+02  0.47000000000E+01 0. -1.
         -5    1    1    2    0  502  0.31732017807E+02  0.27117364064E+01  0.90351991544E+02  0.95915832084E+02  0.47000000000E+01 0.  1.
<mgrwt>
<rscale>  2 0.32192615E+02</rscale>
<asrwt>0</asrwt>
<pdfrwt beam="1">  1       21 0.14910808E-01 0.32192615E+02</pdfrwt>
<pdfrwt beam="2">  1       21 0.10955353E-01 0.32192615E+02</pdfrwt>
<totfact> 0.24801265E+06</totfact>
</mgrwt>
</event>
