<event>
 4    1  0.3931501E+006  0.6501761E+01  0.7546771E-02  0.2354361E+00
         21   -1    0    0  503  502  0.00000000000E+00  0.00000000000E+00  0.35563382983E+02  0.35563382983E+02  0.00000000000E+00 0.  1.
         21   -1    0    0  501  503 -0.00000000000E+00 -0.00000000000E+00 -0.20260334184E+01  0.20260334184E+01  0.00000000000E+00 0.  1.
          5    1    1    2  501    0 -0.40761343118E+01  0.18889205383E+01  0.46857801370E+01  0.80143263734E+01  0.47000000000E+01 0.  1.
         -5    1    1    2    0  502  0.40761343118E+01 -0.18889205383E+01  0.28851569427E+02  0.29575090028E+02  0.47000000000E+01 0.  1.
<mgrwt>
<rscale>  2 0.65017607E+01</rscale>
<asrwt>0</asrwt>
<pdfrwt beam="1">  1       21 0.54712892E-02 0.65017607E+01</pdfrwt>
<pdfrwt beam="2">  1       21 0.31169747E-03 0.65017607E+01</pdfrwt>
<totfact> 0.14653282E+09</totfact>
</mgrwt>
</event>
<event>
 4    1  0.3931501E+006  0.5421534E+01  0.7546771E-02  0.2497400E+00
         21   -1    0    0  501  502  0.00000000000E+00  0.00000000000E+00  0.70665953623E+02  0.70665953623E+02  0.00000000000E+00 0. -1.
         21   -1    0    0  502  503 -0.00000000000E+00 -0.00000000000E+00 -0.11999246658E+01  0.11999246658E+01  0.00000000000E+00 0. -1.
          5    1    1    2  501    0  0.26294098875E+01  0.62388544315E+00  0.63777830088E+02  0.64007848270E+02  0.47000000000E+01 0. -1.
         -5    1    1    2    0  503 -0.26294098875E+01 -0.62388544315E+00  0.56881988691E+01  0.78580300188E+01  0.47000000000E+01 0. -1.
<mgrwt>
<rscale>  2 0.54215339E+01</rscale>
<asrwt>0</asrwt>
<pdfrwt beam="1">  1       21 0.10871682E-01 0.54215339E+01</pdfrwt>
<pdfrwt beam="2">  1       21 0.18460385E-03 0.54215339E+01</pdfrwt>
<totfact> 0.91502564E+08</totfact>
</mgrwt>
</event>
<event>
 4    1  0.3931501E+006  0.6560494E+01  0.7546771E-02  0.2347723E+00
         21   -1    0    0  501  502  0.00000000000E+00  0.00000000000E+00  0.98682003920E+01  0.98682003920E+01  0.00000000000E+00 0.  1.
         21   -1    0    0  502  503 -0.00000000000E+00 -0.00000000000E+00 -0.79790428570E+01  0.79790428570E+01  0.00000000000E+00 0.  1.
          5    1    1    2  501    0 -0.18676685104E+01 -0.41787429648E+01 -0.50640180401E+01  0.82876026172E+01  0.47000000000E+01 0.  1.
         -5    1    1    2    0  503  0.18676685104E+01  0.41787429648E+01  0.69531755751E+01  0.95596406318E+01  0.47000000000E+01 0.  1.
<mgrwt>
<rscale>  2 0.65604938E+01</rscale>
<asrwt>0</asrwt>
<pdfrwt beam="1">  1       21 0.15181847E-02 0.65604938E+01</pdfrwt>
<pdfrwt beam="2">  1       21 0.12275450E-02 0.65604938E+01</pdfrwt>
<totfact> 0.14058160E+09</totfact>
</mgrwt>
</event>
<event>
 4    1  0.3931501E+006  0.6625721E+01  0.7546771E-02  0.2340466E+00
         21   -1    0    0  501  502  0.00000000000E+00  0.00000000000E+00  0.14815698870E+04  0.14815698870E+04  0.00000000000E+00 0.  1.
         21   -1    0    0  502  503 -0.00000000000E+00 -0.00000000000E+00 -0.62153880191E-01  0.62153880191E-01  0.00000000000E+00 0. -1.
          5    1    1    2  501    0 -0.24643917612E+01 -0.39669830522E+01  0.12766390082E+04  0.12766562018E+04  0.47000000000E+01 0.  1.
         -5    1    1    2    0  503  0.24643917612E+01  0.39669830522E+01  0.20486872494E+03  0.20497583916E+03  0.47000000000E+01 0. -1.
<mgrwt>
<rscale>  2 0.66257212E+01</rscale>
<asrwt>0</asrwt>
<pdfrwt beam="1">  1       21 0.22790555E+00 0.66257212E+01</pdfrwt>
<pdfrwt beam="2">  1       21 0.95633220E-05 0.66257212E+01</pdfrwt>
<totfact> 0.20036524E+08</totfact>
</mgrwt>
</event>
<event>
 4    1  0.3931501E+006  0.5376580E+01  0.7546771E-02  0.2504392E+00
         21   -1    0    0  503  502  0.00000000000E+00  0.00000000000E+00  0.11679685687E+01  0.11679685687E+01  0.00000000000E+00 0.  1.
         21   -1    0    0  501  503 -0.00000000000E+00 -0.00000000000E+00 -0.13728456313E+03  0.13728456313E+03  0.00000000000E+00 0.  1.
          5    1    1    2  501    0 -0.95193051637E+00 -0.24313453549E+01 -0.13073445625E+03  0.13084496805E+03  0.47000000000E+01 0.  1.
         -5    1    1    2    0  502  0.95193051637E+00  0.24313453549E+01 -0.53821383145E+01  0.76075636559E+01  0.47000000000E+01 0.  1.
<mgrwt>
<rscale>  2 0.53765799E+01</rscale>
<asrwt>0</asrwt>
<pdfrwt beam="1">  1       21 0.17968743E-03 0.53765799E+01</pdfrwt>
<pdfrwt beam="2">  1       21 0.21120707E-01 0.53765799E+01</pdfrwt>
<totfact> 0.33289456E+08</totfact>
</mgrwt>
</event>
<event>
 4    1  0.3931501E+006  0.6652209E+01  0.7546771E-02  0.2337553E+00
         21   -1    0    0  503  502  0.00000000000E+00  0.00000000000E+00  0.63990212455E+00  0.63990212455E+00  0.00000000000E+00 0.  1.
         21   -1    0    0  501  503 -0.00000000000E+00 -0.00000000000E+00 -0.77799743888E+02  0.77799743888E+02  0.00000000000E+00 0.  1.
          5    1    1    2  501    0 -0.37458102343E+01 -0.28514542810E+01 -0.51654087862E+02  0.52080674714E+02  0.47000000000E+01 0.  1.
         -5    1    1    2    0  502  0.37458102343E+01  0.28514542810E+01 -0.25505753902E+02  0.26358971299E+02  0.47000000000E+01 0.  1.
<mgrwt>
<rscale>  2 0.66522091E+01</rscale>
<asrwt>0</asrwt>
<pdfrwt beam="1">  1       21 0.98446469E-04 0.66522091E+01</pdfrwt>
<pdfrwt beam="2">  1       21 0.11969193E-01 0.66522091E+01</pdfrwt>
<totfact> 0.21744538E+09</totfact>
</mgrwt>
</event>
<event>
 4    1  0.3931501E+006  0.9081045E+01  0.7546771E-02  0.2131397E+00
         21   -1    0    0  501  502  0.00000000000E+00  0.00000000000E+00  0.54155396321E+02  0.54155396321E+02  0.00000000000E+00 0.  1.
         21   -1    0    0  502  503 -0.00000000000E+00 -0.00000000000E+00 -0.15257325078E+01  0.15257325078E+01  0.00000000000E+00 0. -1.
          5    1    1    2  501    0 -0.72557982130E+01 -0.27800677874E+01  0.25084884001E+02  0.26678020728E+02  0.47000000000E+01 0.  1.
         -5    1    1    2    0  503  0.72557982130E+01  0.27800677874E+01  0.27544779812E+02  0.29003108101E+02  0.47000000000E+01 0. -1.
<mgrwt>
<rscale>  2 0.90810453E+01</rscale>
<asrwt>0</asrwt>
<pdfrwt beam="1">  1       21 0.83315979E-02 0.90810453E+01</pdfrwt>
<pdfrwt beam="2">  1       21 0.23472812E-03 0.90810453E+01</pdfrwt>
<totfact> 0.14425326E+09</totfact>
</mgrwt>
</event>
<event>
 4    1  0.3931501E+006  0.5426119E+01  0.7546771E-02  0.2496693E+00
         21   -1    0    0  501  502  0.00000000000E+00  0.00000000000E+00  0.74179723099E+02  0.74179723099E+02  0.00000000000E+00 0.  1.
         21   -1    0    0  502  503 -0.00000000000E+00 -0.00000000000E+00 -0.40350672188E+00  0.40350672188E+00  0.00000000000E+00 0. -1.
          5    1    1    2  501    0  0.35997377505E+00  0.26875989479E+01  0.41655793526E+02  0.42007712428E+02  0.47000000000E+01 0.  1.
         -5    1    1    2    0  503 -0.35997377505E+00 -0.26875989479E+01  0.32120422851E+02  0.32575517392E+02  0.47000000000E+01 0. -1.
<mgrwt>
<rscale>  2 0.54261192E+01</rscale>
<asrwt>0</asrwt>
<pdfrwt beam="1">  1       21 0.11412254E-01 0.54261192E+01</pdfrwt>
<pdfrwt beam="2">  1       21 0.62078016E-04 0.54261192E+01</pdfrwt>
<totfact> 0.36538821E+09</totfact>
</mgrwt>
</event>
<event>
 4    1  0.3931501E+006  0.6093185E+01  0.7546771E-02  0.2403451E+00
         21   -1    0    0  503  502  0.00000000000E+00  0.00000000000E+00  0.60779804996E+01  0.60779804996E+01  0.00000000000E+00 0. -1.
         21   -1    0    0  501  503 -0.00000000000E+00 -0.00000000000E+00 -0.26467394657E+02  0.26467394657E+02  0.00000000000E+00 0.  1.
          5    1    1    2  501    0  0.38533983541E+01 -0.43385516560E+00 -0.24466599068E+02  0.25213912412E+02  0.47000000000E+01 0.  1.
         -5    1    1    2    0  502 -0.38533983541E+01  0.43385516560E+00  0.40771849105E+01  0.73314627445E+01  0.47000000000E+01 0. -1.
<mgrwt>
<rscale>  2 0.60931855E+01</rscale>
<asrwt>0</asrwt>
<pdfrwt beam="1">  1       21 0.93507393E-03 0.60931855E+01</pdfrwt>
<pdfrwt beam="2">  1       21 0.40719068E-02 0.60931855E+01</pdfrwt>
<totfact> 0.46615643E+08</totfact>
</mgrwt>
</event>
<event>
 4    1  0.3931501E+006  0.6209852E+01  0.7546771E-02  0.2388886E+00
         21   -1    0    0  501  502  0.00000000000E+00  0.00000000000E+00  0.17412356631E+01  0.17412356631E+01  0.00000000000E+00 0.  1.
         21   -1    0    0  502  503 -0.00000000000E+00 -0.00000000000E+00 -0.23183059718E+02  0.23183059718E+02  0.00000000000E+00 0.  1.
          5    1    1    2  501    0  0.40310111543E+01 -0.47245552996E+00 -0.80857584020E+01  0.10195182887E+02  0.47000000000E+01 0.  1.
         -5    1    1    2    0  503 -0.40310111543E+01  0.47245552996E+00 -0.13356065653E+02  0.14729112495E+02  0.47000000000E+01 0.  1.
<mgrwt>
<rscale>  2 0.62098523E+01</rscale>
<asrwt>0</asrwt>
<pdfrwt beam="1">  1       21 0.26788240E-03 0.62098523E+01</pdfrwt>
<pdfrwt beam="2">  1       21 0.35666247E-02 0.62098523E+01</pdfrwt>
<totfact> 0.32743404E+09</totfact>
</mgrwt>
</event>
<event>
 4    1  0.3931501E+006  0.5069634E+01  0.7546771E-02  0.2554947E+00
         21   -1    0    0  501  502  0.00000000000E+00  0.00000000000E+00  0.14361330430E+03  0.14361330430E+03  0.00000000000E+00 0. -1.
         21   -1    0    0  502  503 -0.00000000000E+00 -0.00000000000E+00 -0.68593530264E+00  0.68593530264E+00  0.00000000000E+00 0.  1.
          5    1    1    2  501    0  0.19002072511E+01 -0.19966112520E-01  0.13349134849E+03  0.13358757917E+03  0.47000000000E+01 0. -1.
         -5    1    1    2    0  503 -0.19002072511E+01  0.19966112520E-01  0.94360205024E+01  0.10711660430E+02  0.47000000000E+01 0.  1.
<mgrwt>
<rscale>  2 0.50696337E+01</rscale>
<asrwt>0</asrwt>
<pdfrwt beam="1">  1       21 0.22094331E-01 0.50696337E+01</pdfrwt>
<pdfrwt beam="2">  1       21 0.10552862E-03 0.50696337E+01</pdfrwt>
<totfact> 0.60173749E+08</totfact>
</mgrwt>
</event>
<event>
 4    1  0.3931501E+006  0.6375438E+01  0.7546771E-02  0.2368979E+00
         21   -1    0    0  501  502  0.00000000000E+00  0.00000000000E+00  0.11120605473E+02  0.11120605473E+02  0.00000000000E+00 0.  1.
         21   -1    0    0  502  503 -0.00000000000E+00 -0.00000000000E+00 -0.40373916821E+01  0.40373916821E+01  0.00000000000E+00 0.  1.
          5    1    1    2  501    0 -0.40030289601E+01 -0.15912165914E+01  0.58739652194E+01  0.86688914225E+01  0.47000000000E+01 0.  1.
         -5    1    1    2    0  503  0.40030289601E+01  0.15912165914E+01  0.12092485710E+01  0.64891057321E+01  0.47000000000E+01 0.  1.
<mgrwt>
<rscale>  2 0.63754381E+01</rscale>
<asrwt>0</asrwt>
<pdfrwt beam="1">  1       21 0.17108624E-02 0.63754381E+01</pdfrwt>
<pdfrwt beam="2">  1       21 0.62113719E-03 0.63754381E+01</pdfrwt>
<totfact> 0.30282347E+09</totfact>
</mgrwt>
</event>
<event>
 4    1  0.3931501E+006  0.4942693E+01  0.7546771E-02  0.2577421E+00
         21   -1    0    0  503  502  0.00000000000E+00  0.00000000000E+00  0.41589578253E+02  0.41589578253E+02  0.00000000000E+00 0. -1.
         21   -1    0    0  501  503 -0.00000000000E+00 -0.00000000000E+00 -0.17235461026E+02  0.17235461026E+02  0.00000000000E+00 0. -1.
          5    1    1    2  501    0  0.12917647551E+01  0.81948894825E+00 -0.16729903322E+02  0.17444766650E+02  0.47000000000E+01 0. -1.
         -5    1    1    2    0  502 -0.12917647551E+01 -0.81948894825E+00  0.41084020549E+02  0.41380272629E+02  0.47000000000E+01 0. -1.
<mgrwt>
<rscale>  2 0.49426934E+01</rscale>
<asrwt>0</asrwt>
<pdfrwt beam="1">  1       21 0.63983967E-02 0.49426934E+01</pdfrwt>
<pdfrwt beam="2">  1       21 0.26516094E-02 0.49426934E+01</pdfrwt>
<totfact> 0.46709729E+07</totfact>
</mgrwt>
</event>
<event>
 4    1  0.3931501E+006  0.9065079E+01  0.7546771E-02  0.2132457E+00
         21   -1    0    0  501  502  0.00000000000E+00  0.00000000000E+00  0.84992838761E+00  0.84992838761E+00  0.00000000000E+00 0.  1.
         21   -1    0    0  502  503 -0.00000000000E+00 -0.00000000000E+00 -0.96718948461E+02  0.96718948461E+02  0.00000000000E+00 0.  1.
          5    1    1    2  501    0  0.66559141323E+01  0.39729657829E+01 -0.47025676706E+02  0.47891438898E+02  0.47000000000E+01 0.  1.
         -5    1    1    2    0  503 -0.66559141323E+01 -0.39729657829E+01 -0.48843343368E+02  0.49677437951E+02  0.47000000000E+01 0.  1.
<mgrwt>
<rscale>  2 0.90650786E+01</rscale>
<asrwt>0</asrwt>
<pdfrwt beam="1">  1       21 0.13075818E-03 0.90650786E+01</pdfrwt>
<pdfrwt beam="2">  1       21 0.14879843E-01 0.90650786E+01</pdfrwt>
<totfact> 0.12903357E+09</totfact>
</mgrwt>
</event>
<event>
 4    1  0.3931501E+006  0.6636022E+02  0.7546771E-02  0.1372927E+00
         21   -1    0    0  501  502  0.00000000000E+00  0.00000000000E+00  0.38303091093E+02  0.38303091093E+02  0.00000000000E+00 0.  1.
         21   -1    0    0  502  503 -0.00000000000E+00 -0.00000000000E+00 -0.24540353662E+03  0.24540353662E+03  0.00000000000E+00 0. -1.
          5    1    1    2  501    0 -0.64859887759E+02  0.13220602722E+02 -0.13252009403E+00  0.66360356675E+02  0.47000000000E+01 0.  1.
         -5    1    1    2    0  503  0.64859887759E+02 -0.13220602722E+02 -0.20696792543E+03  0.21734627104E+03  0.47000000000E+01 0. -1.
<mgrwt>
<rscale>  2 0.66360224E+02</rscale>
<asrwt>0</asrwt>
<pdfrwt beam="1">  1       21 0.58927835E-02 0.66360224E+02</pdfrwt>
<pdfrwt beam="2">  1       21 0.37754389E-01 0.66360224E+02</pdfrwt>
<totfact> 0.13504383E+06</totfact>
</mgrwt>
</event>
<event>
 4    1  0.3931501E+006  0.8919035E+01  0.7546771E-02  0.2142287E+00
         21   -1    0    0  503  502  0.00000000000E+00  0.00000000000E+00  0.16010863903E+03  0.16010863903E+03  0.00000000000E+00 0. -1.
         21   -1    0    0  501  503 -0.00000000000E+00 -0.00000000000E+00 -0.54529939903E+00  0.54529939903E+00  0.00000000000E+00 0.  1.
          5    1    1    2  501    0  0.22476055441E+00  0.75768503962E+01  0.55836914250E+02  0.56544762554E+02  0.47000000000E+01 0.  1.
         -5    1    1    2    0  502 -0.22476055441E+00 -0.75768503962E+01  0.10372642538E+03  0.10410917588E+03  0.47000000000E+01 0. -1.
<mgrwt>
<rscale>  2 0.89190347E+01</rscale>
<asrwt>0</asrwt>
<pdfrwt beam="1">  1       21 0.24632061E-01 0.89190347E+01</pdfrwt>
<pdfrwt beam="2">  1       21 0.83892343E-04 0.89190347E+01</pdfrwt>
<totfact> 0.10202713E+09</totfact>
</mgrwt>
</event>
<event>
 4    1  0.3931501E+006  0.4757134E+01  0.7546771E-02  0.2612130E+00
         21   -1    0    0  503  502  0.00000000000E+00  0.00000000000E+00  0.19989408158E+01  0.19989408158E+01  0.00000000000E+00 0.  1.
         21   -1    0    0  501  503 -0.00000000000E+00 -0.00000000000E+00 -0.83937627074E+02  0.83937627074E+02  0.00000000000E+00 0. -1.
          5    1    1    2  501    0 -0.62522539233E+00 -0.38653975074E+00 -0.80935025915E+02  0.81074710852E+02  0.47000000000E+01 0. -1.
         -5    1    1    2    0  502  0.62522539233E+00  0.38653975074E+00 -0.10036603422E+01  0.48618570375E+01  0.47000000000E+01 0.  1.
<mgrwt>
<rscale>  2 0.47571336E+01</rscale>
<asrwt>0</asrwt>
<pdfrwt beam="1">  1       21 0.30752933E-03 0.47571336E+01</pdfrwt>
<pdfrwt beam="2">  1       21 0.12913482E-01 0.47571336E+01</pdfrwt>
<totfact> 0.31478992E+08</totfact>
</mgrwt>
</event>
<event>
 4    1  0.3931501E+006  0.8153099E+01  0.7546771E-02  0.2198379E+00
         21   -1    0    0  501  502  0.00000000000E+00  0.00000000000E+00  0.10846058161E+03  0.10846058161E+03  0.00000000000E+00 0.  1.
         21   -1    0    0  502  503 -0.00000000000E+00 -0.00000000000E+00 -0.75814100451E+00  0.75814100451E+00  0.00000000000E+00 0. -1.
          5    1    1    2  501    0  0.58417113880E+01  0.32027229867E+01  0.77755226271E+02  0.78181508293E+02  0.47000000000E+01 0.  1.
         -5    1    1    2    0  503 -0.58417113880E+01 -0.32027229867E+01  0.29947214338E+02  0.31037214326E+02  0.47000000000E+01 0. -1.
<mgrwt>
<rscale>  2 0.81530992E+01</rscale>
<asrwt>0</asrwt>
<pdfrwt beam="1">  1       21 0.16686231E-01 0.81530992E+01</pdfrwt>
<pdfrwt beam="2">  1       21 0.11663716E-03 0.81530992E+01</pdfrwt>
<totfact> 0.11734363E+09</totfact>
</mgrwt>
</event>
<event>
 4    1  0.3931501E+006  0.7478524E+01  0.7546771E-02  0.2255295E+00
         21   -1    0    0  503  502  0.00000000000E+00  0.00000000000E+00  0.29034206790E+02  0.29034206790E+02  0.00000000000E+00 0. -1.
         21   -1    0    0  501  503 -0.00000000000E+00 -0.00000000000E+00 -0.61741953120E+01  0.61741953120E+01  0.00000000000E+00 0. -1.
          5    1    1    2  501    0  0.50014470277E+01 -0.29704963791E+01 -0.31720337461E+01  0.81234302604E+01  0.47000000000E+01 0. -1.
         -5    1    1    2    0  502 -0.50014470277E+01  0.29704963791E+01  0.26032045225E+02  0.27084971842E+02  0.47000000000E+01 0. -1.
<mgrwt>
<rscale>  2 0.74785240E+01</rscale>
<asrwt>0</asrwt>
<pdfrwt beam="1">  1       21 0.44668010E-02 0.74785240E+01</pdfrwt>
<pdfrwt beam="2">  1       21 0.94987622E-03 0.74785240E+01</pdfrwt>
<totfact> 0.45902710E+08</totfact>
</mgrwt>
</event>
<event>
 4    1  0.3931501E+006  0.8844345E+01  0.7546771E-02  0.2147414E+00
         21   -1    0    0  503  502  0.00000000000E+00  0.00000000000E+00  0.13618123955E+03  0.13618123955E+03  0.00000000000E+00 0. -1.
         21   -1    0    0  501  503 -0.00000000000E+00 -0.00000000000E+00 -0.57504388064E+00  0.57504388064E+00  0.00000000000E+00 0.  1.
          5    1    1    2  501    0 -0.65021860873E+01 -0.37220991584E+01  0.70091924563E+02  0.70647719956E+02  0.47000000000E+01 0.  1.
         -5    1    1    2    0  502  0.65021860873E+01  0.37220991584E+01  0.65514271104E+02  0.66108563472E+02  0.47000000000E+01 0. -1.
<mgrwt>
<rscale>  2 0.88443454E+01</rscale>
<asrwt>0</asrwt>
<pdfrwt beam="1">  1       21 0.20950934E-01 0.88443454E+01</pdfrwt>
<pdfrwt beam="2">  1       21 0.88468398E-04 0.88443454E+01</pdfrwt>
<totfact> 0.12390411E+09</totfact>
</mgrwt>
</event>
<event>
 4    1  0.3931501E+006  0.4766426E+01  0.7546771E-02  0.2610336E+00
         21   -1    0    0  503  502  0.00000000000E+00  0.00000000000E+00  0.33258304758E+00  0.33258304758E+00  0.00000000000E+00 0.  1.
         21   -1    0    0  501  503 -0.00000000000E+00 -0.00000000000E+00 -0.68310319890E+02  0.68310319890E+02  0.00000000000E+00 0.  1.
          5    1    1    2  501    0  0.32015830724E+00 -0.72547482266E+00 -0.34034015200E+02  0.34366160765E+02  0.47000000000E+01 0.  1.
         -5    1    1    2    0  502 -0.32015830724E+00  0.72547482266E+00 -0.33943721642E+02  0.34276742173E+02  0.47000000000E+01 0.  1.
<mgrwt>
<rscale>  2 0.47664258E+01</rscale>
<asrwt>0</asrwt>
<pdfrwt beam="1">  1       21 0.51166659E-04 0.47664258E+01</pdfrwt>
<pdfrwt beam="2">  1       21 0.10509273E-01 0.47664258E+01</pdfrwt>
<totfact> 0.47031107E+09</totfact>
</mgrwt>
</event>
<event>
 4    1  0.3931501E+006  0.4805926E+01  0.7546771E-02  0.2602778E+00
         21   -1    0    0  501  502  0.00000000000E+00  0.00000000000E+00  0.17383295894E+02  0.17383295894E+02  0.00000000000E+00 0. -1.
         21   -1    0    0  502  503 -0.00000000000E+00 -0.00000000000E+00 -0.24105459773E+01  0.24105459773E+01  0.00000000000E+00 0. -1.
          5    1    1    2  501    0  0.95670630107E+00  0.30271879218E+00  0.14116597511E+02  0.14912251704E+02  0.47000000000E+01 0. -1.
         -5    1    1    2    0  503 -0.95670630107E+00 -0.30271879218E+00  0.85615240567E+00  0.48815901667E+01  0.47000000000E+01 0. -1.
<mgrwt>
<rscale>  2 0.48059261E+01</rscale>
<asrwt>0</asrwt>
<pdfrwt beam="1">  1       21 0.26743531E-02 0.48059261E+01</pdfrwt>
<pdfrwt beam="2">  1       21 0.37085324E-03 0.48059261E+01</pdfrwt>
<totfact> 0.24966150E+09</totfact>
</mgrwt>
</event>
<event>
 4    1  0.3931501E+006  0.7724248E+01  0.7546771E-02  0.2233633E+00
         21   -1    0    0  501  502  0.00000000000E+00  0.00000000000E+00  0.42096920858E+02  0.42096920858E+02  0.00000000000E+00 0. -1.
         21   -1    0    0  502  503 -0.00000000000E+00 -0.00000000000E+00 -0.15130446237E+01  0.15130446237E+01  0.00000000000E+00 0. -1.
          5    1    1    2  501    0 -0.26601345217E+01  0.55224709523E+01  0.14806830120E+02  0.16700485600E+02  0.47000000000E+01 0. -1.
         -5    1    1    2    0  503  0.26601345217E+01 -0.55224709523E+01  0.25777046115E+02  0.26909479882E+02  0.47000000000E+01 0. -1.
<mgrwt>
<rscale>  2 0.77242476E+01</rscale>
<asrwt>0</asrwt>
<pdfrwt beam="1">  1       21 0.64764485E-02 0.77242476E+01</pdfrwt>
<pdfrwt beam="2">  1       21 0.23277613E-03 0.77242476E+01</pdfrwt>
<totfact> 0.19334203E+09</totfact>
</mgrwt>
</event>
<event>
 4    1  0.3931501E+006  0.8356832E+01  0.7546771E-02  0.2182658E+00
         21   -1    0    0  503  502  0.00000000000E+00  0.00000000000E+00  0.30575769430E+03  0.30575769430E+03  0.00000000000E+00 0. -1.
         21   -1    0    0  501  503 -0.00000000000E+00 -0.00000000000E+00 -0.90503306517E+00  0.90503306517E+00  0.00000000000E+00 0.  1.
          5    1    1    2  501    0 -0.21845068671E+01 -0.65554986778E+01  0.19847638803E+02  0.21535213006E+02  0.47000000000E+01 0.  1.
         -5    1    1    2    0  502  0.21845068671E+01  0.65554986778E+01  0.28500502243E+03  0.28512751436E+03  0.47000000000E+01 0. -1.
<mgrwt>
<rscale>  2 0.83568315E+01</rscale>
<asrwt>0</asrwt>
<pdfrwt beam="1">  1       21 0.47039563E-01 0.83568315E+01</pdfrwt>
<pdfrwt beam="2">  1       21 0.13923610E-03 0.83568315E+01</pdfrwt>
<totfact> 0.15781160E+08</totfact>
</mgrwt>
</event>
<event>
 4    1  0.3931501E+006  0.5479547E+01  0.7546771E-02  0.2488521E+00
         21   -1    0    0  501  502  0.00000000000E+00  0.00000000000E+00  0.21660817045E+01  0.21660817045E+01  0.00000000000E+00 0. -1.
         21   -1    0    0  502  503 -0.00000000000E+00 -0.00000000000E+00 -0.33801757099E+02  0.33801757099E+02  0.00000000000E+00 0. -1.
          5    1    1    2  501    0  0.63634636327E+00 -0.27441761503E+01 -0.20051374120E+01  0.58348963555E+01  0.47000000000E+01 0. -1.
         -5    1    1    2    0  503 -0.63634636327E+00  0.27441761503E+01 -0.29630537982E+02  0.30132942448E+02  0.47000000000E+01 0. -1.
<mgrwt>
<rscale>  2 0.54795474E+01</rscale>
<asrwt>0</asrwt>
<pdfrwt beam="1">  1       21 0.33324335E-03 0.54795474E+01</pdfrwt>
<pdfrwt beam="2">  1       21 0.52002702E-02 0.54795474E+01</pdfrwt>
<totfact> 0.12511514E+09</totfact>
</mgrwt>
</event>
<event>
 4    1  0.3931501E+006  0.4784916E+01  0.7546771E-02  0.2606785E+00
         21   -1    0    0  501  502  0.00000000000E+00  0.00000000000E+00  0.42488539251E+00  0.42488539251E+00  0.00000000000E+00 0.  1.
         21   -1    0    0  502  503 -0.00000000000E+00 -0.00000000000E+00 -0.13528360773E+04  0.13528360773E+04  0.00000000000E+00 0.  1.
          5    1    1    2  501    0  0.42344902377E+00  0.79127324198E+00 -0.13187806427E+02  0.14029029217E+02  0.47000000000E+01 0.  1.
         -5    1    1    2    0  503 -0.42344902377E+00 -0.79127324198E+00 -0.13392233854E+04  0.13392319334E+04  0.47000000000E+01 0.  1.
<mgrwt>
<rscale>  2 0.47849161E+01</rscale>
<asrwt>0</asrwt>
<pdfrwt beam="1">  1       21 0.65367156E-04 0.47849161E+01</pdfrwt>
<pdfrwt beam="2">  1       21 0.20812808E+00 0.47849161E+01</pdfrwt>
<totfact> 0.16136207E+07</totfact>
</mgrwt>
</event>
<event>
 4    1  0.3931501E+006  0.5994791E+01  0.7546771E-02  0.2416102E+00
         21   -1    0    0  503  502  0.00000000000E+00  0.00000000000E+00  0.13638003781E+03  0.13638003781E+03  0.00000000000E+00 0.  1.
         21   -1    0    0  501  503 -0.00000000000E+00 -0.00000000000E+00 -0.26426102591E+00  0.26426102591E+00  0.00000000000E+00 0. -1.
          5    1    1    2  501    0  0.34657565190E+01  0.13550093656E+01  0.64415880329E+02  0.64694228159E+02  0.47000000000E+01 0. -1.
         -5    1    1    2    0  502 -0.34657565190E+01 -0.13550093656E+01  0.71699896454E+02  0.71950070675E+02  0.47000000000E+01 0.  1.
<mgrwt>
<rscale>  2 0.59947910E+01</rscale>
<asrwt>0</asrwt>
<pdfrwt beam="1">  1       21 0.20981488E-01 0.59947910E+01</pdfrwt>
<pdfrwt beam="2">  1       21 0.40655651E-04 0.59947910E+01</pdfrwt>
<totfact> 0.26841229E+09</totfact>
</mgrwt>
</event>
<event>
 4    1  0.3931501E+006  0.9046779E+01  0.7546771E-02  0.2133675E+00
         21   -1    0    0  501  502  0.00000000000E+00  0.00000000000E+00  0.22368151363E+01  0.22368151363E+01  0.00000000000E+00 0. -1.
         21   -1    0    0  502  503 -0.00000000000E+00 -0.00000000000E+00 -0.48976399879E+02  0.48976399879E+02  0.00000000000E+00 0.  1.
          5    1    1    2  501    0 -0.77291697778E+01  0.11893112894E+00 -0.10492105197E+02  0.13853825520E+02  0.47000000000E+01 0.  1.
         -5    1    1    2    0  503  0.77291697778E+01 -0.11893112894E+00 -0.36247479546E+02  0.37359389496E+02  0.47000000000E+01 0. -1.
<mgrwt>
<rscale>  2 0.90467790E+01</rscale>
<asrwt>0</asrwt>
<pdfrwt beam="1">  1       21 0.34412541E-03 0.90467790E+01</pdfrwt>
<pdfrwt beam="2">  1       21 0.75348306E-02 0.90467790E+01</pdfrwt>
<totfact> 0.98423105E+08</totfact>
</mgrwt>
</event>
<event>
 4    1  0.3931501E+006  0.5557774E+01  0.7546771E-02  0.2476798E+00
         21   -1    0    0  501  502  0.00000000000E+00  0.00000000000E+00  0.23531835073E+01  0.23531835073E+01  0.00000000000E+00 0.  1.
         21   -1    0    0  502  503 -0.00000000000E+00 -0.00000000000E+00 -0.40706113611E+02  0.40706113611E+02  0.00000000000E+00 0.  1.
          5    1    1    2  501    0  0.23770832544E+01 -0.17743541110E+01 -0.14549071351E+01  0.57450510948E+01  0.47000000000E+01 0.  1.
         -5    1    1    2    0  503 -0.23770832544E+01  0.17743541110E+01 -0.36898022969E+02  0.37314246024E+02  0.47000000000E+01 0.  1.
<mgrwt>
<rscale>  2 0.55577745E+01</rscale>
<asrwt>0</asrwt>
<pdfrwt beam="1">  1       21 0.36202826E-03 0.55577745E+01</pdfrwt>
<pdfrwt beam="2">  1       21 0.62624785E-02 0.55577745E+01</pdfrwt>
<totfact> 0.85819346E+08</totfact>
</mgrwt>
</event>
<event>
 4    1  0.3931501E+006  0.6813898E+01  0.7546771E-02  0.2320175E+00
         21   -1    0    0  503  502  0.00000000000E+00  0.00000000000E+00  0.89245717607E+02  0.89245717607E+02  0.00000000000E+00 0.  1.
         21   -1    0    0  501  503 -0.00000000000E+00 -0.00000000000E+00 -0.22805834474E+01  0.22805834474E+01  0.00000000000E+00 0. -1.
          5    1    1    2  501    0  0.20345843566E+01  0.44944048404E+01  0.83688636029E+02  0.83965570377E+02  0.47000000000E+01 0.  1.
         -5    1    1    2    0  502 -0.20345843566E+01 -0.44944048404E+01  0.32764981304E+01  0.75607306771E+01  0.47000000000E+01 0. -1.
<mgrwt>
<rscale>  2 0.68138982E+01</rscale>
<asrwt>0</asrwt>
<pdfrwt beam="1">  1       21 0.13730108E-01 0.68138982E+01</pdfrwt>
<pdfrwt beam="2">  1       21 0.35085906E-03 0.68138982E+01</pdfrwt>
<totfact> 0.31304445E+08</totfact>
</mgrwt>
</event>
<event>
 4    1  0.3931501E+006  0.6339906E+01  0.7546771E-02  0.2373178E+00
         21   -1    0    0  501  502  0.00000000000E+00  0.00000000000E+00  0.57377199714E+02  0.57377199714E+02  0.00000000000E+00 0. -1.
         21   -1    0    0  502  503 -0.00000000000E+00 -0.00000000000E+00 -0.21449977049E+01  0.21449977049E+01  0.00000000000E+00 0. -1.
          5    1    1    2  501    0  0.30174825604E+01 -0.29998670248E+01  0.52038570990E+02  0.52423346649E+02  0.47000000000E+01 0. -1.
         -5    1    1    2    0  503 -0.30174825604E+01  0.29998670248E+01  0.31936310187E+01  0.70988507698E+01  0.47000000000E+01 0. -1.
<mgrwt>
<rscale>  2 0.63399056E+01</rscale>
<asrwt>0</asrwt>
<pdfrwt beam="1">  1       21 0.88272604E-02 0.63399056E+01</pdfrwt>
<pdfrwt beam="2">  1       21 0.32999969E-03 0.63399056E+01</pdfrwt>
<totfact> 0.64421758E+08</totfact>
</mgrwt>
</event>
<event>
 4    1  0.3931501E+006  0.6240002E+01  0.7546771E-02  0.2385196E+00
         21   -1    0    0  503  502  0.00000000000E+00  0.00000000000E+00  0.12916475330E+01  0.12916475330E+01  0.00000000000E+00 0.  1.
         21   -1    0    0  501  503 -0.00000000000E+00 -0.00000000000E+00 -0.21621407603E+03  0.21621407603E+03  0.00000000000E+00 0. -1.
          5    1    1    2  501    0 -0.34847060533E+01  0.21689747454E+01 -0.20834816310E+03  0.20844158581E+03  0.47000000000E+01 0. -1.
         -5    1    1    2    0  502  0.34847060533E+01 -0.21689747454E+01 -0.65742654015E+01  0.90641377579E+01  0.47000000000E+01 0.  1.
<mgrwt>
<rscale>  2 0.62400022E+01</rscale>
<asrwt>0</asrwt>
<pdfrwt beam="1">  1       21 0.19871519E-03 0.62400022E+01</pdfrwt>
<pdfrwt beam="2">  1       21 0.33263672E-01 0.62400022E+01</pdfrwt>
<totfact> 0.15171595E+08</totfact>
</mgrwt>
</event>
<event>
 4    1  0.3931501E+006  0.5143246E+01  0.7546771E-02  0.2542353E+00
         21   -1    0    0  501  502  0.00000000000E+00  0.00000000000E+00  0.35430990185E+00  0.35430990185E+00  0.00000000000E+00 0.  1.
         21   -1    0    0  502  503 -0.00000000000E+00 -0.00000000000E+00 -0.75583360393E+02  0.75583360393E+02  0.00000000000E+00 0.  1.
          5    1    1    2  501    0  0.17827139763E+01 -0.10885355315E+01 -0.33419196068E+02  0.33812655095E+02  0.47000000000E+01 0.  1.
         -5    1    1    2    0  503 -0.17827139763E+01  0.10885355315E+01 -0.41809854424E+02  0.42125015201E+02  0.47000000000E+01 0.  1.
<mgrwt>
<rscale>  2 0.51432459E+01</rscale>
<asrwt>0</asrwt>
<pdfrwt beam="1">  1       21 0.54509203E-04 0.51432459E+01</pdfrwt>
<pdfrwt beam="2">  1       21 0.11628212E-01 0.51432459E+01</pdfrwt>
<totfact> 0.40071625E+09</totfact>
</mgrwt>
</event>
<event>
 4    1  0.3931501E+006  0.5079085E+01  0.7546771E-02  0.2553313E+00
         21   -1    0    0  501  502  0.00000000000E+00  0.00000000000E+00  0.89322010910E+02  0.89322010910E+02  0.00000000000E+00 0.  1.
         21   -1    0    0  502  503 -0.00000000000E+00 -0.00000000000E+00 -0.80719884348E+00  0.80719884348E+00  0.00000000000E+00 0.  1.
          5    1    1    2  501    0  0.19252920890E+01  0.18888912776E-01  0.80371194350E+02  0.80531521702E+02  0.47000000000E+01 0.  1.
         -5    1    1    2    0  503 -0.19252920890E+01 -0.18888912776E-01  0.81436177170E+01  0.95976880518E+01  0.47000000000E+01 0.  1.
<mgrwt>
<rscale>  2 0.50790852E+01</rscale>
<asrwt>0</asrwt>
<pdfrwt beam="1">  1       21 0.13741840E-01 0.50790852E+01</pdfrwt>
<pdfrwt beam="2">  1       21 0.12418451E-03 0.50790852E+01</pdfrwt>
<totfact> 0.10251669E+09</totfact>
</mgrwt>
</event>
<event>
 4    1  0.3931501E+006  0.5668506E+01  0.7546771E-02  0.2460674E+00
         21   -1    0    0  501  502  0.00000000000E+00  0.00000000000E+00  0.19312880680E+02  0.19312880680E+02  0.00000000000E+00 0. -1.
         21   -1    0    0  502  503 -0.00000000000E+00 -0.00000000000E+00 -0.42084069694E+01  0.42084069694E+01  0.00000000000E+00 0.  1.
          5    1    1    2  501    0 -0.10895971239E+01  0.29756911314E+01  0.16697288717E+02  0.17633247293E+02  0.47000000000E+01 0. -1.
         -5    1    1    2    0  503  0.10895971239E+01 -0.29756911314E+01 -0.15928150057E+01  0.58880403569E+01  0.47000000000E+01 0.  1.
<mgrwt>
<rscale>  2 0.56685059E+01</rscale>
<asrwt>0</asrwt>
<pdfrwt beam="1">  1       21 0.29712124E-02 0.56685059E+01</pdfrwt>
<pdfrwt beam="2">  1       21 0.64744723E-03 0.56685059E+01</pdfrwt>
<totfact> 0.11661370E+09</totfact>
</mgrwt>
</event>
<event>
 4    1  0.3931501E+006  0.9538474E+01  0.7546771E-02  0.2102246E+00
         21   -1    0    0  503  502  0.00000000000E+00  0.00000000000E+00  0.25624802254E+02  0.25624802254E+02  0.00000000000E+00 0. -1.
         21   -1    0    0  501  503 -0.00000000000E+00 -0.00000000000E+00 -0.11791395829E+02  0.11791395829E+02  0.00000000000E+00 0.  1.
          5    1    1    2  501    0 -0.77881173441E+01  0.28701431042E+01 -0.87231468169E+01  0.12925779806E+02  0.47000000000E+01 0.  1.
         -5    1    1    2    0  502  0.77881173441E+01 -0.28701431042E+01  0.22556553242E+02  0.24490418276E+02  0.47000000000E+01 0. -1.
<mgrwt>
<rscale>  2 0.95384744E+01</rscale>
<asrwt>0</asrwt>
<pdfrwt beam="1">  1       21 0.39422772E-02 0.95384744E+01</pdfrwt>
<pdfrwt beam="2">  1       21 0.18140609E-02 0.95384744E+01</pdfrwt>
<totfact> 0.25056525E+08</totfact>
</mgrwt>
</event>
<event>
 4    1  0.3931501E+006  0.7960265E+01  0.7546771E-02  0.2213852E+00
         21   -1    0    0  503  502  0.00000000000E+00  0.00000000000E+00  0.33654727254E+02  0.33654727254E+02  0.00000000000E+00 0. -1.
         21   -1    0    0  501  503 -0.00000000000E+00 -0.00000000000E+00 -0.43156330072E+01  0.43156330072E+01  0.00000000000E+00 0.  1.
          5    1    1    2  501    0 -0.25755574280E+01  0.58857725727E+01  0.41521816336E+00  0.79710865612E+01  0.47000000000E+01 0.  1.
         -5    1    1    2    0  502  0.25755574280E+01 -0.58857725727E+01  0.28923876084E+02  0.29999273700E+02  0.47000000000E+01 0. -1.
<mgrwt>
<rscale>  2 0.79602647E+01</rscale>
<asrwt>0</asrwt>
<pdfrwt beam="1">  1       21 0.51776502E-02 0.79602647E+01</pdfrwt>
<pdfrwt beam="2">  1       21 0.66394356E-03 0.79602647E+01</pdfrwt>
<totfact> 0.63766998E+08</totfact>
</mgrwt>
</event>
<event>
 4    1  0.3931501E+006  0.5726630E+01  0.7546771E-02  0.2452422E+00
         21   -1    0    0  501  502  0.00000000000E+00  0.00000000000E+00  0.10756775222E+01  0.10756775222E+01  0.00000000000E+00 0. -1.
         21   -1    0    0  502  503 -0.00000000000E+00 -0.00000000000E+00 -0.32401553065E+02  0.32401553065E+02  0.00000000000E+00 0. -1.
          5    1    1    2  501    0  0.20333387181E+01 -0.25631667320E+01 -0.11594208615E+02  0.12931355824E+02  0.47000000000E+01 0. -1.
         -5    1    1    2    0  503 -0.20333387181E+01  0.25631667320E+01 -0.19731666928E+02  0.20545874763E+02  0.47000000000E+01 0. -1.
<mgrwt>
<rscale>  2 0.57266299E+01</rscale>
<asrwt>0</asrwt>
<pdfrwt beam="1">  1       21 0.16548887E-03 0.57266299E+01</pdfrwt>
<pdfrwt beam="2">  1       21 0.49848537E-02 0.57266299E+01</pdfrwt>
<totfact> 0.35880071E+09</totfact>
</mgrwt>
</event>
<event>
 4    1  0.3931501E+006  0.7400509E+01  0.7546771E-02  0.2262415E+00
         21   -1    0    0  503  502  0.00000000000E+00  0.00000000000E+00  0.90296625875E+01  0.90296625875E+01  0.00000000000E+00 0.  1.
         21   -1    0    0  501  503 -0.00000000000E+00 -0.00000000000E+00 -0.63673295029E+01  0.63673295029E+01  0.00000000000E+00 0. -1.
          5    1    1    2  501    0  0.50428672531E+01 -0.26920289460E+01 -0.34554549573E+00  0.74085714998E+01  0.47000000000E+01 0.  1.
         -5    1    1    2    0  502 -0.50428672531E+01  0.26920289460E+01  0.30078785804E+01  0.79884205906E+01  0.47000000000E+01 0. -1.
<mgrwt>
<rscale>  2 0.74005088E+01</rscale>
<asrwt>0</asrwt>
<pdfrwt beam="1">  1       21 0.13891789E-02 0.74005088E+01</pdfrwt>
<pdfrwt beam="2">  1       21 0.97958916E-03 0.74005088E+01</pdfrwt>
<totfact> 0.24179050E+09</totfact>
</mgrwt>
</event>
<event>
 4    1  0.3931501E+006  0.1006663E+02  0.7546771E-02  0.2071215E+00
         21   -1    0    0  503  502  0.00000000000E+00  0.00000000000E+00  0.22030081699E+01  0.22030081699E+01  0.00000000000E+00 0. -1.
         21   -1    0    0  501  503 -0.00000000000E+00 -0.00000000000E+00 -0.10072513253E+03  0.10072513253E+03  0.00000000000E+00 0. -1.
          5    1    1    2  501    0 -0.88895915125E+01 -0.47145611317E+00 -0.87195259818E+02  0.87774429323E+02  0.47000000000E+01 0. -1.
         -5    1    1    2    0  502  0.88895915125E+01  0.47145611317E+00 -0.11326864537E+02  0.15153711373E+02  0.47000000000E+01 0. -1.
<mgrwt>
<rscale>  2 0.10066633E+02</rscale>
<asrwt>0</asrwt>
<pdfrwt beam="1">  1       21 0.33892436E-03 0.10066633E+02</pdfrwt>
<pdfrwt beam="2">  1       21 0.15496173E-01 0.10066633E+02</pdfrwt>
<totfact> 0.33851298E+08</totfact>
</mgrwt>
</event>
<event>
 4    1  0.3931501E+006  0.5061053E+01  0.7546771E-02  0.2556436E+00
         21   -1    0    0  503  502  0.00000000000E+00  0.00000000000E+00  0.36409131935E+01  0.36409131935E+01  0.00000000000E+00 0.  1.
         21   -1    0    0  501  503 -0.00000000000E+00 -0.00000000000E+00 -0.10210776165E+02  0.10210776165E+02  0.00000000000E+00 0.  1.
          5    1    1    2  501    0  0.14384891901E+01  0.12062381194E+01 -0.71473568538E+01  0.87577949021E+01  0.47000000000E+01 0.  1.
         -5    1    1    2    0  502 -0.14384891901E+01 -0.12062381194E+01  0.57749388211E+00  0.50938944566E+01  0.47000000000E+01 0.  1.
<mgrwt>
<rscale>  2 0.50610534E+01</rscale>
<asrwt>0</asrwt>
<pdfrwt beam="1">  1       21 0.56014050E-03 0.50610534E+01</pdfrwt>
<pdfrwt beam="2">  1       21 0.15708886E-02 0.50610534E+01</pdfrwt>
<totfact> 0.31833213E+09</totfact>
</mgrwt>
</event>
<event>
 4    1  0.3931501E+006  0.6243109E+01  0.7546771E-02  0.2384817E+00
         21   -1    0    0  503  502  0.00000000000E+00  0.00000000000E+00  0.10613585444E+00  0.10613585444E+00  0.00000000000E+00 0. -1.
         21   -1    0    0  501  503 -0.00000000000E+00 -0.00000000000E+00 -0.40837866240E+03  0.40837866240E+03  0.00000000000E+00 0.  1.
          5    1    1    2  501    0  0.34707893191E+01 -0.22000071746E+01 -0.26896764392E+03  0.26904008974E+03  0.47000000000E+01 0.  1.
         -5    1    1    2    0  502 -0.34707893191E+01  0.22000071746E+01 -0.13930488262E+03  0.13944470851E+03  0.47000000000E+01 0. -1.
<mgrwt>
<rscale>  2 0.62431090E+01</rscale>
<asrwt>0</asrwt>
<pdfrwt beam="1">  1       21 0.16328839E-04 0.62431090E+01</pdfrwt>
<pdfrwt beam="2">  1       21 0.62826539E-01 0.62431090E+01</pdfrwt>
<totfact> 0.13996180E+09</totfact>
</mgrwt>
</event>
<event>
 4    1  0.3931501E+006  0.7029023E+01  0.7546771E-02  0.2298078E+00
         21   -1    0    0  503  502  0.00000000000E+00  0.00000000000E+00  0.16686823607E+01  0.16686823607E+01  0.00000000000E+00 0.  1.
         21   -1    0    0  501  503 -0.00000000000E+00 -0.00000000000E+00 -0.10113671124E+03  0.10113671124E+03  0.00000000000E+00 0.  1.
          5    1    1    2  501    0 -0.11999731028E+01 -0.50869659595E+01 -0.92962519406E+02  0.93227877657E+02  0.47000000000E+01 0.  1.
         -5    1    1    2    0  502  0.11999731028E+01  0.50869659595E+01 -0.65055094694E+01  0.95775159398E+01  0.47000000000E+01 0.  1.
<mgrwt>
<rscale>  2 0.70290226E+01</rscale>
<asrwt>0</asrwt>
<pdfrwt beam="1">  1       21 0.25672035E-03 0.70290226E+01</pdfrwt>
<pdfrwt beam="2">  1       21 0.15559495E-01 0.70290226E+01</pdfrwt>
<totfact> 0.40341187E+08</totfact>
</mgrwt>
</event>
<event>
 4    1  0.3931501E+006  0.5705084E+01  0.7546771E-02  0.2455464E+00
         21   -1    0    0  501  502  0.00000000000E+00  0.00000000000E+00  0.10327684967E+01  0.10327684967E+01  0.00000000000E+00 0. -1.
         21   -1    0    0  502  503 -0.00000000000E+00 -0.00000000000E+00 -0.31569234645E+02  0.31569234645E+02  0.00000000000E+00 0.  1.
          5    1    1    2  501    0 -0.29905014671E+01 -0.12308062268E+01 -0.14594298793E+02  0.15669765162E+02  0.47000000000E+01 0. -1.
         -5    1    1    2    0  503  0.29905014671E+01  0.12308062268E+01 -0.15942167356E+02  0.16932237979E+02  0.47000000000E+01 0. -1.
<mgrwt>
<rscale>  2 0.57050840E+01</rscale>
<asrwt>0</asrwt>
<pdfrwt beam="1">  1       21 0.15888742E-03 0.57050840E+01</pdfrwt>
<pdfrwt beam="2">  1       21 0.48568066E-02 0.57050840E+01</pdfrwt>
<totfact> 0.39257976E+09</totfact>
</mgrwt>
</event>
<event>
 4    1  0.3931501E+006  0.9084325E+01  0.7546771E-02  0.2131180E+00
         21   -1    0    0  501  502  0.00000000000E+00  0.00000000000E+00  0.55292304766E+01  0.55292304766E+01  0.00000000000E+00 0.  1.
         21   -1    0    0  502  503 -0.00000000000E+00 -0.00000000000E+00 -0.18550258271E+02  0.18550258271E+02  0.00000000000E+00 0. -1.
          5    1    1    2  501    0  0.75947287192E+01  0.16598360720E+01 -0.11832807313E+02  0.14917784320E+02  0.47000000000E+01 0. -1.
         -5    1    1    2    0  503 -0.75947287192E+01 -0.16598360720E+01 -0.11882204808E+01  0.91617044274E+01  0.47000000000E+01 0.  1.
<mgrwt>
<rscale>  2 0.90843250E+01</rscale>
<asrwt>0</asrwt>
<pdfrwt beam="1">  1       21 0.85065084E-03 0.90843250E+01</pdfrwt>
<pdfrwt beam="2">  1       21 0.28538859E-02 0.90843250E+01</pdfrwt>
<totfact> 0.11891972E+09</totfact>
</mgrwt>
</event>
<event>
 4    1  0.3931501E+006  0.5406972E+01  0.7546771E-02  0.2499654E+00
         21   -1    0    0  501  502  0.00000000000E+00  0.00000000000E+00  0.46240703969E+00  0.46240703969E+00  0.00000000000E+00 0.  1.
         21   -1    0    0  502  503 -0.00000000000E+00 -0.00000000000E+00 -0.65251375353E+02  0.65251375353E+02  0.00000000000E+00 0. -1.
          5    1    1    2  501    0  0.49540359466E+00  0.26267700531E+01 -0.38185706427E+02  0.38566611479E+02  0.47000000000E+01 0. -1.
         -5    1    1    2    0  503 -0.49540359466E+00 -0.26267700531E+01 -0.26603261887E+02  0.27147170914E+02  0.47000000000E+01 0.  1.
<mgrwt>
<rscale>  2 0.54069719E+01</rscale>
<asrwt>0</asrwt>
<pdfrwt beam="1">  1       21 0.71139557E-04 0.54069719E+01</pdfrwt>
<pdfrwt beam="2">  1       21 0.10038671E-01 0.54069719E+01</pdfrwt>
<totfact> 0.36957457E+09</totfact>
</mgrwt>
</event>
<event>
 4    1  0.3931501E+006  0.5892585E+01  0.7546771E-02  0.2429617E+00
         21   -1    0    0  503  502  0.00000000000E+00  0.00000000000E+00  0.27186817738E+01  0.27186817738E+01  0.00000000000E+00 0. -1.
         21   -1    0    0  501  503 -0.00000000000E+00 -0.00000000000E+00 -0.44740231759E+02  0.44740231759E+02  0.00000000000E+00 0. -1.
          5    1    1    2  501    0  0.22420269322E+01 -0.27578742981E+01 -0.41069305288E+02  0.41489883011E+02  0.47000000000E+01 0. -1.
         -5    1    1    2    0  502 -0.22420269322E+01  0.27578742981E+01 -0.95224469703E+00  0.59690305219E+01  0.47000000000E+01 0. -1.
<mgrwt>
<rscale>  2 0.58925848E+01</rscale>
<asrwt>0</asrwt>
<pdfrwt beam="1">  1       21 0.41825876E-03 0.58925848E+01</pdfrwt>
<pdfrwt beam="2">  1       21 0.68831121E-02 0.58925848E+01</pdfrwt>
<totfact> 0.64013809E+08</totfact>
</mgrwt>
</event>
<event>
 4    1  0.3931501E+006  0.7354052E+01  0.7546771E-02  0.2266714E+00
         21   -1    0    0  501  502  0.00000000000E+00  0.00000000000E+00  0.20981968357E+02  0.20981968357E+02  0.00000000000E+00 0.  1.
         21   -1    0    0  502  503 -0.00000000000E+00 -0.00000000000E+00 -0.36792559424E+01  0.36792559424E+01  0.00000000000E+00 0. -1.
          5    1    1    2  501    0  0.48922783498E+01  0.28386069965E+01  0.15398771489E+02  0.17064707454E+02  0.47000000000E+01 0.  1.
         -5    1    1    2    0  503 -0.48922783498E+01 -0.28386069965E+01  0.19039409260E+01  0.75965168454E+01  0.47000000000E+01 0. -1.
<mgrwt>
<rscale>  2 0.73540517E+01</rscale>
<asrwt>0</asrwt>
<pdfrwt beam="1">  1       21 0.32279951E-02 0.73540517E+01</pdfrwt>
<pdfrwt beam="2">  1       21 0.56603939E-03 0.73540517E+01</pdfrwt>
<totfact> 0.15324724E+09</totfact>
</mgrwt>
</event>
<event>
 4    1  0.3931501E+006  0.6905455E+01  0.7546771E-02  0.2310632E+00
         21   -1    0    0  503  502  0.00000000000E+00  0.00000000000E+00  0.25126441238E+00  0.25126441238E+00  0.00000000000E+00 0. -1.
         21   -1    0    0  501  503 -0.00000000000E+00 -0.00000000000E+00 -0.20913365980E+03  0.20913365980E+03  0.00000000000E+00 0. -1.
          5    1    1    2  501    0  0.50427298846E+01 -0.40765866095E+00 -0.13628825889E+03  0.13646308959E+03  0.47000000000E+01 0. -1.
         -5    1    1    2    0  502 -0.50427298846E+01  0.40765866095E+00 -0.72594136494E+02  0.72921834614E+02  0.47000000000E+01 0. -1.
<mgrwt>
<rscale>  2 0.69054551E+01</rscale>
<asrwt>0</asrwt>
<pdfrwt beam="1">  1       21 0.38656155E-04 0.69054551E+01</pdfrwt>
<pdfrwt beam="2">  1       21 0.32174333E-01 0.69054551E+01</pdfrwt>
<totfact> 0.15685530E+09</totfact>
</mgrwt>
</event>
<event>
 4    1  0.3931501E+006  0.5921678E+01  0.7546771E-02  0.2425730E+00
         21   -1    0    0  501  502  0.00000000000E+00  0.00000000000E+00  0.51485018967E+00  0.51485018967E+00  0.00000000000E+00 0.  1.
         21   -1    0    0  502  503 -0.00000000000E+00 -0.00000000000E+00 -0.68204453569E+02  0.68204453569E+02  0.00000000000E+00 0. -1.
          5    1    1    2  501    0 -0.11614116667E+01 -0.34098967162E+01 -0.32563869866E+02  0.33097913730E+02  0.47000000000E+01 0. -1.
         -5    1    1    2    0  503  0.11614116667E+01  0.34098967162E+01 -0.35125733513E+02  0.35621390028E+02  0.47000000000E+01 0.  1.
<mgrwt>
<rscale>  2 0.59216782E+01</rscale>
<asrwt>0</asrwt>
<pdfrwt beam="1">  1       21 0.79207766E-04 0.59216782E+01</pdfrwt>
<pdfrwt beam="2">  1       21 0.10492987E-01 0.59216782E+01</pdfrwt>
<totfact> 0.32467625E+09</totfact>
</mgrwt>
</event>
<event>
 4    1  0.3931501E+006  0.8002084E+01  0.7546771E-02  0.2210445E+00
         21   -1    0    0  503  502  0.00000000000E+00  0.00000000000E+00  0.10818796066E+01  0.10818796066E+01  0.00000000000E+00 0. -1.
         21   -1    0    0  501  503 -0.00000000000E+00 -0.00000000000E+00 -0.77461424098E+02  0.77461424098E+02  0.00000000000E+00 0.  1.
          5    1    1    2  501    0 -0.64627899131E+01 -0.41916699629E+00 -0.57264426512E+02  0.57820825817E+02  0.47000000000E+01 0.  1.
         -5    1    1    2    0  502  0.64627899131E+01  0.41916699629E+00 -0.19115117979E+02  0.20722477888E+02  0.47000000000E+01 0. -1.
<mgrwt>
<rscale>  2 0.80020844E+01</rscale>
<asrwt>0</asrwt>
<pdfrwt beam="1">  1       21 0.16644295E-03 0.80020844E+01</pdfrwt>
<pdfrwt beam="2">  1       21 0.11917147E-01 0.80020844E+01</pdfrwt>
<totfact> 0.12208877E+09</totfact>
</mgrwt>
</event>
<event>
 4    1  0.3931501E+006  0.5225952E+01  0.7546771E-02  0.2528566E+00
         21   -1    0    0  503  502  0.00000000000E+00  0.00000000000E+00  0.29678685135E+02  0.29678685135E+02  0.00000000000E+00 0. -1.
         21   -1    0    0  501  503 -0.00000000000E+00 -0.00000000000E+00 -0.94922215470E+00  0.94922215470E+00  0.00000000000E+00 0. -1.
          5    1    1    2  501    0 -0.20629926164E+01  0.98215718983E+00  0.11687373826E+02  0.12802549677E+02  0.47000000000E+01 0.  1.
         -5    1    1    2    0  502  0.20629926164E+01 -0.98215718983E+00  0.17042089155E+02  0.17825357613E+02  0.47000000000E+01 0.  1.
<mgrwt>
<rscale>  2 0.52259517E+01</rscale>
<asrwt>0</asrwt>
<pdfrwt beam="1">  1       21 0.45659508E-02 0.52259517E+01</pdfrwt>
<pdfrwt beam="2">  1       21 0.14603420E-03 0.52259517E+01</pdfrwt>
<totfact> 0.44258749E+09</totfact>
</mgrwt>
</event>
<event>
 4    1  0.3931501E+006  0.4756446E+01  0.7546771E-02  0.2612263E+00
         21   -1    0    0  503  502  0.00000000000E+00  0.00000000000E+00  0.68746578565E+01  0.68746578565E+01  0.00000000000E+00 0. -1.
         21   -1    0    0  501  503 -0.00000000000E+00 -0.00000000000E+00 -0.34258515813E+02  0.34258515813E+02  0.00000000000E+00 0. -1.
          5    1    1    2  501    0 -0.40052214533E+00  0.61103218709E+00 -0.33245760577E+02  0.33584287616E+02  0.47000000000E+01 0. -1.
         -5    1    1    2    0  502  0.40052214533E+00 -0.61103218709E+00  0.58619026204E+01  0.75488860538E+01  0.47000000000E+01 0. -1.
<mgrwt>
<rscale>  2 0.47564460E+01</rscale>
<asrwt>0</asrwt>
<pdfrwt beam="1">  1       21 0.10576397E-02 0.47564460E+01</pdfrwt>
<pdfrwt beam="2">  1       21 0.52705409E-02 0.47564460E+01</pdfrwt>
<totfact> 0.21985832E+08</totfact>
</mgrwt>
</event>
<event>
 4    1  0.3931501E+006  0.5639473E+01  0.7546771E-02  0.2464850E+00
         21   -1    0    0  501  502  0.00000000000E+00  0.00000000000E+00  0.34077789305E+01  0.34077789305E+01  0.00000000000E+00 0. -1.
         21   -1    0    0  502  503 -0.00000000000E+00 -0.00000000000E+00 -0.10200702501E+02  0.10200702501E+02  0.00000000000E+00 0. -1.
          5    1    1    2  501    0  0.15252429820E+01  0.27179576543E+01 -0.14115838095E+01  0.58134524008E+01  0.47000000000E+01 0. -1.
         -5    1    1    2    0  503 -0.15252429820E+01 -0.27179576543E+01 -0.53813397607E+01  0.77950290304E+01  0.47000000000E+01 0. -1.
<mgrwt>
<rscale>  2 0.56394734E+01</rscale>
<asrwt>0</asrwt>
<pdfrwt beam="1">  1       21 0.52427368E-03 0.56394734E+01</pdfrwt>
<pdfrwt beam="2">  1       21 0.15693388E-02 0.56394734E+01</pdfrwt>
<totfact> 0.38862363E+09</totfact>
</mgrwt>
</event>
<event>
 4    1  0.3931501E+006  0.7002470E+01  0.7546771E-02  0.2300745E+00
         21   -1    0    0  503  502  0.00000000000E+00  0.00000000000E+00  0.92814505778E+00  0.92814505778E+00  0.00000000000E+00 0. -1.
         21   -1    0    0  501  503 -0.00000000000E+00 -0.00000000000E+00 -0.53704442260E+02  0.53704442260E+02  0.00000000000E+00 0. -1.
          5    1    1    2  501    0  0.10508776217E+01  0.50833298860E+01 -0.29872319062E+02  0.30682079992E+02  0.47000000000E+01 0. -1.
         -5    1    1    2    0  502 -0.10508776217E+01 -0.50833298860E+01 -0.22903978141E+02  0.23950507326E+02  0.47000000000E+01 0. -1.
<mgrwt>
<rscale>  2 0.70024700E+01</rscale>
<asrwt>0</asrwt>
<pdfrwt beam="1">  1       21 0.14279154E-03 0.70024700E+01</pdfrwt>
<pdfrwt beam="2">  1       21 0.82622221E-02 0.70024700E+01</pdfrwt>
<totfact> 0.24242134E+09</totfact>
</mgrwt>
</event>
<event>
 4    1  0.3931501E+006  0.4783436E+01  0.7546771E-02  0.2607068E+00
         21   -1    0    0  501  502  0.00000000000E+00  0.00000000000E+00  0.65421814340E+01  0.65421814340E+01  0.00000000000E+00 0.  1.
         21   -1    0    0  502  503 -0.00000000000E+00 -0.00000000000E+00 -0.36047942323E+01  0.36047942323E+01  0.00000000000E+00 0.  1.
          5    1    1    2  501    0  0.45849215124E+00 -0.76226589380E+00  0.23439983404E+01  0.53268745588E+01  0.47000000000E+01 0. -1.
         -5    1    1    2    0  503 -0.45849215124E+00  0.76226589380E+00  0.59338886129E+00  0.48201011075E+01  0.47000000000E+01 0. -1.
<mgrwt>
<rscale>  2 0.47834365E+01</rscale>
<asrwt>0</asrwt>
<pdfrwt beam="1">  1       21 0.10064895E-02 0.47834365E+01</pdfrwt>
<pdfrwt beam="2">  1       21 0.55458373E-03 0.47834365E+01</pdfrwt>
<totfact> 0.56688159E+09</totfact>
</mgrwt>
</event>
<event>
 4    1  0.3931501E+006  0.8073039E+01  0.7546771E-02  0.2204731E+00
         21   -1    0    0  503  502  0.00000000000E+00  0.00000000000E+00  0.51599083736E+02  0.51599083736E+02  0.00000000000E+00 0.  1.
         21   -1    0    0  501  503 -0.00000000000E+00 -0.00000000000E+00 -0.12639743571E+01  0.12639743571E+01  0.00000000000E+00 0.  1.
          5    1    1    2  501    0 -0.44605976097E+01  0.48152903217E+01  0.24465850312E+02  0.25763380667E+02  0.47000000000E+01 0.  1.
         -5    1    1    2    0  502  0.44605976097E+01 -0.48152903217E+01  0.25869259067E+02  0.27099677426E+02  0.47000000000E+01 0.  1.
<mgrwt>
<rscale>  2 0.80730386E+01</rscale>
<asrwt>0</asrwt>
<pdfrwt beam="1">  1       21 0.79383189E-02 0.80730386E+01</pdfrwt>
<pdfrwt beam="2">  1       21 0.19445763E-03 0.80730386E+01</pdfrwt>
<totfact> 0.18707953E+09</totfact>
</mgrwt>
</event>
<event>
 4    1  0.3931501E+006  0.7309482E+01  0.7546771E-02  0.2270880E+00
         21   -1    0    0  503  502  0.00000000000E+00  0.00000000000E+00  0.13531633858E+04  0.13531633858E+04  0.00000000000E+00 0.  1.
         21   -1    0    0  501  503 -0.00000000000E+00 -0.00000000000E+00 -0.40125038653E-01  0.40125038653E-01  0.00000000000E+00 0. -1.
          5    1    1    2  501    0  0.55436125026E+01 -0.77903011563E+00  0.76207053068E+03  0.76210558472E+03  0.47000000000E+01 0.  1.
         -5    1    1    2    0  502 -0.55436125026E+01  0.77903011563E+00  0.59105273009E+03  0.59109792613E+03  0.47000000000E+01 0. -1.
<mgrwt>
<rscale>  2 0.73094820E+01</rscale>
<asrwt>0</asrwt>
<pdfrwt beam="1">  1       21 0.20814244E+00 0.73094820E+01</pdfrwt>
<pdfrwt beam="2">  1       21 0.61741666E-05 0.73094820E+01</pdfrwt>
<totfact> 0.46659360E+08</totfact>
</mgrwt>
</event>
<event>
 4    1  0.3931501E+006  0.5288190E+01  0.7546771E-02  0.2518435E+00
         21   -1    0    0  503  502  0.00000000000E+00  0.00000000000E+00  0.22343211394E+03  0.22343211394E+03  0.00000000000E+00 0.  1.
         21   -1    0    0  501  503 -0.00000000000E+00 -0.00000000000E+00 -0.37714573831E+00  0.37714573831E+00  0.00000000000E+00 0.  1.
          5    1    1    2  501    0  0.21977196909E+01  0.10222412752E+01  0.20057054807E+02  0.20742478072E+02  0.47000000000E+01 0.  1.
         -5    1    1    2    0  502 -0.21977196909E+01 -0.10222412752E+01  0.20299791340E+03  0.20306678161E+03  0.47000000000E+01 0.  1.
<mgrwt>
<rscale>  2 0.52881896E+01</rscale>
<asrwt>0</asrwt>
<pdfrwt beam="1">  1       21 0.34374066E-01 0.52881896E+01</pdfrwt>
<pdfrwt beam="2">  1       21 0.58022600E-04 0.52881896E+01</pdfrwt>
<totfact> 0.66617031E+08</totfact>
</mgrwt>
</event>
<event>
 4    1  0.3931501E+006  0.4800059E+01  0.7546771E-02  0.2603894E+00
         21   -1    0    0  501  502  0.00000000000E+00  0.00000000000E+00  0.12155779197E+01  0.12155779197E+01  0.00000000000E+00 0.  1.
         21   -1    0    0  502  503 -0.00000000000E+00 -0.00000000000E+00 -0.23799790107E+02  0.23799790107E+02  0.00000000000E+00 0.  1.
          5    1    1    2  501    0  0.96849752177E+00 -0.11214906933E+00 -0.56485328201E+01  0.74125898230E+01  0.47000000000E+01 0.  1.
         -5    1    1    2    0  503 -0.96849752177E+00  0.11214906933E+00 -0.16935679367E+02  0.17602778204E+02  0.47000000000E+01 0.  1.
<mgrwt>
<rscale>  2 0.48000588E+01</rscale>
<asrwt>0</asrwt>
<pdfrwt beam="1">  1       21 0.18701199E-03 0.48000588E+01</pdfrwt>
<pdfrwt beam="2">  1       21 0.36615061E-02 0.48000588E+01</pdfrwt>
<totfact> 0.40068003E+09</totfact>
</mgrwt>
</event>
<event>
 4    1  0.3931501E+006  0.4895429E+01  0.7546771E-02  0.2586046E+00
         21   -1    0    0  503  502  0.00000000000E+00  0.00000000000E+00  0.32659049907E+02  0.32659049907E+02  0.00000000000E+00 0. -1.
         21   -1    0    0  501  503 -0.00000000000E+00 -0.00000000000E+00 -0.15604282544E+01  0.15604282544E+01  0.00000000000E+00 0. -1.
          5    1    1    2  501    0  0.12923507026E+01  0.45283262414E+00  0.30962396365E+01  0.57924025767E+01  0.47000000000E+01 0. -1.
         -5    1    1    2    0  502 -0.12923507026E+01 -0.45283262414E+00  0.28002382016E+02  0.28427075585E+02  0.47000000000E+01 0. -1.
<mgrwt>
<rscale>  2 0.48954293E+01</rscale>
<asrwt>0</asrwt>
<pdfrwt beam="1">  1       21 0.50244687E-02 0.48954293E+01</pdfrwt>
<pdfrwt beam="2">  1       21 0.24006591E-03 0.48954293E+01</pdfrwt>
<totfact> 0.18474641E+09</totfact>
</mgrwt>
</event>
<event>
 4    1  0.3931501E+006  0.6623589E+01  0.7546771E-02  0.2340702E+00
         21   -1    0    0  503  502  0.00000000000E+00  0.00000000000E+00  0.57747117235E+01  0.57747117235E+01  0.00000000000E+00 0. -1.
         21   -1    0    0  501  503 -0.00000000000E+00 -0.00000000000E+00 -0.76323096407E+01  0.76323096407E+01  0.00000000000E+00 0. -1.
          5    1    1    2  501    0 -0.43103216265E+01  0.17897085759E+01 -0.13831351445E+01  0.67664608281E+01  0.47000000000E+01 0. -1.
         -5    1    1    2    0  502  0.43103216265E+01 -0.17897085759E+01 -0.47446277263E+00  0.66405605360E+01  0.47000000000E+01 0. -1.
<mgrwt>
<rscale>  2 0.66235889E+01</rscale>
<asrwt>0</asrwt>
<pdfrwt beam="1">  1       21 0.88841719E-03 0.66235889E+01</pdfrwt>
<pdfrwt beam="2">  1       21 0.11742015E-02 0.66235889E+01</pdfrwt>
<totfact> 0.32374374E+09</totfact>
</mgrwt>
</event>
<event>
 4    1  0.3931501E+006  0.5138224E+01  0.7546771E-02  0.2543202E+00
         21   -1    0    0  501  502  0.00000000000E+00  0.00000000000E+00  0.22107543495E+00  0.22107543495E+00  0.00000000000E+00 0. -1.
         21   -1    0    0  502  503 -0.00000000000E+00 -0.00000000000E+00 -0.23511604210E+03  0.23511604210E+03  0.00000000000E+00 0. -1.
          5    1    1    2  501    0  0.78202336371E+00  0.19234820216E+01 -0.34905636789E+02  0.35281791668E+02  0.47000000000E+01 0. -1.
         -5    1    1    2    0  503 -0.78202336371E+00 -0.19234820216E+01 -0.19998932988E+03  0.20005532587E+03  0.47000000000E+01 0. -1.
<mgrwt>
<rscale>  2 0.51382238E+01</rscale>
<asrwt>0</asrwt>
<pdfrwt beam="1">  1       21 0.34011743E-04 0.51382238E+01</pdfrwt>
<pdfrwt beam="2">  1       21 0.36171552E-01 0.51382238E+01</pdfrwt>
<totfact> 0.12118790E+09</totfact>
</mgrwt>
</event>
<event>
 4    1  0.3931501E+006  0.5793167E+01  0.7546771E-02  0.2443146E+00
         21   -1    0    0  501  502  0.00000000000E+00  0.00000000000E+00  0.15549906616E-01  0.15549906616E-01  0.00000000000E+00 0.  1.
         21   -1    0    0  502  503 -0.00000000000E+00 -0.00000000000E+00 -0.21593669728E+04  0.21593669728E+04  0.00000000000E+00 0.  1.
          5    1    1    2  501    0 -0.33832269686E+01  0.15671313199E+00 -0.10552599150E+04  0.10552758165E+04  0.47000000000E+01 0.  1.
         -5    1    1    2    0  503  0.33832269686E+01 -0.15671313199E+00 -0.11040915080E+04  0.11041067062E+04  0.47000000000E+01 0.  1.
<mgrwt>
<rscale>  2 0.57931670E+01</rscale>
<asrwt>0</asrwt>
<pdfrwt beam="1">  1       21 0.23920489E-05 0.57931670E+01</pdfrwt>
<pdfrwt beam="2">  1       21 0.33224425E+00 0.57931670E+01</pdfrwt>
<totfact> 0.47520894E+08</totfact>
</mgrwt>
</event>
<event>
 4    1  0.3931501E+006  0.6001855E+01  0.7546771E-02  0.2415182E+00
         21   -1    0    0  503  502  0.00000000000E+00  0.00000000000E+00  0.43884365746E+00  0.43884365746E+00  0.00000000000E+00 0. -1.
         21   -1    0    0  501  503 -0.00000000000E+00 -0.00000000000E+00 -0.87812571952E+02  0.87812571952E+02  0.00000000000E+00 0.  1.
          5    1    1    2  501    0 -0.63567817869E+00 -0.36780676437E+01 -0.32417042628E+02  0.32967968107E+02  0.47000000000E+01 0.  1.
         -5    1    1    2    0  502  0.63567817869E+00  0.36780676437E+01 -0.54956685667E+02  0.55283447503E+02  0.47000000000E+01 0. -1.
<mgrwt>
<rscale>  2 0.60018554E+01</rscale>
<asrwt>0</asrwt>
<pdfrwt beam="1">  1       21 0.67514362E-04 0.60018554E+01</pdfrwt>
<pdfrwt beam="2">  1       21 0.13509636E-01 0.60018554E+01</pdfrwt>
<totfact> 0.27485458E+09</totfact>
</mgrwt>
</event>
<event>
 4    1  0.3931501E+006  0.5147376E+01  0.7546771E-02  0.2541655E+00
         21   -1    0    0  503  502  0.00000000000E+00  0.00000000000E+00  0.11200640171E+03  0.11200640171E+03  0.00000000000E+00 0.  1.
         21   -1    0    0  501  503 -0.00000000000E+00 -0.00000000000E+00 -0.61425277260E+00  0.61425277260E+00  0.00000000000E+00 0. -1.
          5    1    1    2  501    0 -0.70719783104E+00  0.19761961278E+01  0.11540280485E+02  0.12636200125E+02  0.47000000000E+01 0. -1.
         -5    1    1    2    0  502  0.70719783104E+00 -0.19761961278E+01  0.99851868455E+02  0.99984454361E+02  0.47000000000E+01 0.  1.
<mgrwt>
<rscale>  2 0.51473760E+01</rscale>
<asrwt>0</asrwt>
<pdfrwt beam="1">  1       21 0.17231738E-01 0.51473760E+01</pdfrwt>
<pdfrwt beam="2">  1       21 0.94500516E-04 0.51473760E+01</pdfrwt>
<totfact> 0.10488970E+09</totfact>
</mgrwt>
</event>
<event>
 4    1  0.3931501E+006  0.5994951E+01  0.7546771E-02  0.2416081E+00
         21   -1    0    0  503  502  0.00000000000E+00  0.00000000000E+00  0.68788333788E+03  0.68788333788E+03  0.00000000000E+00 0.  1.
         21   -1    0    0  501  503 -0.00000000000E+00 -0.00000000000E+00 -0.93508478691E-01  0.93508478691E-01  0.00000000000E+00 0.  1.
          5    1    1    2  501    0  0.18752917505E+01 -0.32144552150E+01  0.11539092904E+03  0.11554655316E+03  0.47000000000E+01 0.  1.
         -5    1    1    2    0  502 -0.18752917505E+01  0.32144552150E+01  0.57239890036E+03  0.57243029320E+03  0.47000000000E+01 0.  1.
<mgrwt>
<rscale>  2 0.59949513E+01</rscale>
<asrwt>0</asrwt>
<pdfrwt beam="1">  1       21 0.10582415E+00 0.59949513E+01</pdfrwt>
<pdfrwt beam="2">  1       21 0.14386471E-04 0.59949513E+01</pdfrwt>
<totfact> 0.58154516E+08</totfact>
</mgrwt>
</event>
<event>
 4    1  0.3931501E+006  0.7121482E+01  0.7546771E-02  0.2288918E+00
         21   -1    0    0  503  502  0.00000000000E+00  0.00000000000E+00  0.13299503550E+03  0.13299503550E+03  0.00000000000E+00 0. -1.
         21   -1    0    0  501  503 -0.00000000000E+00 -0.00000000000E+00 -0.10653094049E+01  0.10653094049E+01  0.00000000000E+00 0. -1.
          5    1    1    2  501    0  0.40461130467E+01  0.35006386402E+01  0.12255158463E+02  0.14174075301E+02  0.47000000000E+01 0. -1.
         -5    1    1    2    0  502 -0.40461130467E+01 -0.35006386402E+01  0.11967456764E+03  0.11988626961E+03  0.47000000000E+01 0. -1.
<mgrwt>
<rscale>  2 0.71214817E+01</rscale>
<asrwt>0</asrwt>
<pdfrwt beam="1">  1       21 0.20460762E-01 0.71214817E+01</pdfrwt>
<pdfrwt beam="2">  1       21 0.16389386E-03 0.71214817E+01</pdfrwt>
<totfact> 0.48390433E+08</totfact>
</mgrwt>
</event>
<event>
 4    1  0.3931501E+006  0.6983487E+01  0.7546771E-02  0.2302662E+00
         21   -1    0    0  501  502  0.00000000000E+00  0.00000000000E+00  0.63622857171E-01  0.63622857171E-01  0.00000000000E+00 0. -1.
         21   -1    0    0  502  503 -0.00000000000E+00 -0.00000000000E+00 -0.10259221794E+04  0.10259221794E+04  0.00000000000E+00 0. -1.
          5    1    1    2  501    0 -0.32265121527E+01  0.40334487079E+01 -0.25498306421E+03  0.25507867830E+03  0.47000000000E+01 0. -1.
         -5    1    1    2    0  503  0.32265121527E+01 -0.40334487079E+01 -0.77087549238E+03  0.77090712400E+03  0.47000000000E+01 0. -1.
<mgrwt>
<rscale>  2 0.69834869E+01</rscale>
<asrwt>0</asrwt>
<pdfrwt beam="1">  1       21 0.97872208E-05 0.69834869E+01</pdfrwt>
<pdfrwt beam="2">  1       21 0.15784887E+00 0.69834869E+01</pdfrwt>
<totfact> 0.45717927E+08</totfact>
</mgrwt>
</event>
<event>
 4    1  0.3931501E+006  0.9930958E+01  0.7546771E-02  0.2078938E+00
         21   -1    0    0  503  502  0.00000000000E+00  0.00000000000E+00  0.15444815940E+02  0.15444815940E+02  0.00000000000E+00 0.  1.
         21   -1    0    0  501  503 -0.00000000000E+00 -0.00000000000E+00 -0.68323283347E+01  0.68323283347E+01  0.00000000000E+00 0.  1.
          5    1    1    2  501    0 -0.45645637723E+01  0.74631545347E+01  0.71545232732E+01  0.12239735345E+02  0.47000000000E+01 0.  1.
         -5    1    1    2    0  502  0.45645637723E+01 -0.74631545347E+01  0.14579643323E+01  0.10037408930E+02  0.47000000000E+01 0.  1.
<mgrwt>
<rscale>  2 0.99309576E+01</rscale>
<asrwt>0</asrwt>
<pdfrwt beam="1">  1       21 0.23761255E-02 0.99309576E+01</pdfrwt>
<pdfrwt beam="2">  1       21 0.10511274E-02 0.99309576E+01</pdfrwt>
<totfact> 0.12150680E+09</totfact>
</mgrwt>
</event>
<event>
 4    1  0.3931501E+006  0.5254577E+01  0.7546771E-02  0.2523881E+00
         21   -1    0    0  503  502  0.00000000000E+00  0.00000000000E+00  0.29453147106E+01  0.29453147106E+01  0.00000000000E+00 0.  1.
         21   -1    0    0  501  503 -0.00000000000E+00 -0.00000000000E+00 -0.15225118003E+02  0.15225118003E+02  0.00000000000E+00 0. -1.
          5    1    1    2  501    0  0.95196807206E+00  0.21481009347E+01 -0.11771857457E+02  0.12891361791E+02  0.47000000000E+01 0. -1.
         -5    1    1    2    0  502 -0.95196807206E+00 -0.21481009347E+01 -0.50794583539E+00  0.52790709228E+01  0.47000000000E+01 0.  1.
<mgrwt>
<rscale>  2 0.52545771E+01</rscale>
<asrwt>0</asrwt>
<pdfrwt beam="1">  1       21 0.45312535E-03 0.52545771E+01</pdfrwt>
<pdfrwt beam="2">  1       21 0.23423258E-02 0.52545771E+01</pdfrwt>
<totfact> 0.25099532E+09</totfact>
</mgrwt>
</event>
<event>
 4    1  0.3931501E+006  0.5553601E+01  0.7546771E-02  0.2477417E+00
         21   -1    0    0  503  502  0.00000000000E+00  0.00000000000E+00  0.14884594536E+02  0.14884594536E+02  0.00000000000E+00 0. -1.
         21   -1    0    0  501  503 -0.00000000000E+00 -0.00000000000E+00 -0.21372281748E+01  0.21372281748E+01  0.00000000000E+00 0. -1.
          5    1    1    2  501    0 -0.28701349497E+01  0.71750354232E+00  0.48880597987E+01  0.73983521516E+01  0.47000000000E+01 0. -1.
         -5    1    1    2    0  502  0.28701349497E+01 -0.71750354232E+00  0.78593065625E+01  0.96234705593E+01  0.47000000000E+01 0. -1.
<mgrwt>
<rscale>  2 0.55536012E+01</rscale>
<asrwt>0</asrwt>
<pdfrwt beam="1">  1       21 0.22899376E-02 0.55536012E+01</pdfrwt>
<pdfrwt beam="2">  1       21 0.32880434E-03 0.55536012E+01</pdfrwt>
<totfact> 0.42474988E+09</totfact>
</mgrwt>
</event>
<event>
 4    1  0.3931501E+006  0.6100470E+01  0.7546771E-02  0.2402528E+00
         21   -1    0    0  503  502  0.00000000000E+00  0.00000000000E+00  0.32423157764E+01  0.32423157764E+01  0.00000000000E+00 0. -1.
         21   -1    0    0  501  503 -0.00000000000E+00 -0.00000000000E+00 -0.13628943049E+02  0.13628943049E+02  0.00000000000E+00 0.  1.
          5    1    1    2  501    0 -0.25027493019E+01  0.29769073598E+01 -0.85444140328E+01  0.10498701951E+02  0.47000000000E+01 0.  1.
         -5    1    1    2    0  502  0.25027493019E+01 -0.29769073598E+01 -0.18422132401E+01  0.63725568745E+01  0.47000000000E+01 0. -1.
<mgrwt>
<rscale>  2 0.61004698E+01</rscale>
<asrwt>0</asrwt>
<pdfrwt beam="1">  1       21 0.49881780E-03 0.61004698E+01</pdfrwt>
<pdfrwt beam="2">  1       21 0.20967605E-02 0.61004698E+01</pdfrwt>
<totfact> 0.29543724E+09</totfact>
</mgrwt>
</event>
<event>
 4    1  0.3931501E+006  0.7252866E+01  0.7546771E-02  0.2276232E+00
         21   -1    0    0  501  502  0.00000000000E+00  0.00000000000E+00  0.24908055203E+02  0.24908055203E+02  0.00000000000E+00 0.  1.
         21   -1    0    0  502  503 -0.00000000000E+00 -0.00000000000E+00 -0.26182363332E+01  0.26182363332E+01  0.00000000000E+00 0. -1.
          5    1    1    2  501    0 -0.54218531730E+01 -0.10571520688E+01  0.17197204353E+02  0.18664080472E+02  0.47000000000E+01 0.  1.
         -5    1    1    2    0  503  0.54218531730E+01  0.10571520688E+01  0.50926145176E+01  0.88622110644E+01  0.47000000000E+01 0. -1.
<mgrwt>
<rscale>  2 0.72528658E+01</rscale>
<asrwt>0</asrwt>
<pdfrwt beam="1">  1       21 0.38320083E-02 0.72528658E+01</pdfrwt>
<pdfrwt beam="2">  1       21 0.40280561E-03 0.72528658E+01</pdfrwt>
<totfact> 0.18962897E+09</totfact>
</mgrwt>
</event>
<event>
 4    1  0.3931501E+006  0.5712062E+01  0.7546771E-02  0.2454477E+00
         21   -1    0    0  503  502  0.00000000000E+00  0.00000000000E+00  0.83334404664E-01  0.83334404664E-01  0.00000000000E+00 0. -1.
         21   -1    0    0  501  503 -0.00000000000E+00 -0.00000000000E+00 -0.70946716658E+03  0.70946716658E+03  0.00000000000E+00 0.  1.
          5    1    1    2  501    0  0.23391057047E+01 -0.22508301019E+01 -0.59218994482E+03  0.59221749247E+03  0.47000000000E+01 0.  1.
         -5    1    1    2    0  502 -0.23391057047E+01  0.22508301019E+01 -0.11719388736E+03  0.11733300851E+03  0.47000000000E+01 0. -1.
<mgrwt>
<rscale>  2 0.57120619E+01</rscale>
<asrwt>0</asrwt>
<pdfrwt beam="1">  1       21 0.12820531E-04 0.57120619E+01</pdfrwt>
<pdfrwt beam="2">  1       21 0.10915004E+00 0.57120619E+01</pdfrwt>
<totfact> 0.61588731E+08</totfact>
</mgrwt>
</event>
<event>
 4    1  0.3931501E+006  0.5804419E+01  0.7546771E-02  0.2441596E+00
         21   -1    0    0  503  502  0.00000000000E+00  0.00000000000E+00  0.18043226947E+03  0.18043226947E+03  0.00000000000E+00 0. -1.
         21   -1    0    0  501  503 -0.00000000000E+00 -0.00000000000E+00 -0.18680742866E+00  0.18680742866E+00  0.00000000000E+00 0. -1.
          5    1    1    2  501    0  0.32177822327E+01 -0.11167616752E+01  0.88229756261E+02  0.88420479353E+02  0.47000000000E+01 0. -1.
         -5    1    1    2    0  502 -0.32177822327E+01  0.11167616752E+01  0.92015705781E+02  0.92198597546E+02  0.47000000000E+01 0. -1.
<mgrwt>
<rscale>  2 0.58044189E+01</rscale>
<asrwt>0</asrwt>
<pdfrwt beam="1">  1       21 0.27758671E-01 0.58044189E+01</pdfrwt>
<pdfrwt beam="2">  1       21 0.28739749E-04 0.58044189E+01</pdfrwt>
<totfact> 0.26219882E+09</totfact>
</mgrwt>
</event>
<event>
 4    1  0.3931501E+006  0.1026732E+02  0.7546771E-02  0.2060086E+00
         21   -1    0    0  503  502  0.00000000000E+00  0.00000000000E+00  0.58637084028E+02  0.58637084028E+02  0.00000000000E+00 0.  1.
         21   -1    0    0  501  503 -0.00000000000E+00 -0.00000000000E+00 -0.20929309860E+01  0.20929309860E+01  0.00000000000E+00 0.  1.
          5    1    1    2  501    0  0.90801697426E+01 -0.93721071594E+00  0.16869522761E+02  0.19748383343E+02  0.47000000000E+01 0.  1.
         -5    1    1    2    0  502 -0.90801697426E+01  0.93721071594E+00  0.39674630281E+02  0.40981631671E+02  0.47000000000E+01 0.  1.
<mgrwt>
<rscale>  2 0.10267319E+02</rscale>
<asrwt>0</asrwt>
<pdfrwt beam="1">  1       21 0.90210886E-02 0.10267319E+02</pdfrwt>
<pdfrwt beam="2">  1       21 0.32198943E-03 0.10267319E+02</pdfrwt>
<totfact> 0.87758003E+08</totfact>
</mgrwt>
</event>
<event>
 4    1  0.3931501E+006  0.6342139E+01  0.7546771E-02  0.2372913E+00
         21   -1    0    0  501  502  0.00000000000E+00  0.00000000000E+00  0.32400403400E+02  0.32400403400E+02  0.00000000000E+00 0.  1.
         21   -1    0    0  502  503 -0.00000000000E+00 -0.00000000000E+00 -0.15864948887E+01  0.15864948887E+01  0.00000000000E+00 0.  1.
          5    1    1    2  501    0 -0.38780287111E+01  0.17588700953E+01  0.23332233364E+02  0.24178830502E+02  0.47000000000E+01 0.  1.
         -5    1    1    2    0  503  0.38780287111E+01 -0.17588700953E+01  0.74816751469E+01  0.98080677863E+01  0.47000000000E+01 0.  1.
<mgrwt>
<rscale>  2 0.63421393E+01</rscale>
<asrwt>0</asrwt>
<pdfrwt beam="1">  1       21 0.49846770E-02 0.63421393E+01</pdfrwt>
<pdfrwt beam="2">  1       21 0.24407616E-03 0.63421393E+01</pdfrwt>
<totfact> 0.23103077E+09</totfact>
</mgrwt>
</event>
<event>
 4    1  0.3931501E+006  0.5849835E+01  0.7546771E-02  0.2435387E+00
         21   -1    0    0  503  502  0.00000000000E+00  0.00000000000E+00  0.21526517585E+01  0.21526517585E+01  0.00000000000E+00 0. -1.
         21   -1    0    0  501  503 -0.00000000000E+00 -0.00000000000E+00 -0.16313822159E+02  0.16313822159E+02  0.00000000000E+00 0.  1.
          5    1    1    2  501    0 -0.82345335754E+00  0.33841530350E+01 -0.56045902657E+01  0.81013578641E+01  0.47000000000E+01 0.  1.
         -5    1    1    2    0  502  0.82345335754E+00 -0.33841530350E+01 -0.85565801347E+01  0.10365116053E+02  0.47000000000E+01 0.  1.
<mgrwt>
<rscale>  2 0.58498348E+01</rscale>
<asrwt>0</asrwt>
<pdfrwt beam="1">  1       21 0.33117721E-03 0.58498348E+01</pdfrwt>
<pdfrwt beam="2">  1       21 0.25098187E-02 0.58498348E+01</pdfrwt>
<totfact> 0.38681198E+09</totfact>
</mgrwt>
</event>
<event>
 4    1  0.3931501E+006  0.6474193E+01  0.7546771E-02  0.2357511E+00
         21   -1    0    0  501  502  0.00000000000E+00  0.00000000000E+00  0.24744765628E+03  0.24744765628E+03  0.00000000000E+00 0.  1.
         21   -1    0    0  502  503 -0.00000000000E+00 -0.00000000000E+00 -0.17535976305E+00  0.17535976305E+00  0.00000000000E+00 0. -1.
          5    1    1    2  501    0 -0.33471130647E+01  0.29363252506E+01  0.10079212346E+03  0.10099983823E+03  0.47000000000E+01 0. -1.
         -5    1    1    2    0  503  0.33471130647E+01 -0.29363252506E+01  0.14648017306E+03  0.14662317781E+03  0.47000000000E+01 0.  1.
<mgrwt>
<rscale>  2 0.64741928E+01</rscale>
<asrwt>0</asrwt>
<pdfrwt beam="1">  1       21 0.38068591E-01 0.64741928E+01</pdfrwt>
<pdfrwt beam="2">  1       21 0.26978623E-04 0.64741928E+01</pdfrwt>
<totfact> 0.18138401E+09</totfact>
</mgrwt>
</event>
<event>
 4    1  0.3931501E+006  0.4934738E+01  0.7546771E-02  0.2578863E+00
         21   -1    0    0  501  502  0.00000000000E+00  0.00000000000E+00  0.31135408859E+02  0.31135408859E+02  0.00000000000E+00 0. -1.
         21   -1    0    0  502  503 -0.00000000000E+00 -0.00000000000E+00 -0.10263174201E+01  0.10263174201E+01  0.00000000000E+00 0. -1.
          5    1    1    2  501    0 -0.13406340708E+01 -0.68142166346E+00  0.22898567266E+02  0.23424261312E+02  0.47000000000E+01 0.  1.
         -5    1    1    2    0  503  0.13406340708E+01  0.68142166346E+00  0.72105241730E+01  0.87374649667E+01  0.47000000000E+01 0.  1.
<mgrwt>
<rscale>  2 0.49347376E+01</rscale>
<asrwt>0</asrwt>
<pdfrwt beam="1">  1       21 0.47900622E-02 0.49347376E+01</pdfrwt>
<pdfrwt beam="2">  1       21 0.15789501E-03 0.49347376E+01</pdfrwt>
<totfact> 0.35055250E+09</totfact>
</mgrwt>
</event>
<event>
 4    1  0.3931501E+006  0.6630812E+01  0.7546771E-02  0.2339905E+00
         21   -1    0    0  503  502  0.00000000000E+00  0.00000000000E+00  0.23544940842E+03  0.23544940842E+03  0.00000000000E+00 0. -1.
         21   -1    0    0  501  503 -0.00000000000E+00 -0.00000000000E+00 -0.33500535163E+00  0.33500535163E+00  0.00000000000E+00 0. -1.
          5    1    1    2  501    0 -0.22634433815E+00 -0.46718769613E+01  0.39127595382E+02  0.39685468203E+02  0.47000000000E+01 0. -1.
         -5    1    1    2    0  502  0.22634433815E+00  0.46718769613E+01  0.19598680769E+03  0.19609894557E+03  0.47000000000E+01 0. -1.
<mgrwt>
<rscale>  2 0.66308119E+01</rscale>
<asrwt>0</asrwt>
<pdfrwt beam="1">  1       21 0.36222854E-01 0.66308119E+01</pdfrwt>
<pdfrwt beam="2">  1       21 0.51539473E-04 0.66308119E+01</pdfrwt>
<totfact> 0.84438209E+08</totfact>
</mgrwt>
</event>
<event>
 4    1  0.3931501E+006  0.4977539E+01  0.7546771E-02  0.2571154E+00
         21   -1    0    0  503  502  0.00000000000E+00  0.00000000000E+00  0.57273708246E+03  0.57273708246E+03  0.00000000000E+00 0.  1.
         21   -1    0    0  501  503 -0.00000000000E+00 -0.00000000000E+00 -0.50202865700E-01  0.50202865700E-01  0.00000000000E+00 0.  1.
          5    1    1    2  501    0  0.83502850954E+00  0.14101864516E+01  0.17982932880E+03  0.17989820287E+03  0.47000000000E+01 0.  1.
         -5    1    1    2    0  502 -0.83502850954E+00 -0.14101864516E+01  0.39285755079E+03  0.39288908245E+03  0.47000000000E+01 0.  1.
<mgrwt>
<rscale>  2 0.49775394E+01</rscale>
<asrwt>0</asrwt>
<pdfrwt beam="1">  1       21 0.88108165E-01 0.49775394E+01</pdfrwt>
<pdfrwt beam="2">  1       21 0.77239765E-05 0.49775394E+01</pdfrwt>
<totfact> 0.16711810E+09</totfact>
</mgrwt>
</event>
<event>
 4    1  0.3931501E+006  0.4726569E+01  0.7546771E-02  0.2618073E+00
         21   -1    0    0  503  502  0.00000000000E+00  0.00000000000E+00  0.66487218002E+02  0.66487218002E+02  0.00000000000E+00 0.  1.
         21   -1    0    0  501  503 -0.00000000000E+00 -0.00000000000E+00 -0.17891665820E+01  0.17891665820E+01  0.00000000000E+00 0.  1.
          5    1    1    2  501    0 -0.78182922804E-01  0.49431392174E+00  0.15830184108E+01  0.49846169473E+01  0.47000000000E+01 0.  1.
         -5    1    1    2    0  502  0.78182922804E-01 -0.49431392174E+00  0.63115033010E+02  0.63291767637E+02  0.47000000000E+01 0.  1.
<mgrwt>
<rscale>  2 0.47265695E+01</rscale>
<asrwt>0</asrwt>
<pdfrwt beam="1">  1       21 0.10228801E-01 0.47265695E+01</pdfrwt>
<pdfrwt beam="2">  1       21 0.27525645E-03 0.47265695E+01</pdfrwt>
<totfact> 0.51806366E+08</totfact>
</mgrwt>
</event>
<event>
 4    1  0.3931501E+006  0.1329644E+02  0.7546771E-02  0.1924991E+00
         21   -1    0    0  501  502  0.00000000000E+00  0.00000000000E+00  0.10769992824E+03  0.10769992824E+03  0.00000000000E+00 0. -1.
         21   -1    0    0  502  503 -0.00000000000E+00 -0.00000000000E+00 -0.16511814908E+01  0.16511814908E+01  0.00000000000E+00 0.  1.
          5    1    1    2  501    0  0.12226668005E+02 -0.22833838789E+01  0.57199324728E+02  0.58724424235E+02  0.47000000000E+01 0. -1.
         -5    1    1    2    0  503 -0.12226668005E+02  0.22833838789E+01  0.48849422024E+02  0.50626685498E+02  0.47000000000E+01 0.  1.
<mgrwt>
<rscale>  2 0.13296438E+02</rscale>
<asrwt>0</asrwt>
<pdfrwt beam="1">  1       21 0.16569214E-01 0.13296438E+02</pdfrwt>
<pdfrwt beam="2">  1       21 0.25402801E-03 0.13296438E+02</pdfrwt>
<totfact> 0.52065918E+08</totfact>
</mgrwt>
</event>
<event>
 4    1  0.3931501E+006  0.8397681E+01  0.7546771E-02  0.2179580E+00
         21   -1    0    0  501  502  0.00000000000E+00  0.00000000000E+00  0.45147483004E+01  0.45147483004E+01  0.00000000000E+00 0.  1.
         21   -1    0    0  502  503 -0.00000000000E+00 -0.00000000000E+00 -0.32716503101E+02  0.32716503101E+02  0.00000000000E+00 0.  1.
          5    1    1    2  501    0 -0.11513848158E+01 -0.68633339505E+01 -0.64394859301E+00  0.84223339818E+01  0.47000000000E+01 0.  1.
         -5    1    1    2    0  503  0.11513848158E+01  0.68633339505E+01 -0.27557806208E+02  0.28808917420E+02  0.47000000000E+01 0.  1.
<mgrwt>
<rscale>  2 0.83976806E+01</rscale>
<asrwt>0</asrwt>
<pdfrwt beam="1">  1       21 0.69457668E-03 0.83976806E+01</pdfrwt>
<pdfrwt beam="2">  1       21 0.50333080E-02 0.83976806E+01</pdfrwt>
<totfact> 0.64535213E+08</totfact>
</mgrwt>
</event>
<event>
 4    1  0.3931501E+006  0.6779557E+01  0.7546771E-02  0.2323808E+00
         21   -1    0    0  503  502  0.00000000000E+00  0.00000000000E+00  0.20399262679E+01  0.20399262679E+01  0.00000000000E+00 0. -1.
         21   -1    0    0  501  503 -0.00000000000E+00 -0.00000000000E+00 -0.35194158082E+02  0.35194158082E+02  0.00000000000E+00 0.  1.
          5    1    1    2  501    0 -0.10765224191E+01 -0.47658677627E+01 -0.54100382547E+01  0.86735753855E+01  0.47000000000E+01 0. -1.
         -5    1    1    2    0  502  0.10765224191E+01  0.47658677627E+01 -0.27744193559E+02  0.28560508964E+02  0.47000000000E+01 0.  1.
<mgrwt>
<rscale>  2 0.67795572E+01</rscale>
<asrwt>0</asrwt>
<pdfrwt beam="1">  1       21 0.31383483E-03 0.67795572E+01</pdfrwt>
<pdfrwt beam="2">  1       21 0.54144856E-02 0.67795572E+01</pdfrwt>
<totfact> 0.15224738E+09</totfact>
</mgrwt>
</event>
<event>
 4    1  0.3931501E+006  0.5368996E+01  0.7546771E-02  0.2505582E+00
         21   -1    0    0  503  502  0.00000000000E+00  0.00000000000E+00  0.78197287281E+02  0.78197287281E+02  0.00000000000E+00 0. -1.
         21   -1    0    0  501  503 -0.00000000000E+00 -0.00000000000E+00 -0.10802929740E+01  0.10802929740E+01  0.00000000000E+00 0.  1.
          5    1    1    2  501    0 -0.14094198625E+01  0.21793693097E+01  0.63859216476E+01  0.83430276415E+01  0.47000000000E+01 0. -1.
         -5    1    1    2    0  502  0.14094198625E+01 -0.21793693097E+01  0.70731072660E+02  0.70934552614E+02  0.47000000000E+01 0. -1.
<mgrwt>
<rscale>  2 0.53689957E+01</rscale>
<asrwt>0</asrwt>
<pdfrwt beam="1">  1       21 0.12030347E-01 0.53689957E+01</pdfrwt>
<pdfrwt beam="2">  1       21 0.16619898E-03 0.53689957E+01</pdfrwt>
<totfact> 0.89479254E+08</totfact>
</mgrwt>
</event>
<event>
 4    1  0.3931501E+006  0.5624515E+01  0.7546771E-02  0.2467015E+00
         21   -1    0    0  503  502  0.00000000000E+00  0.00000000000E+00  0.31325846584E+01  0.31325846584E+01  0.00000000000E+00 0.  1.
         21   -1    0    0  501  503 -0.00000000000E+00 -0.00000000000E+00 -0.31485731589E+02  0.31485731589E+02  0.00000000000E+00 0.  1.
          5    1    1    2  501    0 -0.15781528692E+01 -0.26560506724E+01 -0.28442298731E+02  0.28993094501E+02  0.47000000000E+01 0.  1.
         -5    1    1    2    0  502  0.15781528692E+01  0.26560506724E+01  0.89151800114E-01  0.56252217464E+01  0.47000000000E+01 0.  1.
<mgrwt>
<rscale>  2 0.56245152E+01</rscale>
<asrwt>0</asrwt>
<pdfrwt beam="1">  1       21 0.48193608E-03 0.56245152E+01</pdfrwt>
<pdfrwt beam="2">  1       21 0.48439589E-02 0.56245152E+01</pdfrwt>
<totfact> 0.85482451E+08</totfact>
</mgrwt>
</event>
<event>
 4    1  0.3931501E+006  0.7668109E+01  0.7546771E-02  0.2238483E+00
         21   -1    0    0  501  502  0.00000000000E+00  0.00000000000E+00  0.12604469380E+01  0.12604469380E+01  0.00000000000E+00 0. -1.
         21   -1    0    0  502  503 -0.00000000000E+00 -0.00000000000E+00 -0.71835588223E+02  0.71835588223E+02  0.00000000000E+00 0.  1.
          5    1    1    2  501    0 -0.31120905656E+01  0.51985376601E+01 -0.13646950911E+02  0.15653727054E+02  0.47000000000E+01 0. -1.
         -5    1    1    2    0  503  0.31120905656E+01 -0.51985376601E+01 -0.56928190374E+02  0.57442308108E+02  0.47000000000E+01 0.  1.
<mgrwt>
<rscale>  2 0.76681094E+01</rscale>
<asrwt>0</asrwt>
<pdfrwt beam="1">  1       21 0.19391490E-03 0.76681094E+01</pdfrwt>
<pdfrwt beam="2">  1       21 0.11051630E-01 0.76681094E+01</pdfrwt>
<totfact> 0.10827479E+09</totfact>
</mgrwt>
</event>
<event>
 4    1  0.3931501E+006  0.7243103E+01  0.7546771E-02  0.2277162E+00
         21   -1    0    0  503  502  0.00000000000E+00  0.00000000000E+00  0.10728905213E+01  0.10728905213E+01  0.00000000000E+00 0.  1.
         21   -1    0    0  501  503 -0.00000000000E+00 -0.00000000000E+00 -0.49918291932E+02  0.49918291932E+02  0.00000000000E+00 0. -1.
          5    1    1    2  501    0  0.52136089686E+01  0.17862856760E+01 -0.28067143464E+02  0.28986670682E+02  0.47000000000E+01 0. -1.
         -5    1    1    2    0  502 -0.52136089686E+01 -0.17862856760E+01 -0.20778257946E+02  0.22004511771E+02  0.47000000000E+01 0. -1.
<mgrwt>
<rscale>  2 0.72431026E+01</rscale>
<asrwt>0</asrwt>
<pdfrwt beam="1">  1       21 0.16506012E-03 0.72431026E+01</pdfrwt>
<pdfrwt beam="2">  1       21 0.76797352E-02 0.72431026E+01</pdfrwt>
<totfact> 0.22819725E+09</totfact>
</mgrwt>
</event>
<event>
 4    1  0.3931501E+006  0.4733263E+01  0.7546771E-02  0.2616765E+00
         21   -1    0    0  503  502  0.00000000000E+00  0.00000000000E+00  0.17960074318E+03  0.17960074318E+03  0.00000000000E+00 0.  1.
         21   -1    0    0  501  503 -0.00000000000E+00 -0.00000000000E+00 -0.29003322232E+00  0.29003322232E+00  0.00000000000E+00 0.  1.
          5    1    1    2  501    0  0.41168702843E+00 -0.37986307414E+00  0.21753798392E+02  0.22262783443E+02  0.47000000000E+01 0.  1.
         -5    1    1    2    0  502 -0.41168702843E+00  0.37986307414E+00  0.15755691157E+03  0.15762799296E+03  0.47000000000E+01 0.  1.
<mgrwt>
<rscale>  2 0.47332634E+01</rscale>
<asrwt>0</asrwt>
<pdfrwt beam="1">  1       21 0.27630795E-01 0.47332634E+01</pdfrwt>
<pdfrwt beam="2">  1       21 0.44620639E-04 0.47332634E+01</pdfrwt>
<totfact> 0.12314702E+09</totfact>
</mgrwt>
</event>
<event>
 4    1  0.3931501E+006  0.6920065E+01  0.7546771E-02  0.2309129E+00
         21   -1    0    0  503  502  0.00000000000E+00  0.00000000000E+00  0.14253533611E+01  0.14253533611E+01  0.00000000000E+00 0. -1.
         21   -1    0    0  501  503 -0.00000000000E+00 -0.00000000000E+00 -0.53293627549E+02  0.53293627549E+02  0.00000000000E+00 0.  1.
          5    1    1    2  501    0  0.42720281240E+01 -0.27471942529E+01 -0.93012135260E+01  0.11593095946E+02  0.47000000000E+01 0. -1.
         -5    1    1    2    0  502 -0.42720281240E+01  0.27471942529E+01 -0.42567060662E+02  0.43125884964E+02  0.47000000000E+01 0.  1.
<mgrwt>
<rscale>  2 0.69200651E+01</rscale>
<asrwt>0</asrwt>
<pdfrwt beam="1">  1       21 0.21928517E-03 0.69200651E+01</pdfrwt>
<pdfrwt beam="2">  1       21 0.81990183E-02 0.69200651E+01</pdfrwt>
<totfact> 0.13513637E+09</totfact>
</mgrwt>
</event>
<event>
 4    1  0.3931501E+006  0.5892328E+01  0.7546771E-02  0.2429651E+00
         21   -1    0    0  501  502  0.00000000000E+00  0.00000000000E+00  0.18563420401E+03  0.18563420401E+03  0.00000000000E+00 0. -1.
         21   -1    0    0  502  503 -0.00000000000E+00 -0.00000000000E+00 -0.30053560282E+00  0.30053560282E+00  0.00000000000E+00 0. -1.
          5    1    1    2  501    0  0.34752769109E+01 -0.74295570417E+00  0.14979988847E+03  0.14991573005E+03  0.47000000000E+01 0. -1.
         -5    1    1    2    0  503 -0.34752769109E+01  0.74295570417E+00  0.35533779938E+02  0.36019009557E+02  0.47000000000E+01 0. -1.
<mgrwt>
<rscale>  2 0.58923283E+01</rscale>
<asrwt>0</asrwt>
<pdfrwt beam="1">  1       21 0.28559017E-01 0.58923283E+01</pdfrwt>
<pdfrwt beam="2">  1       21 0.46236395E-04 0.58923283E+01</pdfrwt>
<totfact> 0.13419822E+09</totfact>
</mgrwt>
</event>
<event>
 4    1  0.3931501E+006  0.5713814E+01  0.7546771E-02  0.2454229E+00
         21   -1    0    0  501  502  0.00000000000E+00  0.00000000000E+00  0.81154112404E+00  0.81154112404E+00  0.00000000000E+00 0.  1.
         21   -1    0    0  502  503 -0.00000000000E+00 -0.00000000000E+00 -0.73335678676E+02  0.73335678676E+02  0.00000000000E+00 0.  1.
          5    1    1    2  501    0  0.11153079045E+01 -0.30518451988E+01 -0.11352652742E+02  0.12709460851E+02  0.47000000000E+01 0.  1.
         -5    1    1    2    0  503 -0.11153079045E+01  0.30518451988E+01 -0.61171484811E+02  0.61437758950E+02  0.47000000000E+01 0.  1.
<mgrwt>
<rscale>  2 0.57138140E+01</rscale>
<asrwt>0</asrwt>
<pdfrwt beam="1">  1       21 0.12485243E-03 0.57138140E+01</pdfrwt>
<pdfrwt beam="2">  1       21 0.11282416E-01 0.57138140E+01</pdfrwt>
<totfact> 0.15295265E+09</totfact>
</mgrwt>
</event>
<event>
 4    1  0.3931501E+006  0.1195398E+02  0.7546771E-02  0.1978321E+00
         21   -1    0    0  501  502  0.00000000000E+00  0.00000000000E+00  0.39650185797E+03  0.39650185797E+03  0.00000000000E+00 0.  1.
         21   -1    0    0  502  503 -0.00000000000E+00 -0.00000000000E+00 -0.45699546494E+00  0.45699546494E+00  0.00000000000E+00 0. -1.
          5    1    1    2  501    0  0.10417731850E+02 -0.35040536155E+01  0.28927556565E+03  0.28952245234E+03  0.47000000000E+01 0.  1.
         -5    1    1    2    0  503 -0.10417731850E+02  0.35040536155E+01  0.10676929685E+03  0.10743640109E+03  0.47000000000E+01 0. -1.
<mgrwt>
<rscale>  2 0.11953975E+02</rscale>
<asrwt>0</asrwt>
<pdfrwt beam="1">  1       21 0.61000011E-01 0.11953975E+02</pdfrwt>
<pdfrwt beam="2">  1       21 0.70307312E-04 0.11953975E+02</pdfrwt>
<totfact> 0.29258814E+08</totfact>
</mgrwt>
</event>
<event>
 4    1  0.3931501E+006  0.8224966E+01  0.7546771E-02  0.2192762E+00
         21   -1    0    0  501  502  0.00000000000E+00  0.00000000000E+00  0.23713099246E+00  0.23713099246E+00  0.00000000000E+00 0.  1.
         21   -1    0    0  502  503 -0.00000000000E+00 -0.00000000000E+00 -0.38877685015E+03  0.38877685015E+03  0.00000000000E+00 0. -1.
          5    1    1    2  501    0  0.41101137992E+00  0.67372941131E+01 -0.93915373866E+02  0.94274850892E+02  0.47000000000E+01 0.  1.
         -5    1    1    2    0  503 -0.41101137992E+00 -0.67372941131E+01 -0.29462434529E+03  0.29473913025E+03  0.47000000000E+01 0. -1.
<mgrwt>
<rscale>  2 0.82249658E+01</rscale>
<asrwt>0</asrwt>
<pdfrwt beam="1">  1       21 0.36481735E-04 0.82249658E+01</pdfrwt>
<pdfrwt beam="2">  1       21 0.59811751E-01 0.82249658E+01</pdfrwt>
<totfact> 0.62101620E+08</totfact>
</mgrwt>
</event>
<event>
 4    1  0.3931501E+006  0.5642348E+01  0.7546771E-02  0.2464435E+00
         21   -1    0    0  503  502  0.00000000000E+00  0.00000000000E+00  0.50553825386E+01  0.50553825386E+01  0.00000000000E+00 0.  1.
         21   -1    0    0  501  503 -0.00000000000E+00 -0.00000000000E+00 -0.63030467561E+01  0.63030467561E+01  0.00000000000E+00 0. -1.
          5    1    1    2  501    0  0.29254122343E+01 -0.10899785078E+01 -0.45481343192E+00  0.56606488273E+01  0.47000000000E+01 0. -1.
         -5    1    1    2    0  502 -0.29254122343E+01  0.10899785078E+01 -0.79285078556E+00  0.56977804675E+01  0.47000000000E+01 0. -1.
<mgrwt>
<rscale>  2 0.56423479E+01</rscale>
<asrwt>0</asrwt>
<pdfrwt beam="1">  1       21 0.77775116E-03 0.56423479E+01</pdfrwt>
<pdfrwt beam="2">  1       21 0.96969950E-03 0.56423479E+01</pdfrwt>
<totfact> 0.44337133E+09</totfact>
</mgrwt>
</event>
<event>
 4    1  0.3931501E+006  0.8541774E+01  0.7546771E-02  0.2168910E+00
         21   -1    0    0  501  502  0.00000000000E+00  0.00000000000E+00  0.46953136261E+01  0.46953136261E+01  0.00000000000E+00 0.  1.
         21   -1    0    0  502  503 -0.00000000000E+00 -0.00000000000E+00 -0.67653594353E+02  0.67653594353E+02  0.00000000000E+00 0.  1.
          5    1    1    2  501    0 -0.18772982747E+01 -0.68809637519E+01  0.27021828089E+00  0.85460475593E+01  0.47000000000E+01 0.  1.
         -5    1    1    2    0  503  0.18772982747E+01  0.68809637519E+01 -0.63228499008E+02  0.63802860420E+02  0.47000000000E+01 0.  1.
<mgrwt>
<rscale>  2 0.85417745E+01</rscale>
<asrwt>0</asrwt>
<pdfrwt beam="1">  1       21 0.72235597E-03 0.85417745E+01</pdfrwt>
<pdfrwt beam="2">  1       21 0.10408245E-01 0.85417745E+01</pdfrwt>
<totfact> 0.20067284E+08</totfact>
</mgrwt>
</event>
<event>
 4    1  0.3931501E+006  0.5618629E+01  0.7546771E-02  0.2467870E+00
         21   -1    0    0  501  502  0.00000000000E+00  0.00000000000E+00  0.59666400454E+02  0.59666400454E+02  0.00000000000E+00 0.  1.
         21   -1    0    0  502  503 -0.00000000000E+00 -0.00000000000E+00 -0.53568068330E+00  0.53568068330E+00  0.00000000000E+00 0.  1.
          5    1    1    2  501    0  0.29979151673E+01 -0.70107127885E+00  0.32903758950E+02  0.33380029199E+02  0.47000000000E+01 0.  1.
         -5    1    1    2    0  503 -0.29979151673E+01  0.70107127885E+00  0.26226960820E+02  0.26822051938E+02  0.47000000000E+01 0.  1.
<mgrwt>
<rscale>  2 0.56186294E+01</rscale>
<asrwt>0</asrwt>
<pdfrwt beam="1">  1       21 0.91794410E-02 0.56186294E+01</pdfrwt>
<pdfrwt beam="2">  1       21 0.82412460E-04 0.56186294E+01</pdfrwt>
<totfact> 0.36055472E+09</totfact>
</mgrwt>
</event>
<event>
 4    1  0.3931501E+006  0.4762335E+01  0.7546771E-02  0.2611125E+00
         21   -1    0    0  503  502  0.00000000000E+00  0.00000000000E+00  0.45719291932E+00  0.45719291932E+00  0.00000000000E+00 0.  1.
         21   -1    0    0  501  503 -0.00000000000E+00 -0.00000000000E+00 -0.22319345227E+03  0.22319345227E+03  0.00000000000E+00 0.  1.
          5    1    1    2  501    0  0.62700702510E+00 -0.44350032669E+00 -0.20998647881E+03  0.21004047495E+03  0.47000000000E+01 0.  1.
         -5    1    1    2    0  502 -0.62700702510E+00  0.44350032669E+00 -0.12749780536E+02  0.13610170244E+02  0.47000000000E+01 0.  1.
<mgrwt>
<rscale>  2 0.47623345E+01</rscale>
<asrwt>0</asrwt>
<pdfrwt beam="1">  1       21 0.70337523E-04 0.47623345E+01</pdfrwt>
<pdfrwt beam="2">  1       21 0.34337381E-01 0.47623345E+01</pdfrwt>
<totfact> 0.47358561E+08</totfact>
</mgrwt>
</event>
<event>
 4    1  0.3931501E+006  0.5342486E+01  0.7546771E-02  0.2509762E+00
         21   -1    0    0  503  502  0.00000000000E+00  0.00000000000E+00  0.19948795392E+02  0.19948795392E+02  0.00000000000E+00 0. -1.
         21   -1    0    0  501  503 -0.00000000000E+00 -0.00000000000E+00 -0.15912487352E+01  0.15912487352E+01  0.00000000000E+00 0. -1.
          5    1    1    2  501    0 -0.80024400648E-01 -0.25388483915E+01  0.57585446409E+01  0.78551251703E+01  0.47000000000E+01 0. -1.
         -5    1    1    2    0  502  0.80024400648E-01  0.25388483915E+01  0.12599002016E+02  0.13684918957E+02  0.47000000000E+01 0. -1.
<mgrwt>
<rscale>  2 0.53424859E+01</rscale>
<asrwt>0</asrwt>
<pdfrwt beam="1">  1       21 0.30690453E-02 0.53424859E+01</pdfrwt>
<pdfrwt beam="2">  1       21 0.24480751E-03 0.53424859E+01</pdfrwt>
<totfact> 0.40138688E+09</totfact>
</mgrwt>
</event>
<event>
 4    1  0.3931501E+006  0.5313416E+01  0.7546771E-02  0.2514387E+00
         21   -1    0    0  503  502  0.00000000000E+00  0.00000000000E+00  0.29658378667E+01  0.29658378667E+01  0.00000000000E+00 0. -1.
         21   -1    0    0  501  503 -0.00000000000E+00 -0.00000000000E+00 -0.10967427934E+03  0.10967427934E+03  0.00000000000E+00 0. -1.
          5    1    1    2  501    0  0.34009137649E+00  0.24549404377E+01 -0.10717465525E+03  0.10730628650E+03  0.47000000000E+01 0. -1.
         -5    1    1    2    0  502 -0.34009137649E+00 -0.24549404377E+01  0.46621377790E+00  0.53338307044E+01  0.47000000000E+01 0. -1.
<mgrwt>
<rscale>  2 0.53134165E+01</rscale>
<asrwt>0</asrwt>
<pdfrwt beam="1">  1       21 0.45628274E-03 0.53134165E+01</pdfrwt>
<pdfrwt beam="2">  1       21 0.16872966E-01 0.53134165E+01</pdfrwt>
<totfact> 0.13254504E+08</totfact>
</mgrwt>
</event>
<event>
 4    1  0.3931501E+006  0.1738886E+02  0.7546771E-02  0.1802867E+00
         21   -1    0    0  503  502  0.00000000000E+00  0.00000000000E+00  0.86479250859E+00  0.86479250859E+00  0.00000000000E+00 0. -1.
         21   -1    0    0  501  503 -0.00000000000E+00 -0.00000000000E+00 -0.35068257129E+03  0.35068257129E+03  0.00000000000E+00 0.  1.
          5    1    1    2  501    0  0.16700429863E+02  0.11738827670E+01 -0.16535840009E+03  0.16627018025E+03  0.47000000000E+01 0. -1.
         -5    1    1    2    0  502 -0.16700429863E+02 -0.11738827670E+01 -0.18445937869E+03  0.18527718355E+03  0.47000000000E+01 0.  1.
<mgrwt>
<rscale>  2 0.17388857E+02</rscale>
<asrwt>0</asrwt>
<pdfrwt beam="1">  1       21 0.13304474E-03 0.17388857E+02</pdfrwt>
<pdfrwt beam="2">  1       21 0.53951271E-01 0.17388857E+02</pdfrwt>
<totfact> 0.17449334E+08</totfact>
</mgrwt>
</event>
<event>
 4    1  0.3931501E+006  0.1128706E+02  0.7546771E-02  0.2008379E+00
         21   -1    0    0  501  502  0.00000000000E+00  0.00000000000E+00  0.25677654317E+00  0.25677654317E+00  0.00000000000E+00 0.  1.
         21   -1    0    0  502  503 -0.00000000000E+00 -0.00000000000E+00 -0.81364312985E+03  0.81364312985E+03  0.00000000000E+00 0. -1.
          5    1    1    2  501    0 -0.98982048822E+01 -0.27079860444E+01 -0.15248085051E+03  0.15289802949E+03  0.47000000000E+01 0.  1.
         -5    1    1    2    0  503  0.98982048822E+01  0.27079860444E+01 -0.66090550280E+03  0.66100187691E+03  0.47000000000E+01 0. -1.
<mgrwt>
<rscale>  2 0.11287057E+02</rscale>
<asrwt>0</asrwt>
<pdfrwt beam="1">  1       21 0.39504137E-04 0.11287057E+02</pdfrwt>
<pdfrwt beam="2">  1       21 0.12517570E+00 0.11287057E+02</pdfrwt>
<totfact> 0.14362107E+08</totfact>
</mgrwt>
</event>
<event>
 4    1  0.3931501E+006  0.5968030E+01  0.7546771E-02  0.2419603E+00
         21   -1    0    0  503  502  0.00000000000E+00  0.00000000000E+00  0.46989102013E+03  0.46989102013E+03  0.00000000000E+00 0. -1.
         21   -1    0    0  501  503 -0.00000000000E+00 -0.00000000000E+00 -0.10008093237E+01  0.10008093237E+01  0.00000000000E+00 0. -1.
          5    1    1    2  501    0 -0.33854303305E+01 -0.14374420563E+01  0.80908187322E+01  0.10053791620E+02  0.47000000000E+01 0. -1.
         -5    1    1    2    0  502  0.33854303305E+01  0.14374420563E+01  0.46079939208E+03  0.46083803784E+03  0.47000000000E+01 0. -1.
<mgrwt>
<rscale>  2 0.59680297E+01</rscale>
<asrwt>0</asrwt>
<pdfrwt beam="1">  1       21 0.72290750E-01 0.59680297E+01</pdfrwt>
<pdfrwt beam="2">  1       21 0.15397104E-03 0.59680297E+01</pdfrwt>
<totfact> 0.51579160E+07</totfact>
</mgrwt>
</event>
<event>
 4    1  0.3931501E+006  0.4998804E+01  0.7546771E-02  0.2567366E+00
         21   -1    0    0  501  502  0.00000000000E+00  0.00000000000E+00  0.13747649802E+00  0.13747649802E+00  0.00000000000E+00 0.  1.
         21   -1    0    0  502  503 -0.00000000000E+00 -0.00000000000E+00 -0.18307217927E+03  0.18307217927E+03  0.00000000000E+00 0.  1.
          5    1    1    2  501    0  0.14298638986E+01 -0.92386974048E+00 -0.99215909688E+02  0.99341757491E+02  0.47000000000E+01 0.  1.
         -5    1    1    2    0  503 -0.14298638986E+01  0.92386974048E+00 -0.83718793082E+02  0.83867898276E+02  0.47000000000E+01 0.  1.
<mgrwt>
<rscale>  2 0.49988045E+01</rscale>
<asrwt>0</asrwt>
<pdfrwt beam="1">  1       21 0.21150304E-04 0.49988045E+01</pdfrwt>
<pdfrwt beam="2">  1       21 0.28164852E-01 0.49988045E+01</pdfrwt>
<totfact> 0.33718719E+09</totfact>
</mgrwt>
</event>
<event>
 4    1  0.3931501E+006  0.7600168E+01  0.7546771E-02  0.2244429E+00
         21   -1    0    0  503  502  0.00000000000E+00  0.00000000000E+00  0.25946406802E+02  0.25946406802E+02  0.00000000000E+00 0.  1.
         21   -1    0    0  501  503 -0.00000000000E+00 -0.00000000000E+00 -0.32677870880E+01  0.32677870880E+01  0.00000000000E+00 0. -1.
          5    1    1    2  501    0 -0.32505077684E+01  0.50106642752E+01  0.30926235561E+01  0.82052957102E+01  0.47000000000E+01 0. -1.
         -5    1    1    2    0  502  0.32505077684E+01 -0.50106642752E+01  0.19585996158E+02  0.21008898180E+02  0.47000000000E+01 0.  1.
<mgrwt>
<rscale>  2 0.76001682E+01</rscale>
<asrwt>0</asrwt>
<pdfrwt beam="1">  1       21 0.39917547E-02 0.76001682E+01</pdfrwt>
<pdfrwt beam="2">  1       21 0.50273649E-03 0.76001682E+01</pdfrwt>
<totfact> 0.13532519E+09</totfact>
</mgrwt>
</event>
<event>
 4    1  0.3931501E+006  0.5621046E+01  0.7546771E-02  0.2467519E+00
         21   -1    0    0  503  502  0.00000000000E+00  0.00000000000E+00  0.77500701186E+01  0.77500701186E+01  0.00000000000E+00 0. -1.
         21   -1    0    0  501  503 -0.00000000000E+00 -0.00000000000E+00 -0.68783260567E+01  0.68783260567E+01  0.00000000000E+00 0. -1.
          5    1    1    2  501    0  0.27926466174E+00 -0.30705323579E+01 -0.42319678702E+01  0.70360294035E+01  0.47000000000E+01 0. -1.
         -5    1    1    2    0  502 -0.27926466174E+00  0.30705323579E+01  0.51037119320E+01  0.75923667718E+01  0.47000000000E+01 0. -1.
<mgrwt>
<rscale>  2 0.56210460E+01</rscale>
<asrwt>0</asrwt>
<pdfrwt beam="1">  1       21 0.11923185E-02 0.56210460E+01</pdfrwt>
<pdfrwt beam="2">  1       21 0.10582040E-02 0.56210460E+01</pdfrwt>
<totfact> 0.21446388E+09</totfact>
</mgrwt>
</event>
<event>
 4    1  0.3931501E+006  0.9836849E+01  0.7546771E-02  0.2084393E+00
         21   -1    0    0  503  502  0.00000000000E+00  0.00000000000E+00  0.23058747872E+01  0.23058747872E+01  0.00000000000E+00 0.  1.
         21   -1    0    0  501  503 -0.00000000000E+00 -0.00000000000E+00 -0.43444035424E+02  0.43444035424E+02  0.00000000000E+00 0. -1.
          5    1    1    2  501    0  0.86322117796E+01  0.39815078468E+00 -0.24791284187E+02  0.26671546185E+02  0.47000000000E+01 0.  1.
         -5    1    1    2    0  502 -0.86322117796E+01 -0.39815078468E+00 -0.16346876449E+02  0.19078364026E+02  0.47000000000E+01 0. -1.
<mgrwt>
<rscale>  2 0.98368493E+01</rscale>
<asrwt>0</asrwt>
<pdfrwt beam="1">  1       21 0.35474998E-03 0.98368493E+01</pdfrwt>
<pdfrwt beam="2">  1       21 0.66836976E-02 0.98368493E+01</pdfrwt>
<totfact> 0.11942025E+09</totfact>
</mgrwt>
</event>
<event>
 4    1  0.3931501E+006  0.5537554E+01  0.7546771E-02  0.2479802E+00
         21   -1    0    0  501  502  0.00000000000E+00  0.00000000000E+00  0.30182400730E+00  0.30182400730E+00  0.00000000000E+00 0. -1.
         21   -1    0    0  502  503 -0.00000000000E+00 -0.00000000000E+00 -0.20473400455E+03  0.20473400455E+03  0.00000000000E+00 0. -1.
          5    1    1    2  501    0  0.25394049875E+01 -0.14580553437E+01 -0.29452954906E+02  0.29969001581E+02  0.47000000000E+01 0. -1.
         -5    1    1    2    0  503 -0.25394049875E+01  0.14580553437E+01 -0.17497922564E+03  0.17506682698E+03  0.47000000000E+01 0. -1.
<mgrwt>
<rscale>  2 0.55375539E+01</rscale>
<asrwt>0</asrwt>
<pdfrwt beam="1">  1       21 0.46434365E-04 0.55375539E+01</pdfrwt>
<pdfrwt beam="2">  1       21 0.31497605E-01 0.55375539E+01</pdfrwt>
<totfact> 0.10778519E+09</totfact>
</mgrwt>
</event>
<event>
 4    1  0.3931501E+006  0.5434661E+01  0.7546771E-02  0.2495377E+00
         21   -1    0    0  503  502  0.00000000000E+00  0.00000000000E+00  0.25661402040E+00  0.25661402040E+00  0.00000000000E+00 0. -1.
         21   -1    0    0  501  503 -0.00000000000E+00 -0.00000000000E+00 -0.21305209187E+03  0.21305209187E+03  0.00000000000E+00 0.  1.
          5    1    1    2  501    0  0.21582452400E+01 -0.16695861494E+01 -0.17871615016E+03  0.17879876361E+03  0.47000000000E+01 0.  1.
         -5    1    1    2    0  502 -0.21582452400E+01  0.16695861494E+01 -0.34079327689E+02  0.34509942280E+02  0.47000000000E+01 0. -1.
<mgrwt>
<rscale>  2 0.54346610E+01</rscale>
<asrwt>0</asrwt>
<pdfrwt beam="1">  1       21 0.39478944E-04 0.54346610E+01</pdfrwt>
<pdfrwt beam="2">  1       21 0.32777357E-01 0.54346610E+01</pdfrwt>
<totfact> 0.12319136E+09</totfact>
</mgrwt>
</event>
<event>
 4    1  0.3931501E+006  0.1209909E+02  0.7546771E-02  0.1972121E+00
         21   -1    0    0  503  502  0.00000000000E+00  0.00000000000E+00  0.81141208408E+01  0.81141208408E+01  0.00000000000E+00 0. -1.
         21   -1    0    0  501  503 -0.00000000000E+00 -0.00000000000E+00 -0.21505726609E+02  0.21505726609E+02  0.00000000000E+00 0.  1.
          5    1    1    2  501    0 -0.64566354544E+01  0.90889958857E+01 -0.12640113454E+02  0.17497441405E+02  0.47000000000E+01 0.  1.
         -5    1    1    2    0  502  0.64566354544E+01 -0.90889958857E+01 -0.75149231384E+00  0.12122406044E+02  0.47000000000E+01 0. -1.
<mgrwt>
<rscale>  2 0.12099090E+02</rscale>
<asrwt>0</asrwt>
<pdfrwt beam="1">  1       21 0.12483263E-02 0.12099090E+02</pdfrwt>
<pdfrwt beam="2">  1       21 0.33085733E-02 0.12099090E+02</pdfrwt>
<totfact> 0.64016575E+08</totfact>
</mgrwt>
</event>
<event>
 4    1  0.3931501E+006  0.5338059E+01  0.7546771E-02  0.2510464E+00
         21   -1    0    0  501  502  0.00000000000E+00  0.00000000000E+00  0.12585611553E+00  0.12585611553E+00  0.00000000000E+00 0.  1.
         21   -1    0    0  502  503 -0.00000000000E+00 -0.00000000000E+00 -0.30017909421E+03  0.30017909421E+03  0.00000000000E+00 0. -1.
          5    1    1    2  501    0 -0.13986781383E+01 -0.21091649108E+01 -0.22446284008E+03  0.22452630459E+03  0.47000000000E+01 0. -1.
         -5    1    1    2    0  503  0.13986781383E+01  0.21091649108E+01 -0.75590398011E+02  0.75778645729E+02  0.47000000000E+01 0.  1.
<mgrwt>
<rscale>  2 0.53380593E+01</rscale>
<asrwt>0</asrwt>
<pdfrwt beam="1">  1       21 0.19362628E-04 0.53380593E+01</pdfrwt>
<pdfrwt beam="2">  1       21 0.46181045E-01 0.53380593E+01</pdfrwt>
<totfact> 0.17310625E+09</totfact>
</mgrwt>
</event>
<event>
 4    1  0.3931501E+006  0.6917807E+01  0.7546771E-02  0.2309361E+00
         21   -1    0    0  501  502  0.00000000000E+00  0.00000000000E+00  0.28236985188E+01  0.28236985188E+01  0.00000000000E+00 0.  1.
         21   -1    0    0  502  503 -0.00000000000E+00 -0.00000000000E+00 -0.18228961101E+02  0.18228961101E+02  0.00000000000E+00 0.  1.
          5    1    1    2  501    0 -0.41177235614E+01 -0.29682325316E+01 -0.49122507605E+01  0.84844716526E+01  0.47000000000E+01 0.  1.
         -5    1    1    2    0  503  0.41177235614E+01  0.29682325316E+01 -0.10493011822E+02  0.12568187967E+02  0.47000000000E+01 0.  1.
<mgrwt>
<rscale>  2 0.69178069E+01</rscale>
<asrwt>0</asrwt>
<pdfrwt beam="1">  1       21 0.43441515E-03 0.69178069E+01</pdfrwt>
<pdfrwt beam="2">  1       21 0.28044556E-02 0.69178069E+01</pdfrwt>
<totfact> 0.26076820E+09</totfact>
</mgrwt>
</event>
<event>
 4    1  0.3931501E+006  0.9084506E+01  0.7546771E-02  0.2131168E+00
         21   -1    0    0  501  502  0.00000000000E+00  0.00000000000E+00  0.22750874580E+00  0.22750874580E+00  0.00000000000E+00 0. -1.
         21   -1    0    0  502  503 -0.00000000000E+00 -0.00000000000E+00 -0.23802280773E+04  0.23802280773E+04  0.00000000000E+00 0. -1.
          5    1    1    2  501    0  0.70881305236E+01  0.31932205457E+01 -0.94214982819E+02  0.94651947890E+02  0.47000000000E+01 0. -1.
         -5    1    1    2    0  503 -0.70881305236E+01 -0.31932205457E+01 -0.22857855858E+04  0.22858036382E+04  0.47000000000E+01 0. -1.
<mgrwt>
<rscale>  2 0.90845061E+01</rscale>
<asrwt>0</asrwt>
<pdfrwt beam="1">  1       21 0.35000444E-04 0.90845061E+01</pdfrwt>
<pdfrwt beam="2">  1       21 0.36619836E+00 0.90845061E+01</pdfrwt>
<totfact> 0.10000226E+07</totfact>
</mgrwt>
</event>
<event>
 4    1  0.3931501E+006  0.5754841E+01  0.7546771E-02  0.2448467E+00
         21   -1    0    0  503  502  0.00000000000E+00  0.00000000000E+00  0.24292635375E+02  0.24292635375E+02  0.00000000000E+00 0. -1.
         21   -1    0    0  501  503 -0.00000000000E+00 -0.00000000000E+00 -0.18450797054E+01  0.18450797054E+01  0.00000000000E+00 0. -1.
          5    1    1    2  501    0 -0.15778032963E+01 -0.29221105505E+01  0.45456688612E+01  0.73335733927E+01  0.47000000000E+01 0. -1.
         -5    1    1    2    0  502  0.15778032963E+01  0.29221105505E+01  0.17901886808E+02  0.18804141687E+02  0.47000000000E+01 0. -1.
<mgrwt>
<rscale>  2 0.57548409E+01</rscale>
<asrwt>0</asrwt>
<pdfrwt beam="1">  1       21 0.37373283E-02 0.57548409E+01</pdfrwt>
<pdfrwt beam="2">  1       21 0.28385843E-03 0.57548409E+01</pdfrwt>
<totfact> 0.26415475E+09</totfact>
</mgrwt>
</event>
<event>
 4    1  0.3931501E+006  0.1169324E+02  0.7546771E-02  0.1989757E+00
         21   -1    0    0  501  502  0.00000000000E+00  0.00000000000E+00  0.17560282226E+02  0.17560282226E+02  0.00000000000E+00 0.  1.
         21   -1    0    0  502  503 -0.00000000000E+00 -0.00000000000E+00 -0.33467053150E+02  0.33467053150E+02  0.00000000000E+00 0. -1.
          5    1    1    2  501    0  0.92453292301E+01  0.54005410115E+01  0.14396068344E+02  0.18546663839E+02  0.47000000000E+01 0.  1.
         -5    1    1    2    0  503 -0.92453292301E+01 -0.54005410115E+01 -0.30302839268E+02  0.32480671537E+02  0.47000000000E+01 0. -1.
<mgrwt>
<rscale>  2 0.11693244E+02</rscale>
<asrwt>0</asrwt>
<pdfrwt beam="1">  1       21 0.27015819E-02 0.11693244E+02</pdfrwt>
<pdfrwt beam="2">  1       21 0.51487773E-02 0.11693244E+02</pdfrwt>
<totfact> 0.10140840E+08</totfact>
</mgrwt>
</event>
<event>
 4    1  0.3931501E+006  0.5260733E+01  0.7546771E-02  0.2522879E+00
         21   -1    0    0  503  502  0.00000000000E+00  0.00000000000E+00  0.42535785286E+02  0.42535785286E+02  0.00000000000E+00 0. -1.
         21   -1    0    0  501  503 -0.00000000000E+00 -0.00000000000E+00 -0.73412446421E+00  0.73412446421E+00  0.00000000000E+00 0.  1.
          5    1    1    2  501    0 -0.13046664311E+01  0.19705716325E+01  0.13604831562E+02  0.14586526279E+02  0.47000000000E+01 0.  1.
         -5    1    1    2    0  502  0.13046664311E+01 -0.19705716325E+01  0.28196829259E+02  0.28683383471E+02  0.47000000000E+01 0. -1.
<mgrwt>
<rscale>  2 0.52607326E+01</rscale>
<asrwt>0</asrwt>
<pdfrwt beam="1">  1       21 0.65439650E-02 0.52607326E+01</pdfrwt>
<pdfrwt beam="2">  1       21 0.11294226E-03 0.52607326E+01</pdfrwt>
<totfact> 0.36976744E+09</totfact>
</mgrwt>
</event>
<event>
 4    1  0.3931501E+006  0.5377847E+01  0.7546771E-02  0.2504194E+00
         21   -1    0    0  501  502  0.00000000000E+00  0.00000000000E+00  0.12666540416E+02  0.12666540416E+02  0.00000000000E+00 0.  1.
         21   -1    0    0  502  503 -0.00000000000E+00 -0.00000000000E+00 -0.57337950490E+02  0.57337950490E+02  0.00000000000E+00 0. -1.
          5    1    1    2  501    0  0.18636190723E+01  0.18325277867E+01  0.11962541260E+02  0.13115777809E+02  0.47000000000E+01 0.  1.
         -5    1    1    2    0  503 -0.18636190723E+01 -0.18325277867E+01 -0.56633951334E+02  0.56888713097E+02  0.47000000000E+01 0. -1.
<mgrwt>
<rscale>  2 0.53778466E+01</rscale>
<asrwt>0</asrwt>
<pdfrwt beam="1">  1       21 0.19486985E-02 0.53778466E+01</pdfrwt>
<pdfrwt beam="2">  1       21 0.88212231E-02 0.53778466E+01</pdfrwt>
<totfact> 0.47654556E+07</totfact>
</mgrwt>
</event>
<event>
 4    1  0.3931501E+006  0.7298859E+01  0.7546771E-02  0.2271879E+00
         21   -1    0    0  503  502  0.00000000000E+00  0.00000000000E+00  0.13579931416E+01  0.13579931416E+01  0.00000000000E+00 0.  1.
         21   -1    0    0  501  503 -0.00000000000E+00 -0.00000000000E+00 -0.28028231545E+03  0.28028231545E+03  0.00000000000E+00 0. -1.
          5    1    1    2  501    0  0.31669338957E+01  0.45993337638E+01 -0.27005612538E+03  0.27015474121E+03  0.47000000000E+01 0. -1.
         -5    1    1    2    0  502 -0.31669338957E+01 -0.45993337638E+01 -0.88681969254E+01  0.11485567382E+02  0.47000000000E+01 0.  1.
<mgrwt>
<rscale>  2 0.72988589E+01</rscale>
<asrwt>0</asrwt>
<pdfrwt beam="1">  1       21 0.20892190E-03 0.72988589E+01</pdfrwt>
<pdfrwt beam="2">  1       21 0.43120380E-01 0.72988589E+01</pdfrwt>
<totfact> 0.98507880E+07</totfact>
</mgrwt>
</event>
<event>
 4    1  0.3931501E+006  0.4856897E+01  0.7546771E-02  0.2593184E+00
         21   -1    0    0  501  502  0.00000000000E+00  0.00000000000E+00  0.19820025860E+01  0.19820025860E+01  0.00000000000E+00 0.  1.
         21   -1    0    0  502  503 -0.00000000000E+00 -0.00000000000E+00 -0.16617658987E+02  0.16617658987E+02  0.00000000000E+00 0.  1.
          5    1    1    2  501    0  0.65478760772E-01 -0.12227664313E+01 -0.12271981514E+02  0.13198142880E+02  0.47000000000E+01 0.  1.
         -5    1    1    2    0  503 -0.65478760772E-01  0.12227664313E+01 -0.23636748871E+01  0.54015186925E+01  0.47000000000E+01 0.  1.
<mgrwt>
<rscale>  2 0.48568967E+01</rscale>
<asrwt>0</asrwt>
<pdfrwt beam="1">  1       21 0.30492348E-03 0.48568967E+01</pdfrwt>
<pdfrwt beam="2">  1       21 0.25565629E-02 0.48568967E+01</pdfrwt>
<totfact> 0.35114585E+09</totfact>
</mgrwt>
</event>
<event>
 4    1  0.3931501E+006  0.6026648E+01  0.7546771E-02  0.2411968E+00
         21   -1    0    0  503  502  0.00000000000E+00  0.00000000000E+00  0.23828482360E+01  0.23828482360E+01  0.00000000000E+00 0.  1.
         21   -1    0    0  501  503 -0.00000000000E+00 -0.00000000000E+00 -0.16267075936E+02  0.16267075936E+02  0.00000000000E+00 0. -1.
          5    1    1    2  501    0 -0.16426127841E+01 -0.33959254762E+01 -0.92824126440E+01  0.11067234121E+02  0.47000000000E+01 0.  1.
         -5    1    1    2    0  502  0.16426127841E+01  0.33959254762E+01 -0.46018150563E+01  0.75826900511E+01  0.47000000000E+01 0.  1.
<mgrwt>
<rscale>  2 0.60266480E+01</rscale>
<asrwt>0</asrwt>
<pdfrwt beam="1">  1       21 0.36659205E-03 0.60266480E+01</pdfrwt>
<pdfrwt beam="2">  1       21 0.25026270E-02 0.60266480E+01</pdfrwt>
<totfact> 0.34688687E+09</totfact>
</mgrwt>
</event>
<event>
 4    1  0.3931501E+006  0.5053521E+01  0.7546771E-02  0.2557746E+00
         21   -1    0    0  501  502  0.00000000000E+00  0.00000000000E+00  0.49448632436E+01  0.49448632436E+01  0.00000000000E+00 0. -1.
         21   -1    0    0  502  503 -0.00000000000E+00 -0.00000000000E+00 -0.27998075109E+02  0.27998075109E+02  0.00000000000E+00 0. -1.
          5    1    1    2  501    0 -0.15007888777E+01 -0.10934852313E+01  0.33483117792E+01  0.60621175325E+01  0.47000000000E+01 0. -1.
         -5    1    1    2    0  503  0.15007888777E+01  0.10934852313E+01 -0.26401523644E+02  0.26880820820E+02  0.47000000000E+01 0. -1.
<mgrwt>
<rscale>  2 0.50535213E+01</rscale>
<asrwt>0</asrwt>
<pdfrwt beam="1">  1       21 0.76074817E-03 0.50535213E+01</pdfrwt>
<pdfrwt beam="2">  1       21 0.43073963E-02 0.50535213E+01</pdfrwt>
<totfact> 0.49167756E+08</totfact>
</mgrwt>
</event>
<event>
 4    1  0.3931501E+006  0.5942093E+01  0.7546771E-02  0.2423022E+00
         21   -1    0    0  501  502  0.00000000000E+00  0.00000000000E+00  0.36084404168E+01  0.36084404168E+01  0.00000000000E+00 0.  1.
         21   -1    0    0  502  503 -0.00000000000E+00 -0.00000000000E+00 -0.11047784263E+02  0.11047784263E+02  0.00000000000E+00 0.  1.
          5    1    1    2  501    0 -0.36191037789E+01 -0.34722039754E+00 -0.61972343243E+01  0.85856966775E+01  0.47000000000E+01 0.  1.
         -5    1    1    2    0  503  0.36191037789E+01  0.34722039754E+00 -0.12421095223E+01  0.60705280027E+01  0.47000000000E+01 0.  1.
<mgrwt>
<rscale>  2 0.59420934E+01</rscale>
<asrwt>0</asrwt>
<pdfrwt beam="1">  1       21 0.55514469E-03 0.59420934E+01</pdfrwt>
<pdfrwt beam="2">  1       21 0.16996591E-02 0.59420934E+01</pdfrwt>
<totfact> 0.33609931E+09</totfact>
</mgrwt>
</event>
<event>
 4    1  0.3931501E+006  0.6415523E+01  0.7546771E-02  0.2364289E+00
         21   -1    0    0  503  502  0.00000000000E+00  0.00000000000E+00  0.25253262420E+02  0.25253262420E+02  0.00000000000E+00 0. -1.
         21   -1    0    0  501  503 -0.00000000000E+00 -0.00000000000E+00 -0.30196487349E+01  0.30196487349E+01  0.00000000000E+00 0.  1.
          5    1    1    2  501    0  0.27802778332E+01 -0.33673411339E+01  0.15263590405E+01  0.65945965049E+01  0.47000000000E+01 0.  1.
         -5    1    1    2    0  502 -0.27802778332E+01  0.33673411339E+01  0.20707254644E+02  0.21678314649E+02  0.47000000000E+01 0. -1.
<mgrwt>
<rscale>  2 0.64155227E+01</rscale>
<asrwt>0</asrwt>
<pdfrwt beam="1">  1       21 0.38851172E-02 0.64155227E+01</pdfrwt>
<pdfrwt beam="2">  1       21 0.46456136E-03 0.64155227E+01</pdfrwt>
<totfact> 0.13861259E+09</totfact>
</mgrwt>
</event>
<event>
 4    1  0.3931501E+006  0.5027501E+01  0.7546771E-02  0.2562298E+00
         21   -1    0    0  503  502  0.00000000000E+00  0.00000000000E+00  0.10077070551E+00  0.10077070551E+00  0.00000000000E+00 0.  1.
         21   -1    0    0  501  503 -0.00000000000E+00 -0.00000000000E+00 -0.59718326513E+03  0.59718326513E+03  0.00000000000E+00 0.  1.
          5    1    1    2  501    0  0.34056519903E+00 -0.17520784799E+01 -0.71104740173E+02  0.71282254725E+02  0.47000000000E+01 0.  1.
         -5    1    1    2    0  502 -0.34056519903E+00  0.17520784799E+01 -0.52597775425E+03  0.52600178111E+03  0.47000000000E+01 0.  1.
<mgrwt>
<rscale>  2 0.50275007E+01</rscale>
<asrwt>0</asrwt>
<pdfrwt beam="1">  1       21 0.15503150E-04 0.50275007E+01</pdfrwt>
<pdfrwt beam="2">  1       21 0.91874558E-01 0.50275007E+01</pdfrwt>
<totfact> 0.61634120E+08</totfact>
</mgrwt>
</event>
<event>
 4    1  0.3931501E+006  0.8260773E+01  0.7546771E-02  0.2189993E+00
         21   -1    0    0  503  502  0.00000000000E+00  0.00000000000E+00  0.50058259725E+01  0.50058259725E+01  0.00000000000E+00 0.  1.
         21   -1    0    0  501  503 -0.00000000000E+00 -0.00000000000E+00 -0.17095005332E+02  0.17095005332E+02  0.00000000000E+00 0. -1.
          5    1    1    2  501    0  0.50939872388E+01  0.44946270419E+01 -0.11018048953E+02  0.13770903419E+02  0.47000000000E+01 0. -1.
         -5    1    1    2    0  502 -0.50939872388E+01 -0.44946270419E+01 -0.10711304064E+01  0.83299278858E+01  0.47000000000E+01 0.  1.
<mgrwt>
<rscale>  2 0.82607735E+01</rscale>
<asrwt>0</asrwt>
<pdfrwt beam="1">  1       21 0.77012708E-03 0.82607735E+01</pdfrwt>
<pdfrwt beam="2">  1       21 0.26300008E-02 0.82607735E+01</pdfrwt>
<totfact> 0.14548686E+09</totfact>
</mgrwt>
</event>
<event>
 4    1  0.3931501E+006  0.7661451E+01  0.7546771E-02  0.2239062E+00
         21   -1    0    0  503  502  0.00000000000E+00  0.00000000000E+00  0.61026021700E+00  0.61026021700E+00  0.00000000000E+00 0. -1.
         21   -1    0    0  501  503 -0.00000000000E+00 -0.00000000000E+00 -0.97555839566E+02  0.97555839566E+02  0.00000000000E+00 0.  1.
          5    1    1    2  501    0 -0.59745309174E+01 -0.95540897677E+00 -0.42654277177E+02  0.43336880224E+02  0.47000000000E+01 0. -1.
         -5    1    1    2    0  502  0.59745309174E+01  0.95540897677E+00 -0.54291302171E+02  0.54829219559E+02  0.47000000000E+01 0.  1.
<mgrwt>
<rscale>  2 0.76614506E+01</rscale>
<asrwt>0</asrwt>
<pdfrwt beam="1">  1       21 0.93886258E-04 0.76614506E+01</pdfrwt>
<pdfrwt beam="2">  1       21 0.15008579E-01 0.76614506E+01</pdfrwt>
<totfact> 0.17966208E+09</totfact>
</mgrwt>
</event>
<event>
 4    1  0.3931501E+006  0.5441120E+01  0.7546771E-02  0.2494385E+00
         21   -1    0    0  501  502  0.00000000000E+00  0.00000000000E+00  0.13376444793E+01  0.13376444793E+01  0.00000000000E+00 0.  1.
         21   -1    0    0  502  503 -0.00000000000E+00 -0.00000000000E+00 -0.29823905640E+02  0.29823905640E+02  0.00000000000E+00 0.  1.
          5    1    1    2  501    0 -0.26629057577E+01  0.65170914309E+00 -0.22155412140E+02  0.22813769504E+02  0.47000000000E+01 0.  1.
         -5    1    1    2    0  503  0.26629057577E+01 -0.65170914309E+00 -0.63308490205E+01  0.83477806153E+01  0.47000000000E+01 0.  1.
<mgrwt>
<rscale>  2 0.54411205E+01</rscale>
<asrwt>0</asrwt>
<pdfrwt beam="1">  1       21 0.20579148E-03 0.54411205E+01</pdfrwt>
<pdfrwt beam="2">  1       21 0.45882928E-02 0.54411205E+01</pdfrwt>
<totfact> 0.28807337E+09</totfact>
</mgrwt>
</event>
<event>
 4    1  0.3931501E+006  0.6764068E+01  0.7546771E-02  0.2325457E+00
         21   -1    0    0  501  502  0.00000000000E+00  0.00000000000E+00  0.33383460202E+01  0.33383460202E+01  0.00000000000E+00 0.  1.
         21   -1    0    0  502  503 -0.00000000000E+00 -0.00000000000E+00 -0.14083425201E+02  0.14083425201E+02  0.00000000000E+00 0. -1.
          5    1    1    2  501    0 -0.24585593208E+01  0.41973924741E+01 -0.39449691072E+01  0.78304149809E+01  0.47000000000E+01 0.  1.
         -5    1    1    2    0  503  0.24585593208E+01 -0.41973924741E+01 -0.68001100736E+01  0.95913562404E+01  0.47000000000E+01 0. -1.
<mgrwt>
<rscale>  2 0.67640681E+01</rscale>
<asrwt>0</asrwt>
<pdfrwt beam="1">  1       21 0.51359170E-03 0.67640681E+01</pdfrwt>
<pdfrwt beam="2">  1       21 0.21666808E-02 0.67640681E+01</pdfrwt>
<totfact> 0.29523017E+09</totfact>
</mgrwt>
</event>
<event>
 4    1  0.3931501E+006  0.5283606E+01  0.7546771E-02  0.2519175E+00
         21   -1    0    0  501  502  0.00000000000E+00  0.00000000000E+00  0.31084800949E+01  0.31084800949E+01  0.00000000000E+00 0. -1.
         21   -1    0    0  502  503 -0.00000000000E+00 -0.00000000000E+00 -0.13100404898E+02  0.13100404898E+02  0.00000000000E+00 0. -1.
          5    1    1    2  501    0 -0.25384689039E+00 -0.24004269337E+01 -0.45120068625E+00  0.53028360117E+01  0.47000000000E+01 0. -1.
         -5    1    1    2    0  503  0.25384689039E+00  0.24004269337E+01 -0.95407241170E+01  0.10906048981E+02  0.47000000000E+01 0. -1.
<mgrwt>
<rscale>  2 0.52836056E+01</rscale>
<asrwt>0</asrwt>
<pdfrwt beam="1">  1       21 0.47822770E-03 0.52836056E+01</pdfrwt>
<pdfrwt beam="2">  1       21 0.20154469E-02 0.52836056E+01</pdfrwt>
<totfact> 0.29036754E+09</totfact>
</mgrwt>
</event>
<event>
 4    1  0.3931501E+006  0.5624338E+01  0.7546771E-02  0.2467041E+00
         21   -1    0    0  503  502  0.00000000000E+00  0.00000000000E+00  0.32164840694E+02  0.32164840694E+02  0.00000000000E+00 0.  1.
         21   -1    0    0  501  503 -0.00000000000E+00 -0.00000000000E+00 -0.10480378766E+01  0.10480378766E+01  0.00000000000E+00 0.  1.
          5    1    1    2  501    0 -0.82021094472E+00  0.29783268740E+01  0.11436533405E+02  0.12744703734E+02  0.47000000000E+01 0.  1.
         -5    1    1    2    0  502  0.82021094472E+00 -0.29783268740E+01  0.19680269413E+02  0.20468174836E+02  0.47000000000E+01 0.  1.
<mgrwt>
<rscale>  2 0.56243379E+01</rscale>
<asrwt>0</asrwt>
<pdfrwt beam="1">  1       21 0.49484363E-02 0.56243379E+01</pdfrwt>
<pdfrwt beam="2">  1       21 0.16123662E-03 0.56243379E+01</pdfrwt>
<totfact> 0.36954847E+09</totfact>
</mgrwt>
</event>
<event>
 4    1  0.3931501E+006  0.6079691E+01  0.7546771E-02  0.2405166E+00
         21   -1    0    0  501  502  0.00000000000E+00  0.00000000000E+00  0.43091825464E+00  0.43091825464E+00  0.00000000000E+00 0. -1.
         21   -1    0    0  502  503 -0.00000000000E+00 -0.00000000000E+00 -0.86020443178E+02  0.86020443178E+02  0.00000000000E+00 0. -1.
          5    1    1    2  501    0  0.23428106597E+01 -0.30633130652E+01 -0.45096776422E+02  0.45504745823E+02  0.47000000000E+01 0. -1.
         -5    1    1    2    0  503 -0.23428106597E+01  0.30633130652E+01 -0.40492748501E+02  0.40946615609E+02  0.47000000000E+01 0. -1.
<mgrwt>
<rscale>  2 0.60796915E+01</rscale>
<asrwt>0</asrwt>
<pdfrwt beam="1">  1       21 0.66295090E-04 0.60796915E+01</pdfrwt>
<pdfrwt beam="2">  1       21 0.13233920E-01 0.60796915E+01</pdfrwt>
<totfact> 0.29405533E+09</totfact>
</mgrwt>
</event>
<event>
 4    1  0.3931501E+006  0.9530792E+01  0.7546771E-02  0.2102717E+00
         21   -1    0    0  501  502  0.00000000000E+00  0.00000000000E+00  0.26026227197E+02  0.26026227197E+02  0.00000000000E+00 0. -1.
         21   -1    0    0  502  503 -0.00000000000E+00 -0.00000000000E+00 -0.11838357617E+02  0.11838357617E+02  0.00000000000E+00 0.  1.
          5    1    1    2  501    0 -0.54236288398E+01 -0.62713838396E+01  0.22992338785E+02  0.24889428436E+02  0.47000000000E+01 0. -1.
         -5    1    1    2    0  503  0.54236288398E+01  0.62713838396E+01 -0.88044692049E+01  0.12975156378E+02  0.47000000000E+01 0.  1.
<mgrwt>
<rscale>  2 0.95307925E+01</rscale>
<asrwt>0</asrwt>
<pdfrwt beam="1">  1       21 0.40040349E-02 0.95307925E+01</pdfrwt>
<pdfrwt beam="2">  1       21 0.18212858E-02 0.95307925E+01</pdfrwt>
<totfact> 0.24321121E+08</totfact>
</mgrwt>
</event>
<event>
 4    1  0.3931501E+006  0.5182445E+01  0.7546771E-02  0.2535772E+00
         21   -1    0    0  501  502  0.00000000000E+00  0.00000000000E+00  0.33662509515E+01  0.33662509515E+01  0.00000000000E+00 0.  1.
         21   -1    0    0  502  503 -0.00000000000E+00 -0.00000000000E+00 -0.99365348446E+01  0.99365348446E+01  0.00000000000E+00 0.  1.
          5    1    1    2  501    0 -0.16308169393E+00  0.21774155299E+01 -0.33255966462E+00  0.51931040774E+01  0.47000000000E+01 0.  1.
         -5    1    1    2    0  503  0.16308169393E+00 -0.21774155299E+01 -0.62377242285E+01  0.81096817187E+01  0.47000000000E+01 0.  1.
<mgrwt>
<rscale>  2 0.51824448E+01</rscale>
<asrwt>0</asrwt>
<pdfrwt beam="1">  1       21 0.51788478E-03 0.51824448E+01</pdfrwt>
<pdfrwt beam="2">  1       21 0.15286976E-02 0.51824448E+01</pdfrwt>
<totfact> 0.37761472E+09</totfact>
</mgrwt>
</event>
<event>
 4    1  0.3931501E+006  0.9257249E+01  0.7546771E-02  0.2119898E+00
         21   -1    0    0  501  502  0.00000000000E+00  0.00000000000E+00  0.27329512407E+01  0.27329512407E+01  0.00000000000E+00 0.  1.
         21   -1    0    0  502  503 -0.00000000000E+00 -0.00000000000E+00 -0.33386788082E+02  0.33386788082E+02  0.00000000000E+00 0.  1.
          5    1    1    2  501    0 -0.79668439123E+01 -0.36884852347E+00 -0.10873717941E+02  0.14280559969E+02  0.47000000000E+01 0.  1.
         -5    1    1    2    0  503  0.79668439123E+01  0.36884852347E+00 -0.19780118900E+02  0.21839179354E+02  0.47000000000E+01 0.  1.
<mgrwt>
<rscale>  2 0.92572486E+01</rscale>
<asrwt>0</asrwt>
<pdfrwt beam="1">  1       21 0.42045404E-03 0.92572486E+01</pdfrwt>
<pdfrwt beam="2">  1       21 0.51364289E-02 0.92572486E+01</pdfrwt>
<totfact> 0.13569803E+09</totfact>
</mgrwt>
</event>
<event>
 4    1  0.3931501E+006  0.6444074E+01  0.7546771E-02  0.2360978E+00
         21   -1    0    0  503  502  0.00000000000E+00  0.00000000000E+00  0.83239916571E+02  0.83239916571E+02  0.00000000000E+00 0.  1.
         21   -1    0    0  501  503 -0.00000000000E+00 -0.00000000000E+00 -0.33725384281E+01  0.33725384281E+01  0.00000000000E+00 0.  1.
          5    1    1    2  501    0 -0.24528030687E+01 -0.36633105016E+01 -0.41456672702E-01  0.64442071181E+01  0.47000000000E+01 0.  1.
         -5    1    1    2    0  502  0.24528030687E+01  0.36633105016E+01  0.79908834815E+02  0.80168247881E+02  0.47000000000E+01 0.  1.
<mgrwt>
<rscale>  2 0.64440738E+01</rscale>
<asrwt>0</asrwt>
<pdfrwt beam="1">  1       21 0.12806139E-01 0.64440738E+01</pdfrwt>
<pdfrwt beam="2">  1       21 0.51885213E-03 0.64440738E+01</pdfrwt>
<totfact> 0.19542793E+08</totfact>
</mgrwt>
</event>
<event>
 4    1  0.3931501E+006  0.4769609E+01  0.7546771E-02  0.2609723E+00
         21   -1    0    0  501  502  0.00000000000E+00  0.00000000000E+00  0.18884273880E+01  0.18884273880E+01  0.00000000000E+00 0. -1.
         21   -1    0    0  502  503 -0.00000000000E+00 -0.00000000000E+00 -0.16679154543E+02  0.16679154543E+02  0.00000000000E+00 0. -1.
          5    1    1    2  501    0 -0.54211992078E-01 -0.81008285616E+00 -0.12288051556E+02  0.13181251238E+02  0.47000000000E+01 0. -1.
         -5    1    1    2    0  503  0.54211992078E-01  0.81008285616E+00 -0.25026755991E+01  0.53863306924E+01  0.47000000000E+01 0. -1.
<mgrwt>
<rscale>  2 0.47696093E+01</rscale>
<asrwt>0</asrwt>
<pdfrwt beam="1">  1       21 0.29052728E-03 0.47696093E+01</pdfrwt>
<pdfrwt beam="2">  1       21 0.25660238E-02 0.47696093E+01</pdfrwt>
<totfact> 0.36584474E+09</totfact>
</mgrwt>
</event>
<event>
 4    1  0.3931501E+006  0.1469545E+02  0.7546771E-02  0.1877507E+00
         21   -1    0    0  501  502  0.00000000000E+00  0.00000000000E+00  0.59988751669E+01  0.59988751669E+01  0.00000000000E+00 0.  1.
         21   -1    0    0  502  503 -0.00000000000E+00 -0.00000000000E+00 -0.11795796595E+03  0.11795796595E+03  0.00000000000E+00 0. -1.
          5    1    1    2  501    0  0.72460679050E+01 -0.11889526090E+02 -0.43172313310E+01  0.15316488406E+02  0.47000000000E+01 0.  1.
         -5    1    1    2    0  503 -0.72460679050E+01  0.11889526090E+02 -0.10764185945E+03  0.10864035271E+03  0.47000000000E+01 0. -1.
<mgrwt>
<rscale>  2 0.14695453E+02</rscale>
<asrwt>0</asrwt>
<pdfrwt beam="1">  1       21 0.92290391E-03 0.14695453E+02</pdfrwt>
<pdfrwt beam="2">  1       21 0.18147379E-01 0.14695453E+02</pdfrwt>
<totfact> 0.71833405E+07</totfact>
</mgrwt>
</event>
<event>
 4    1  0.3931501E+006  0.6465979E+01  0.7546771E-02  0.2358453E+00
         21   -1    0    0  501  502  0.00000000000E+00  0.00000000000E+00  0.26089565992E+03  0.26089565992E+03  0.00000000000E+00 0. -1.
         21   -1    0    0  502  503 -0.00000000000E+00 -0.00000000000E+00 -0.93664282426E+00  0.93664282426E+00  0.00000000000E+00 0. -1.
          5    1    1    2  501    0  0.32627182812E-02  0.44405941304E+01  0.24917136874E+03  0.24925525047E+03  0.47000000000E+01 0. -1.
         -5    1    1    2    0  503 -0.32627182812E-02 -0.44405941304E+01  0.10787648356E+02  0.12577052275E+02  0.47000000000E+01 0. -1.
<mgrwt>
<rscale>  2 0.64659792E+01</rscale>
<asrwt>0</asrwt>
<pdfrwt beam="1">  1       21 0.40137736E-01 0.64659792E+01</pdfrwt>
<pdfrwt beam="2">  1       21 0.14409910E-03 0.64659792E+01</pdfrwt>
<totfact> 0.17350818E+08</totfact>
</mgrwt>
</event>
<event>
 4    1  0.3931501E+006  0.5645216E+01  0.7546771E-02  0.2464021E+00
         21   -1    0    0  501  502  0.00000000000E+00  0.00000000000E+00  0.54839914463E+02  0.54839914463E+02  0.00000000000E+00 0.  1.
         21   -1    0    0  502  503 -0.00000000000E+00 -0.00000000000E+00 -0.21810226271E+01  0.21810226271E+01  0.00000000000E+00 0. -1.
          5    1    1    2  501    0  0.28181574558E+01  0.13551560601E+01  0.50748077430E+02  0.51061098914E+02  0.47000000000E+01 0.  1.
         -5    1    1    2    0  503 -0.28181574558E+01 -0.13551560601E+01  0.19108144052E+01  0.59598381760E+01  0.47000000000E+01 0. -1.
<mgrwt>
<rscale>  2 0.56452156E+01</rscale>
<asrwt>0</asrwt>
<pdfrwt beam="1">  1       21 0.84369089E-02 0.56452156E+01</pdfrwt>
<pdfrwt beam="2">  1       21 0.33554198E-03 0.56452156E+01</pdfrwt>
<totfact> 0.61677391E+08</totfact>
</mgrwt>
</event>
<event>
 4    1  0.3931501E+006  0.8418394E+01  0.7546771E-02  0.2178028E+00
         21   -1    0    0  503  502  0.00000000000E+00  0.00000000000E+00  0.15861942295E+01  0.15861942295E+01  0.00000000000E+00 0. -1.
         21   -1    0    0  501  503 -0.00000000000E+00 -0.00000000000E+00 -0.83626540053E+02  0.83626540053E+02  0.00000000000E+00 0.  1.
          5    1    1    2  501    0 -0.69291306510E+01 -0.87550214169E+00 -0.70096745859E+02  0.70600447135E+02  0.47000000000E+01 0.  1.
         -5    1    1    2    0  502  0.69291306510E+01  0.87550214169E+00 -0.11943599964E+02  0.14612287147E+02  0.47000000000E+01 0. -1.
<mgrwt>
<rscale>  2 0.84183939E+01</rscale>
<asrwt>0</asrwt>
<pdfrwt beam="1">  1       21 0.24402981E-03 0.84183939E+01</pdfrwt>
<pdfrwt beam="2">  1       21 0.12865625E-01 0.84183939E+01</pdfrwt>
<totfact> 0.65677225E+08</totfact>
</mgrwt>
</event>
<event>
 4    1  0.3931501E+006  0.6130856E+01  0.7546771E-02  0.2398697E+00
         21   -1    0    0  503  502  0.00000000000E+00  0.00000000000E+00  0.91824160779E+02  0.91824160779E+02  0.00000000000E+00 0.  1.
         21   -1    0    0  501  503 -0.00000000000E+00 -0.00000000000E+00 -0.42068698656E+00  0.42068698656E+00  0.00000000000E+00 0. -1.
          5    1    1    2  501    0  0.19876114983E+01 -0.33980582707E+01  0.38127261976E+02  0.38617036464E+02  0.47000000000E+01 0. -1.
         -5    1    1    2    0  502 -0.19876114983E+01  0.33980582707E+01  0.53276211817E+02  0.53627811302E+02  0.47000000000E+01 0.  1.
<mgrwt>
<rscale>  2 0.61308563E+01</rscale>
<asrwt>0</asrwt>
<pdfrwt beam="1">  1       21 0.14126778E-01 0.61308563E+01</pdfrwt>
<pdfrwt beam="2">  1       21 0.64721148E-04 0.61308563E+01</pdfrwt>
<totfact> 0.27603543E+09</totfact>
</mgrwt>
</event>
<event>
 4    1  0.3931501E+006  0.5344112E+01  0.7546771E-02  0.2509505E+00
         21   -1    0    0  501  502  0.00000000000E+00  0.00000000000E+00  0.16293190164E+02  0.16293190164E+02  0.00000000000E+00 0. -1.
         21   -1    0    0  502  503 -0.00000000000E+00 -0.00000000000E+00 -0.42782771757E+01  0.42782771757E+01  0.00000000000E+00 0. -1.
          5    1    1    2  501    0 -0.26012040865E+00  0.25301907397E+01  0.13910023575E+02  0.14901284631E+02  0.47000000000E+01 0. -1.
         -5    1    1    2    0  503  0.26012040865E+00 -0.25301907397E+01 -0.18951105869E+01  0.56701827081E+01  0.47000000000E+01 0. -1.
<mgrwt>
<rscale>  2 0.53441115E+01</rscale>
<asrwt>0</asrwt>
<pdfrwt beam="1">  1       21 0.25066446E-02 0.53441115E+01</pdfrwt>
<pdfrwt beam="2">  1       21 0.65819650E-03 0.53441115E+01</pdfrwt>
<totfact> 0.13823831E+09</totfact>
</mgrwt>
</event>
<event>
 4    1  0.3931501E+006  0.8180014E+01  0.7546771E-02  0.2196266E+00
         21   -1    0    0  503  502  0.00000000000E+00  0.00000000000E+00  0.56551833239E+00  0.56551833239E+00  0.00000000000E+00 0.  1.
         21   -1    0    0  501  503 -0.00000000000E+00 -0.00000000000E+00 -0.12620399663E+03  0.12620399663E+03  0.00000000000E+00 0.  1.
          5    1    1    2  501    0 -0.60576217387E+01 -0.28509390069E+01 -0.78660760408E+02  0.79084940806E+02  0.47000000000E+01 0.  1.
         -5    1    1    2    0  502  0.60576217387E+01  0.28509390069E+01 -0.46977717893E+02  0.47684574160E+02  0.47000000000E+01 0.  1.
<mgrwt>
<rscale>  2 0.81800143E+01</rscale>
<asrwt>0</asrwt>
<pdfrwt beam="1">  1       21 0.87002829E-04 0.81800143E+01</pdfrwt>
<pdfrwt beam="2">  1       21 0.19415998E-01 0.81800143E+01</pdfrwt>
<totfact> 0.13698111E+09</totfact>
</mgrwt>
</event>
<event>
 4    1  0.3931501E+006  0.5681118E+01  0.7546771E-02  0.2458871E+00
         21   -1    0    0  503  502  0.00000000000E+00  0.00000000000E+00  0.36315794229E+01  0.36315794229E+01  0.00000000000E+00 0.  1.
         21   -1    0    0  501  503 -0.00000000000E+00 -0.00000000000E+00 -0.10495477358E+02  0.10495477358E+02  0.00000000000E+00 0.  1.
          5    1    1    2  501    0 -0.14948746936E+01  0.28196546794E+01 -0.66703668865E+00  0.57201434252E+01  0.47000000000E+01 0.  1.
         -5    1    1    2    0  502  0.14948746936E+01 -0.28196546794E+01 -0.61968612461E+01  0.84069133553E+01  0.47000000000E+01 0.  1.
<mgrwt>
<rscale>  2 0.56811181E+01</rscale>
<asrwt>0</asrwt>
<pdfrwt beam="1">  1       21 0.55870454E-03 0.56811181E+01</pdfrwt>
<pdfrwt beam="2">  1       21 0.16146888E-02 0.56811181E+01</pdfrwt>
<totfact> 0.34403218E+09</totfact>
</mgrwt>
</event>
<event>
 4    1  0.3931501E+006  0.5408453E+01  0.7546771E-02  0.2499425E+00
         21   -1    0    0  503  502  0.00000000000E+00  0.00000000000E+00  0.66820172441E+02  0.66820172441E+02  0.00000000000E+00 0.  1.
         21   -1    0    0  501  503 -0.00000000000E+00 -0.00000000000E+00 -0.98262598854E+00  0.98262598854E+00  0.00000000000E+00 0. -1.
          5    1    1    2  501    0  0.24695775531E+01  0.10307993441E+01  0.76742377158E+01  0.93885720479E+01  0.47000000000E+01 0. -1.
         -5    1    1    2    0  502 -0.24695775531E+01 -0.10307993441E+01  0.58163308736E+02  0.58414226381E+02  0.47000000000E+01 0.  1.
<mgrwt>
<rscale>  2 0.54084527E+01</rscale>
<asrwt>0</asrwt>
<pdfrwt beam="1">  1       21 0.10280023E-01 0.54084527E+01</pdfrwt>
<pdfrwt beam="2">  1       21 0.15117328E-03 0.54084527E+01</pdfrwt>
<totfact> 0.13017178E+09</totfact>
</mgrwt>
</event>
<event>
 4    1  0.3931501E+006  0.8585607E+01  0.7546771E-02  0.2165721E+00
         21   -1    0    0  503  502  0.00000000000E+00  0.00000000000E+00  0.17439659507E+02  0.17439659507E+02  0.00000000000E+00 0. -1.
         21   -1    0    0  501  503 -0.00000000000E+00 -0.00000000000E+00 -0.52357472216E+01  0.52357472216E+01  0.00000000000E+00 0. -1.
          5    1    1    2  501    0  0.20830882080E+01  0.68762914092E+01  0.11247436874E+01  0.86589657805E+01  0.47000000000E+01 0. -1.
         -5    1    1    2    0  502 -0.20830882080E+01 -0.68762914092E+01  0.11079168597E+02  0.14016440948E+02  0.47000000000E+01 0. -1.
<mgrwt>
<rscale>  2 0.85856066E+01</rscale>
<asrwt>0</asrwt>
<pdfrwt beam="1">  1       21 0.26830245E-02 0.85856066E+01</pdfrwt>
<pdfrwt beam="2">  1       21 0.80549958E-03 0.85856066E+01</pdfrwt>
<totfact> 0.13590225E+09</totfact>
</mgrwt>
</event>
<event>
 4    1  0.3931501E+006  0.5158130E+01  0.7546771E-02  0.2539844E+00
         21   -1    0    0  503  502  0.00000000000E+00  0.00000000000E+00  0.26986977393E+00  0.26986977393E+00  0.00000000000E+00 0.  1.
         21   -1    0    0  501  503 -0.00000000000E+00 -0.00000000000E+00 -0.10075629414E+03  0.10075629414E+03  0.00000000000E+00 0.  1.
          5    1    1    2  501    0  0.29860150494E+00 -0.21040786801E+01 -0.57650898595E+02  0.57881192271E+02  0.47000000000E+01 0.  1.
         -5    1    1    2    0  502 -0.29860150494E+00  0.21040786801E+01 -0.42835525776E+02  0.43144971648E+02  0.47000000000E+01 0.  1.
<mgrwt>
<rscale>  2 0.51581305E+01</rscale>
<asrwt>0</asrwt>
<pdfrwt beam="1">  1       21 0.41518369E-04 0.51581305E+01</pdfrwt>
<pdfrwt beam="2">  1       21 0.15500990E-01 0.51581305E+01</pdfrwt>
<totfact> 0.36975534E+09</totfact>
</mgrwt>
</event>
<event>
 4    1  0.3931501E+006  0.1199510E+02  0.7546771E-02  0.1976553E+00
         21   -1    0    0  503  502  0.00000000000E+00  0.00000000000E+00  0.35810963290E+02  0.35810963290E+02  0.00000000000E+00 0.  1.
         21   -1    0    0  501  503 -0.00000000000E+00 -0.00000000000E+00 -0.86281279977E+01  0.86281279977E+01  0.00000000000E+00 0. -1.
          5    1    1    2  501    0  0.10641311209E+02 -0.29248609852E+01 -0.26506548534E+01  0.12284473419E+02  0.47000000000E+01 0. -1.
         -5    1    1    2    0  502 -0.10641311209E+02  0.29248609852E+01  0.29833490145E+02  0.32154617869E+02  0.47000000000E+01 0.  1.
<mgrwt>
<rscale>  2 0.11995095E+02</rscale>
<asrwt>0</asrwt>
<pdfrwt beam="1">  1       21 0.55093789E-02 0.11995095E+02</pdfrwt>
<pdfrwt beam="2">  1       21 0.13274043E-02 0.11995095E+02</pdfrwt>
<totfact> 0.26612229E+08</totfact>
</mgrwt>
</event>
<event>
 4    1  0.3931501E+006  0.4749362E+01  0.7546771E-02  0.2613634E+00
         21   -1    0    0  503  502  0.00000000000E+00  0.00000000000E+00  0.24001668427E+01  0.24001668427E+01  0.00000000000E+00 0. -1.
         21   -1    0    0  501  503 -0.00000000000E+00 -0.00000000000E+00 -0.77501927509E+02  0.77501927509E+02  0.00000000000E+00 0. -1.
          5    1    1    2  501    0 -0.62716963026E+00  0.27036721984E+00 -0.75001450151E+02  0.75151673068E+02  0.47000000000E+01 0. -1.
         -5    1    1    2    0  502  0.62716963026E+00 -0.27036721984E+00 -0.10031051598E+00  0.47504212843E+01  0.47000000000E+01 0. -1.
<mgrwt>
<rscale>  2 0.47493621E+01</rscale>
<asrwt>0</asrwt>
<pdfrwt beam="1">  1       21 0.36925640E-03 0.47493621E+01</pdfrwt>
<pdfrwt beam="2">  1       21 0.11923375E-01 0.47493621E+01</pdfrwt>
<totfact> 0.27701870E+08</totfact>
</mgrwt>
</event>
<event>
 4    1  0.3931501E+006  0.6549876E+01  0.7546771E-02  0.2348916E+00
         21   -1    0    0  501  502  0.00000000000E+00  0.00000000000E+00  0.11171163087E+02  0.11171163087E+02  0.00000000000E+00 0. -1.
         21   -1    0    0  502  503 -0.00000000000E+00 -0.00000000000E+00 -0.38430339200E+01  0.38430339200E+01  0.00000000000E+00 0. -1.
          5    1    1    2  501    0 -0.45428517260E+01  0.41637770259E+00  0.34646714693E+01  0.74097787137E+01  0.47000000000E+01 0. -1.
         -5    1    1    2    0  503  0.45428517260E+01 -0.41637770259E+00  0.38634576972E+01  0.76044182929E+01  0.47000000000E+01 0. -1.
<mgrwt>
<rscale>  2 0.65498757E+01</rscale>
<asrwt>0</asrwt>
<pdfrwt beam="1">  1       21 0.17186405E-02 0.65498757E+01</pdfrwt>
<pdfrwt beam="2">  1       21 0.59123599E-03 0.65498757E+01</pdfrwt>
<totfact> 0.32995003E+09</totfact>
</mgrwt>
</event>
<event>
 4    1  0.3931501E+006  0.6166301E+01  0.7546771E-02  0.2394269E+00
         21   -1    0    0  503  502  0.00000000000E+00  0.00000000000E+00  0.70352009278E+02  0.70352009278E+02  0.00000000000E+00 0. -1.
         21   -1    0    0  501  503 -0.00000000000E+00 -0.00000000000E+00 -0.56517342906E+00  0.56517342906E+00  0.00000000000E+00 0. -1.
          5    1    1    2  501    0  0.39330195182E+01  0.68163339451E+00  0.27480405685E+02  0.28163734895E+02  0.47000000000E+01 0. -1.
         -5    1    1    2    0  502 -0.39330195182E+01 -0.68163339451E+00  0.42306430164E+02  0.42753447812E+02  0.47000000000E+01 0. -1.
<mgrwt>
<rscale>  2 0.61663009E+01</rscale>
<asrwt>0</asrwt>
<pdfrwt beam="1">  1       21 0.10823379E-01 0.61663009E+01</pdfrwt>
<pdfrwt beam="2">  1       21 0.86949814E-04 0.61663009E+01</pdfrwt>
<totfact> 0.28271284E+09</totfact>
</mgrwt>
</event>
<event>
 4    1  0.3931501E+006  0.5771350E+01  0.7546771E-02  0.2446168E+00
         21   -1    0    0  503  502  0.00000000000E+00  0.00000000000E+00  0.55715889074E+01  0.55715889074E+01  0.00000000000E+00 0. -1.
         21   -1    0    0  501  503 -0.00000000000E+00 -0.00000000000E+00 -0.87130179535E+01  0.87130179535E+01  0.00000000000E+00 0.  1.
          5    1    1    2  501    0 -0.74455191511E+00  0.32655975366E+01 -0.55721178742E+01  0.80222803759E+01  0.47000000000E+01 0. -1.
         -5    1    1    2    0  502  0.74455191511E+00 -0.32655975366E+01  0.24306888282E+01  0.62623264850E+01  0.47000000000E+01 0. -1.
<mgrwt>
<rscale>  2 0.57713503E+01</rscale>
<asrwt>0</asrwt>
<pdfrwt beam="1">  1       21 0.85716753E-03 0.57713503E+01</pdfrwt>
<pdfrwt beam="2">  1       21 0.13404643E-02 0.57713503E+01</pdfrwt>
<totfact> 0.25018217E+09</totfact>
</mgrwt>
</event>
<event>
 4    1  0.3931501E+006  0.6819287E+01  0.7546771E-02  0.2319607E+00
         21   -1    0    0  501  502  0.00000000000E+00  0.00000000000E+00  0.38727587009E+00  0.38727587009E+00  0.00000000000E+00 0.  1.
         21   -1    0    0  502  503 -0.00000000000E+00 -0.00000000000E+00 -0.16582295003E+03  0.16582295003E+03  0.00000000000E+00 0. -1.
          5    1    1    2  501    0  0.48265946852E+01 -0.10567179793E+01 -0.39067773269E+02  0.39658461611E+02  0.47000000000E+01 0. -1.
         -5    1    1    2    0  503 -0.48265946852E+01  0.10567179793E+01 -0.12636790089E+03  0.12655176429E+03  0.47000000000E+01 0.  1.
<mgrwt>
<rscale>  2 0.68192866E+01</rscale>
<asrwt>0</asrwt>
<pdfrwt beam="1">  1       21 0.59580716E-04 0.68192866E+01</pdfrwt>
<pdfrwt beam="2">  1       21 0.25511303E-01 0.68192866E+01</pdfrwt>
<totfact> 0.12863960E+09</totfact>
</mgrwt>
</event>
<event>
 4    1  0.3931501E+006  0.5719675E+01  0.7546771E-02  0.2453401E+00
         21   -1    0    0  501  502  0.00000000000E+00  0.00000000000E+00  0.12574893665E+01  0.12574893665E+01  0.00000000000E+00 0.  1.
         21   -1    0    0  502  503 -0.00000000000E+00 -0.00000000000E+00 -0.30590195280E+02  0.30590195280E+02  0.00000000000E+00 0.  1.
          5    1    1    2  501    0 -0.20239946377E+01 -0.25550210514E+01 -0.85086320308E+01  0.10252390253E+02  0.47000000000E+01 0.  1.
         -5    1    1    2    0  503  0.20239946377E+01  0.25550210514E+01 -0.20824073882E+02  0.21595294393E+02  0.47000000000E+01 0.  1.
<mgrwt>
<rscale>  2 0.57196754E+01</rscale>
<asrwt>0</asrwt>
<pdfrwt beam="1">  1       21 0.19345993E-03 0.57196754E+01</pdfrwt>
<pdfrwt beam="2">  1       21 0.47061832E-02 0.57196754E+01</pdfrwt>
<totfact> 0.31580415E+09</totfact>
</mgrwt>
</event>
<event>
 4    1  0.3931501E+006  0.5787591E+01  0.7546771E-02  0.2443917E+00
         21   -1    0    0  503  502  0.00000000000E+00  0.00000000000E+00  0.53064065036E+01  0.53064065036E+01  0.00000000000E+00 0.  1.
         21   -1    0    0  501  503 -0.00000000000E+00 -0.00000000000E+00 -0.79532857603E+01  0.79532857603E+01  0.00000000000E+00 0.  1.
          5    1    1    2  501    0 -0.22308182345E+01  0.25356776604E+01 -0.43348369689E+01  0.72309766104E+01  0.47000000000E+01 0.  1.
         -5    1    1    2    0  502  0.22308182345E+01 -0.25356776604E+01  0.16879577122E+01  0.60287156535E+01  0.47000000000E+01 0.  1.
<mgrwt>
<rscale>  2 0.57875911E+01</rscale>
<asrwt>0</asrwt>
<pdfrwt beam="1">  1       21 0.81637024E-03 0.57875911E+01</pdfrwt>
<pdfrwt beam="2">  1       21 0.12235824E-02 0.57875911E+01</pdfrwt>
<totfact> 0.30560635E+09</totfact>
</mgrwt>
</event>
<event>
 4    1  0.3931501E+006  0.8166345E+01  0.7546771E-02  0.2197338E+00
         21   -1    0    0  501  502  0.00000000000E+00  0.00000000000E+00  0.64159643682E+02  0.64159643682E+02  0.00000000000E+00 0.  1.
         21   -1    0    0  502  503 -0.00000000000E+00 -0.00000000000E+00 -0.14960557415E+01  0.14960557415E+01  0.00000000000E+00 0. -1.
          5    1    1    2  501    0 -0.33202211418E+00 -0.66700044681E+01  0.49468176709E+02  0.50137707419E+02  0.47000000000E+01 0.  1.
         -5    1    1    2    0  503  0.33202211418E+00  0.66700044681E+01  0.13195411231E+02  0.15517992004E+02  0.47000000000E+01 0. -1.
<mgrwt>
<rscale>  2 0.81663455E+01</rscale>
<asrwt>0</asrwt>
<pdfrwt beam="1">  1       21 0.98707123E-02 0.81663455E+01</pdfrwt>
<pdfrwt beam="2">  1       21 0.23016247E-03 0.81663455E+01</pdfrwt>
<totfact> 0.10631708E+09</totfact>
</mgrwt>
</event>
<event>
 4    1  0.3931501E+006  0.7848543E+01  0.7546771E-02  0.2223096E+00
         21   -1    0    0  501  502  0.00000000000E+00  0.00000000000E+00  0.10861292126E+04  0.10861292126E+04  0.00000000000E+00 0. -1.
         21   -1    0    0  502  503 -0.00000000000E+00 -0.00000000000E+00 -0.15901189631E+00  0.15901189631E+00  0.00000000000E+00 0. -1.
          5    1    1    2  501    0  0.44624478758E+01  0.44267584375E+01  0.97862922561E+03  0.97866069751E+03  0.47000000000E+01 0. -1.
         -5    1    1    2    0  503 -0.44624478758E+01 -0.44267584375E+01  0.10734097514E+03  0.10762752704E+03  0.47000000000E+01 0. -1.
<mgrwt>
<rscale>  2 0.78485433E+01</rscale>
<asrwt>0</asrwt>
<pdfrwt beam="1">  1       21 0.16709086E+00 0.78485433E+01</pdfrwt>
<pdfrwt beam="2">  1       21 0.24464238E-04 0.78485433E+01</pdfrwt>
<totfact> 0.12495765E+08</totfact>
</mgrwt>
</event>
<event>
 4    1  0.3931501E+006  0.6095537E+01  0.7546771E-02  0.2403153E+00
         21   -1    0    0  503  502  0.00000000000E+00  0.00000000000E+00  0.24659390673E+01  0.24659390673E+01  0.00000000000E+00 0. -1.
         21   -1    0    0  501  503 -0.00000000000E+00 -0.00000000000E+00 -0.34429272887E+02  0.34429272887E+02  0.00000000000E+00 0. -1.
          5    1    1    2  501    0  0.34285275359E+01 -0.18195520866E+01 -0.29815689955E+02  0.30432399484E+02  0.47000000000E+01 0. -1.
         -5    1    1    2    0  502 -0.34285275359E+01  0.18195520866E+01 -0.21476438652E+01  0.64628124708E+01  0.47000000000E+01 0. -1.
<mgrwt>
<rscale>  2 0.60955370E+01</rscale>
<asrwt>0</asrwt>
<pdfrwt beam="1">  1       21 0.37937523E-03 0.60955370E+01</pdfrwt>
<pdfrwt beam="2">  1       21 0.52968114E-02 0.60955370E+01</pdfrwt>
<totfact> 0.11132242E+09</totfact>
</mgrwt>
</event>
<event>
 4    1  0.3931501E+006  0.5603636E+01  0.7546771E-02  0.2470055E+00
         21   -1    0    0  503  502  0.00000000000E+00  0.00000000000E+00  0.30432880208E+02  0.30432880208E+02  0.00000000000E+00 0.  1.
         21   -1    0    0  501  503 -0.00000000000E+00 -0.00000000000E+00 -0.12994851729E+01  0.12994851729E+01  0.00000000000E+00 0.  1.
          5    1    1    2  501    0  0.30488022843E+01  0.12468354402E+00  0.73656380514E+01  0.92549103323E+01  0.47000000000E+01 0.  1.
         -5    1    1    2    0  502 -0.30488022843E+01 -0.12468354402E+00  0.21767756984E+02  0.22477455048E+02  0.47000000000E+01 0.  1.
<mgrwt>
<rscale>  2 0.56036364E+01</rscale>
<asrwt>0</asrwt>
<pdfrwt beam="1">  1       21 0.46819810E-02 0.56036364E+01</pdfrwt>
<pdfrwt beam="2">  1       21 0.19992082E-03 0.56036364E+01</pdfrwt>
<totfact> 0.29876062E+09</totfact>
</mgrwt>
</event>
<event>
 4    1  0.3931501E+006  0.9168584E+01  0.7546771E-02  0.2125641E+00
         21   -1    0    0  503  502  0.00000000000E+00  0.00000000000E+00  0.10922489033E+02  0.10922489033E+02  0.00000000000E+00 0.  1.
         21   -1    0    0  501  503 -0.00000000000E+00 -0.00000000000E+00 -0.31983892560E+02  0.31983892560E+02  0.00000000000E+00 0. -1.
          5    1    1    2  501    0  0.64239796390E+01  0.45503200099E+01 -0.29225394347E+02  0.30629831886E+02  0.47000000000E+01 0. -1.
         -5    1    1    2    0  502 -0.64239796390E+01 -0.45503200099E+01  0.81639908204E+01  0.12276549707E+02  0.47000000000E+01 0.  1.
<mgrwt>
<rscale>  2 0.91685837E+01</rscale>
<asrwt>0</asrwt>
<pdfrwt beam="1">  1       21 0.16803829E-02 0.91685837E+01</pdfrwt>
<pdfrwt beam="2">  1       21 0.49205989E-02 0.91685837E+01</pdfrwt>
<totfact> 0.19606487E+08</totfact>
</mgrwt>
</event>
<event>
 4    1  0.3931501E+006  0.8941152E+01  0.7546771E-02  0.2140782E+00
         21   -1    0    0  503  502  0.00000000000E+00  0.00000000000E+00  0.17413300375E+02  0.17413300375E+02  0.00000000000E+00 0.  1.
         21   -1    0    0  501  503 -0.00000000000E+00 -0.00000000000E+00 -0.71419686158E+01  0.71419686158E+01  0.00000000000E+00 0.  1.
          5    1    1    2  501    0  0.72106241812E+01 -0.24209697240E+01 -0.22020280472E+01  0.92083181422E+01  0.47000000000E+01 0.  1.
         -5    1    1    2    0  502 -0.72106241812E+01  0.24209697240E+01  0.12473359806E+02  0.15346950848E+02  0.47000000000E+01 0.  1.
<mgrwt>
<rscale>  2 0.89411518E+01</rscale>
<asrwt>0</asrwt>
<pdfrwt beam="1">  1       21 0.26789693E-02 0.89411518E+01</pdfrwt>
<pdfrwt beam="2">  1       21 0.10987644E-02 0.89411518E+01</pdfrwt>
<totfact> 0.89415847E+08</totfact>
</mgrwt>
</event>
<event>
 4    1  0.3931501E+006  0.5798332E+01  0.7546771E-02  0.2442434E+00
         21   -1    0    0  501  502  0.00000000000E+00  0.00000000000E+00  0.49648769312E+02  0.49648769312E+02  0.00000000000E+00 0.  1.
         21   -1    0    0  502  503 -0.00000000000E+00 -0.00000000000E+00 -0.13350524729E+01  0.13350524729E+01  0.00000000000E+00 0.  1.
          5    1    1    2  501    0  0.33178191365E+01 -0.72299957083E+00  0.42051681734E+02  0.42449553459E+02  0.47000000000E+01 0.  1.
         -5    1    1    2    0  503 -0.33178191365E+01  0.72299957083E+00  0.62620351052E+01  0.85342683260E+01  0.47000000000E+01 0.  1.
<mgrwt>
<rscale>  2 0.57983318E+01</rscale>
<asrwt>0</asrwt>
<pdfrwt beam="1">  1       21 0.76382708E-02 0.57983318E+01</pdfrwt>
<pdfrwt beam="2">  1       21 0.20539273E-03 0.57983318E+01</pdfrwt>
<totfact> 0.14318205E+09</totfact>
</mgrwt>
</event>
<event>
 4    1  0.3931501E+006  0.6757378E+01  0.7546771E-02  0.2326171E+00
         21   -1    0    0  501  502  0.00000000000E+00  0.00000000000E+00  0.89901713103E+03  0.89901713103E+03  0.00000000000E+00 0. -1.
         21   -1    0    0  502  503 -0.00000000000E+00 -0.00000000000E+00 -0.92554561738E-01  0.92554561738E-01  0.00000000000E+00 0.  1.
          5    1    1    2  501    0  0.24679426234E+01  0.41810783963E+01  0.75144459623E+03  0.75147497854E+03  0.47000000000E+01 0. -1.
         -5    1    1    2    0  503 -0.24679426234E+01 -0.41810783963E+01  0.14747998023E+03  0.14763470705E+03  0.47000000000E+01 0.  1.
<mgrwt>
<rscale>  2 0.67573780E+01</rscale>
<asrwt>0</asrwt>
<pdfrwt beam="1">  1       21 0.13830333E+00 0.67573780E+01</pdfrwt>
<pdfrwt beam="2">  1       21 0.14239883E-04 0.67573780E+01</pdfrwt>
<totfact> 0.36188831E+08</totfact>
</mgrwt>
</event>
<event>
 4    1  0.3931501E+006  0.7539827E+01  0.7546771E-02  0.2249783E+00
         21   -1    0    0  501  502  0.00000000000E+00  0.00000000000E+00  0.52818400925E+01  0.52818400925E+01  0.00000000000E+00 0. -1.
         21   -1    0    0  502  503 -0.00000000000E+00 -0.00000000000E+00 -0.15219119766E+02  0.15219119766E+02  0.00000000000E+00 0.  1.
          5    1    1    2  501    0  0.14086297979E+01  0.57249233250E+01  0.57790945528E+00  0.75619418355E+01  0.47000000000E+01 0. -1.
         -5    1    1    2    0  503 -0.14086297979E+01 -0.57249233250E+01 -0.10515189128E+02  0.12939018023E+02  0.47000000000E+01 0.  1.
<mgrwt>
<rscale>  2 0.75398266E+01</rscale>
<asrwt>0</asrwt>
<pdfrwt beam="1">  1       21 0.81259079E-03 0.75398266E+01</pdfrwt>
<pdfrwt beam="2">  1       21 0.23414030E-02 0.75398266E+01</pdfrwt>
<totfact> 0.14998319E+09</totfact>
</mgrwt>
</event>
<event>
 4    1  0.3931501E+006  0.4851588E+01  0.7546771E-02  0.2594175E+00
         21   -1    0    0  501  502  0.00000000000E+00  0.00000000000E+00  0.19863160233E+02  0.19863160233E+02  0.00000000000E+00 0.  1.
         21   -1    0    0  502  503 -0.00000000000E+00 -0.00000000000E+00 -0.12693780558E+01  0.12693780558E+01  0.00000000000E+00 0.  1.
          5    1    1    2  501    0 -0.10616249089E+01 -0.56644592829E+00  0.12021051628E+02  0.12963162834E+02  0.47000000000E+01 0.  1.
         -5    1    1    2    0  503  0.10616249089E+01  0.56644592829E+00  0.65727305496E+01  0.81693754544E+01  0.47000000000E+01 0.  1.
<mgrwt>
<rscale>  2 0.48515882E+01</rscale>
<asrwt>0</asrwt>
<pdfrwt beam="1">  1       21 0.30558706E-02 0.48515882E+01</pdfrwt>
<pdfrwt beam="2">  1       21 0.19528895E-03 0.48515882E+01</pdfrwt>
<totfact> 0.49581645E+09</totfact>
</mgrwt>
</event>
<event>
 4    1  0.3931501E+006  0.4742443E+01  0.7546771E-02  0.2614978E+00
         21   -1    0    0  503  502  0.00000000000E+00  0.00000000000E+00  0.13834599228E+02  0.13834599228E+02  0.00000000000E+00 0.  1.
         21   -1    0    0  501  503 -0.00000000000E+00 -0.00000000000E+00 -0.17103470613E+01  0.17103470613E+01  0.00000000000E+00 0.  1.
          5    1    1    2  501    0  0.24842989233E+00  0.58227882161E+00  0.43329096038E+01  0.64237739431E+01  0.47000000000E+01 0.  1.
         -5    1    1    2    0  502 -0.24842989233E+00 -0.58227882161E+00  0.77913425631E+01  0.91211723464E+01  0.47000000000E+01 0.  1.
<mgrwt>
<rscale>  2 0.47424430E+01</rscale>
<asrwt>0</asrwt>
<pdfrwt beam="1">  1       21 0.21283998E-02 0.47424430E+01</pdfrwt>
<pdfrwt beam="2">  1       21 0.26313033E-03 0.47424430E+01</pdfrwt>
<totfact> 0.54192211E+09</totfact>
</mgrwt>
</event>
<event>
 4    1  0.3931501E+006  0.6582234E+01  0.7546771E-02  0.2345291E+00
         21   -1    0    0  503  502  0.00000000000E+00  0.00000000000E+00  0.14038236989E+02  0.14038236989E+02  0.00000000000E+00 0. -1.
         21   -1    0    0  501  503 -0.00000000000E+00 -0.00000000000E+00 -0.52785528811E+01  0.52785528811E+01  0.00000000000E+00 0. -1.
          5    1    1    2  501    0 -0.18888340775E+01  0.42033449138E+01 -0.18445326109E+01  0.68357957247E+01  0.47000000000E+01 0. -1.
         -5    1    1    2    0  502  0.18888340775E+01 -0.42033449138E+01  0.10604216718E+02  0.12480994145E+02  0.47000000000E+01 0. -1.
<mgrwt>
<rscale>  2 0.65822339E+01</rscale>
<asrwt>0</asrwt>
<pdfrwt beam="1">  1       21 0.21597288E-02 0.65822339E+01</pdfrwt>
<pdfrwt beam="2">  1       21 0.81208506E-03 0.65822339E+01</pdfrwt>
<totfact> 0.15244203E+09</totfact>
</mgrwt>
</event>
<event>
 4    1  0.3931501E+006  0.1401871E+02  0.7546771E-02  0.1899578E+00
         21   -1    0    0  501  502  0.00000000000E+00  0.00000000000E+00  0.96928042315E+00  0.96928042315E+00  0.00000000000E+00 0.  1.
         21   -1    0    0  502  503 -0.00000000000E+00 -0.00000000000E+00 -0.20666760827E+03  0.20666760827E+03  0.00000000000E+00 0.  1.
          5    1    1    2  501    0 -0.11615577933E+02  0.62858936959E+01 -0.11713828604E+03  0.11797415889E+03  0.47000000000E+01 0.  1.
         -5    1    1    2    0  503  0.11615577933E+02 -0.62858936959E+01 -0.88560041801E+02  0.89662729794E+02  0.47000000000E+01 0.  1.
<mgrwt>
<rscale>  2 0.14018706E+02</rscale>
<asrwt>0</asrwt>
<pdfrwt beam="1">  1       21 0.14912002E-03 0.14018706E+02</pdfrwt>
<pdfrwt beam="2">  1       21 0.31795025E-01 0.14018706E+02</pdfrwt>
<totfact> 0.36753871E+08</totfact>
</mgrwt>
</event>
<event>
 4    1  0.3931501E+006  0.6680790E+01  0.7546771E-02  0.2334431E+00
         21   -1    0    0  501  502  0.00000000000E+00  0.00000000000E+00  0.13259339943E+02  0.13259339943E+02  0.00000000000E+00 0.  1.
         21   -1    0    0  502  503 -0.00000000000E+00 -0.00000000000E+00 -0.67252288021E+01  0.67252288021E+01  0.00000000000E+00 0. -1.
          5    1    1    2  501    0  0.47400900383E+01  0.27295179859E+00  0.10328949780E+02  0.12301225948E+02  0.47000000000E+01 0.  1.
         -5    1    1    2    0  503 -0.47400900383E+01 -0.27295179859E+00 -0.37948386388E+01  0.76833427979E+01  0.47000000000E+01 0. -1.
<mgrwt>
<rscale>  2 0.66807901E+01</rscale>
<asrwt>0</asrwt>
<pdfrwt beam="1">  1       21 0.20398985E-02 0.66807901E+01</pdfrwt>
<pdfrwt beam="2">  1       21 0.10346506E-02 0.66807901E+01</pdfrwt>
<totfact> 0.11882629E+09</totfact>
</mgrwt>
</event>
<event>
 4    1  0.3931501E+006  0.4898858E+01  0.7546771E-02  0.2585415E+00
         21   -1    0    0  503  502  0.00000000000E+00  0.00000000000E+00  0.42277470623E+02  0.42277470623E+02  0.00000000000E+00 0.  1.
         21   -1    0    0  501  503 -0.00000000000E+00 -0.00000000000E+00 -0.10714055789E+01  0.10714055789E+01  0.00000000000E+00 0.  1.
          5    1    1    2  501    0  0.12275609961E+01  0.63396110485E+00  0.57409125072E+01  0.75469788059E+01  0.47000000000E+01 0.  1.
         -5    1    1    2    0  502 -0.12275609961E+01 -0.63396110485E+00  0.35465152537E+02  0.35801897396E+02  0.47000000000E+01 0.  1.
<mgrwt>
<rscale>  2 0.48988583E+01</rscale>
<asrwt>0</asrwt>
<pdfrwt beam="1">  1       21 0.65042250E-02 0.48988583E+01</pdfrwt>
<pdfrwt beam="2">  1       21 0.16483166E-03 0.48988583E+01</pdfrwt>
<totfact> 0.20974282E+09</totfact>
</mgrwt>
</event>
<event>
 4    1  0.3931501E+006  0.1707346E+02  0.7546771E-02  0.1810687E+00
         21   -1    0    0  503  502  0.00000000000E+00  0.00000000000E+00  0.16452294799E+03  0.16452294799E+03  0.00000000000E+00 0. -1.
         21   -1    0    0  501  503 -0.00000000000E+00 -0.00000000000E+00 -0.18175113009E+01  0.18175113009E+01  0.00000000000E+00 0.  1.
          5    1    1    2  501    0  0.10501488702E+02  0.12614740663E+02  0.68163871201E+02  0.70269597153E+02  0.47000000000E+01 0.  1.
         -5    1    1    2    0  502 -0.10501488702E+02 -0.12614740663E+02  0.94541565488E+02  0.96070862138E+02  0.47000000000E+01 0. -1.
<mgrwt>
<rscale>  2 0.17073457E+02</rscale>
<asrwt>0</asrwt>
<pdfrwt beam="1">  1       21 0.25311211E-01 0.17073457E+02</pdfrwt>
<pdfrwt beam="2">  1       21 0.27961725E-03 0.17073457E+02</pdfrwt>
<totfact> 0.24238588E+08</totfact>
</mgrwt>
</event>
<event>
 4    1  0.3931501E+006  0.6948494E+01  0.7546771E-02  0.2306218E+00
         21   -1    0    0  503  502  0.00000000000E+00  0.00000000000E+00  0.12751895968E+02  0.12751895968E+02  0.00000000000E+00 0.  1.
         21   -1    0    0  501  503 -0.00000000000E+00 -0.00000000000E+00 -0.37868780848E+01  0.37868780848E+01  0.00000000000E+00 0.  1.
          5    1    1    2  501    0  0.47229898901E+01 -0.19710253500E+01  0.43740890048E+01  0.82106168498E+01  0.47000000000E+01 0.  1.
         -5    1    1    2    0  502 -0.47229898901E+01  0.19710253500E+01  0.45909288785E+01  0.83281572031E+01  0.47000000000E+01 0.  1.
<mgrwt>
<rscale>  2 0.69484944E+01</rscale>
<asrwt>0</asrwt>
<pdfrwt beam="1">  1       21 0.19618301E-02 0.69484944E+01</pdfrwt>
<pdfrwt beam="2">  1       21 0.58259663E-03 0.69484944E+01</pdfrwt>
<totfact> 0.29191014E+09</totfact>
</mgrwt>
</event>
<event>
 4    1  0.3931501E+006  0.5075207E+01  0.7546771E-02  0.2553983E+00
         21   -1    0    0  503  502  0.00000000000E+00  0.00000000000E+00  0.16565261855E+01  0.16565261855E+01  0.00000000000E+00 0.  1.
         21   -1    0    0  501  503 -0.00000000000E+00 -0.00000000000E+00 -0.31831172270E+02  0.31831172270E+02  0.00000000000E+00 0.  1.
          5    1    1    2  501    0 -0.19053239835E+01 -0.19355453775E+00 -0.27062500647E+02  0.27534281616E+02  0.47000000000E+01 0.  1.
         -5    1    1    2    0  502  0.19053239835E+01  0.19355453775E+00 -0.31121454376E+01  0.59534168396E+01  0.47000000000E+01 0.  1.
<mgrwt>
<rscale>  2 0.50752067E+01</rscale>
<asrwt>0</asrwt>
<pdfrwt beam="1">  1       21 0.25485016E-03 0.50752067E+01</pdfrwt>
<pdfrwt beam="2">  1       21 0.48971038E-02 0.50752067E+01</pdfrwt>
<totfact> 0.18330250E+09</totfact>
</mgrwt>
</event>
<event>
 4    1  0.3931501E+006  0.7983495E+01  0.7546771E-02  0.2211956E+00
         21   -1    0    0  503  502  0.00000000000E+00  0.00000000000E+00  0.64935488733E+02  0.64935488733E+02  0.00000000000E+00 0. -1.
         21   -1    0    0  501  503 -0.00000000000E+00 -0.00000000000E+00 -0.40999673746E+01  0.40999673746E+01  0.00000000000E+00 0.  1.
          5    1    1    2  501    0 -0.13193684572E+01 -0.63170761822E+01  0.31402046122E+00  0.79896679197E+01  0.47000000000E+01 0.  1.
         -5    1    1    2    0  502  0.13193684572E+01  0.63170761822E+01  0.60521500897E+02  0.61045788188E+02  0.47000000000E+01 0. -1.
<mgrwt>
<rscale>  2 0.79834945E+01</rscale>
<asrwt>0</asrwt>
<pdfrwt beam="1">  1       21 0.99900745E-02 0.79834945E+01</pdfrwt>
<pdfrwt beam="2">  1       21 0.63076426E-03 0.79834945E+01</pdfrwt>
<totfact> 0.25003340E+08</totfact>
</mgrwt>
</event>
<event>
 4    1  0.3931501E+006  0.6342656E+01  0.7546771E-02  0.2372851E+00
         21   -1    0    0  501  502  0.00000000000E+00  0.00000000000E+00  0.39819338832E+02  0.39819338832E+02  0.00000000000E+00 0.  1.
         21   -1    0    0  502  503 -0.00000000000E+00 -0.00000000000E+00 -0.14151075982E+01  0.14151075982E+01  0.00000000000E+00 0.  1.
          5    1    1    2  501    0  0.22479313313E+01  0.36174706611E+01  0.30229240987E+02  0.30887478044E+02  0.47000000000E+01 0.  1.
         -5    1    1    2    0  503 -0.22479313313E+01 -0.36174706611E+01  0.81749902467E+01  0.10346968386E+02  0.47000000000E+01 0.  1.
<mgrwt>
<rscale>  2 0.63426563E+01</rscale>
<asrwt>0</asrwt>
<pdfrwt beam="1">  1       21 0.61260513E-02 0.63426563E+01</pdfrwt>
<pdfrwt beam="2">  1       21 0.21770889E-03 0.63426563E+01</pdfrwt>
<totfact> 0.19855048E+09</totfact>
</mgrwt>
</event>
<event>
 4    1  0.3931501E+006  0.7786559E+01  0.7546771E-02  0.2228317E+00
         21   -1    0    0  503  502  0.00000000000E+00  0.00000000000E+00  0.72247827073E+02  0.72247827073E+02  0.00000000000E+00 0.  1.
         21   -1    0    0  501  503 -0.00000000000E+00 -0.00000000000E+00 -0.25686150213E+01  0.25686150213E+01  0.00000000000E+00 0. -1.
          5    1    1    2  501    0 -0.62046648657E+01  0.20646386037E+00  0.41446541412E+01  0.88209212315E+01  0.47000000000E+01 0. -1.
         -5    1    1    2    0  502  0.62046648657E+01 -0.20646386037E+00  0.65534557910E+02  0.65995520863E+02  0.47000000000E+01 0.  1.
<mgrwt>
<rscale>  2 0.77865585E+01</rscale>
<asrwt>0</asrwt>
<pdfrwt beam="1">  1       21 0.11115049E-01 0.77865585E+01</pdfrwt>
<pdfrwt beam="2">  1       21 0.39517160E-03 0.77865585E+01</pdfrwt>
<totfact> 0.40283149E+08</totfact>
</mgrwt>
</event>
<event>
 4    1  0.3931501E+006  0.9549609E+01  0.7546771E-02  0.2101564E+00
         21   -1    0    0  501  502  0.00000000000E+00  0.00000000000E+00  0.16119895164E+03  0.16119895164E+03  0.00000000000E+00 0. -1.
         21   -1    0    0  502  503 -0.00000000000E+00 -0.00000000000E+00 -0.10253954712E+01  0.10253954712E+01  0.00000000000E+00 0.  1.
          5    1    1    2  501    0  0.79237624132E+01 -0.25137659993E+01  0.13439448144E+03  0.13473333541E+03  0.47000000000E+01 0. -1.
         -5    1    1    2    0  503 -0.79237624132E+01  0.25137659993E+01  0.25779074734E+02  0.27491011703E+02  0.47000000000E+01 0.  1.
<mgrwt>
<rscale>  2 0.95496089E+01</rscale>
<asrwt>0</asrwt>
<pdfrwt beam="1">  1       21 0.24799819E-01 0.95496089E+01</pdfrwt>
<pdfrwt beam="2">  1       21 0.15775328E-03 0.95496089E+01</pdfrwt>
<totfact> 0.43903357E+08</totfact>
</mgrwt>
</event>
<event>
 4    1  0.3931501E+006  0.5070009E+01  0.7546771E-02  0.2554882E+00
         21   -1    0    0  501  502  0.00000000000E+00  0.00000000000E+00  0.62529395197E+01  0.62529395197E+01  0.00000000000E+00 0.  1.
         21   -1    0    0  502  503 -0.00000000000E+00 -0.00000000000E+00 -0.42539952320E+01  0.42539952320E+01  0.00000000000E+00 0.  1.
          5    1    1    2  501    0 -0.13402952805E+01  0.13485552652E+01  0.35837033047E-01  0.50701358005E+01  0.47000000000E+01 0.  1.
         -5    1    1    2    0  503  0.13402952805E+01 -0.13485552652E+01  0.19631072546E+01  0.54367989512E+01  0.47000000000E+01 0.  1.
<mgrwt>
<rscale>  2 0.50700091E+01</rscale>
<asrwt>0</asrwt>
<pdfrwt beam="1">  1       21 0.96199070E-03 0.50700091E+01</pdfrwt>
<pdfrwt beam="2">  1       21 0.65446080E-03 0.50700091E+01</pdfrwt>
<totfact> 0.51176876E+09</totfact>
</mgrwt>
</event>
<event>
 4    1  0.3931501E+006  0.5153119E+01  0.7546771E-02  0.2540687E+00
         21   -1    0    0  501  502  0.00000000000E+00  0.00000000000E+00  0.26423742428E+03  0.26423742428E+03  0.00000000000E+00 0. -1.
         21   -1    0    0  502  503 -0.00000000000E+00 -0.00000000000E+00 -0.15469312759E+00  0.15469312759E+00  0.00000000000E+00 0. -1.
          5    1    1    2  501    0 -0.17301650321E+01  0.12129172391E+01  0.21028943529E+03  0.21035256412E+03  0.47000000000E+01 0. -1.
         -5    1    1    2    0  503  0.17301650321E+01 -0.12129172391E+01  0.53793295859E+02  0.54039553280E+02  0.47000000000E+01 0. -1.
<mgrwt>
<rscale>  2 0.51531194E+01</rscale>
<asrwt>0</asrwt>
<pdfrwt beam="1">  1       21 0.40651550E-01 0.51531194E+01</pdfrwt>
<pdfrwt beam="2">  1       21 0.23799154E-04 0.51531194E+01</pdfrwt>
<totfact> 0.15968076E+09</totfact>
</mgrwt>
</event>
<event>
 4    1  0.3931501E+006  0.6417192E+01  0.7546771E-02  0.2364095E+00
         21   -1    0    0  503  502  0.00000000000E+00  0.00000000000E+00  0.45649112107E+02  0.45649112107E+02  0.00000000000E+00 0. -1.
         21   -1    0    0  501  503 -0.00000000000E+00 -0.00000000000E+00 -0.98885069988E+00  0.98885069988E+00  0.00000000000E+00 0. -1.
          5    1    1    2  501    0 -0.37694888631E+01 -0.22093671955E+01  0.15423518963E+02  0.16705247286E+02  0.47000000000E+01 0. -1.
         -5    1    1    2    0  502  0.37694888631E+01  0.22093671955E+01  0.29236742444E+02  0.29932715521E+02  0.47000000000E+01 0. -1.
<mgrwt>
<rscale>  2 0.64171917E+01</rscale>
<asrwt>0</asrwt>
<pdfrwt beam="1">  1       21 0.70229387E-02 0.64171917E+01</pdfrwt>
<pdfrwt beam="2">  1       21 0.15213091E-03 0.64171917E+01</pdfrwt>
<totfact> 0.26594001E+09</totfact>
</mgrwt>
</event>
<event>
 4    1  0.3931501E+006  0.6339111E+01  0.7546771E-02  0.2373272E+00
         21   -1    0    0  501  502  0.00000000000E+00  0.00000000000E+00  0.14249457648E+00  0.14249457648E+00  0.00000000000E+00 0.  1.
         21   -1    0    0  502  503 -0.00000000000E+00 -0.00000000000E+00 -0.28510616117E+03  0.28510616117E+03  0.00000000000E+00 0. -1.
          5    1    1    2  501    0 -0.10240147099E+01 -0.41286463969E+01 -0.12760941375E+03  0.12776676722E+03  0.47000000000E+01 0.  1.
         -5    1    1    2    0  503  0.10240147099E+01  0.41286463969E+01 -0.15735425284E+03  0.15748188853E+03  0.47000000000E+01 0. -1.
<mgrwt>
<rscale>  2 0.63391109E+01</rscale>
<asrwt>0</asrwt>
<pdfrwt beam="1">  1       21 0.21922356E-04 0.63391109E+01</pdfrwt>
<pdfrwt beam="2">  1       21 0.43862260E-01 0.63391109E+01</pdfrwt>
<totfact> 0.18375258E+09</totfact>
</mgrwt>
</event>
<event>
 4    1  0.3931501E+006  0.5089363E+01  0.7546771E-02  0.2551541E+00
         21   -1    0    0  503  502  0.00000000000E+00  0.00000000000E+00  0.80353404979E+01  0.80353404979E+01  0.00000000000E+00 0. -1.
         21   -1    0    0  501  503 -0.00000000000E+00 -0.00000000000E+00 -0.32934332771E+01  0.32934332771E+01  0.00000000000E+00 0. -1.
          5    1    1    2  501    0  0.37859949909E+00  0.19152753288E+01  0.15453198519E+01  0.53187997340E+01  0.47000000000E+01 0. -1.
         -5    1    1    2    0  502 -0.37859949909E+00 -0.19152753288E+01  0.31965873689E+01  0.60099740410E+01  0.47000000000E+01 0. -1.
<mgrwt>
<rscale>  2 0.50893631E+01</rscale>
<asrwt>0</asrwt>
<pdfrwt beam="1">  1       21 0.12362062E-02 0.50893631E+01</pdfrwt>
<pdfrwt beam="2">  1       21 0.50668204E-03 0.50893631E+01</pdfrwt>
<totfact> 0.51493312E+09</totfact>
</mgrwt>
</event>
<event>
 4    1  0.3931501E+006  0.8946541E+01  0.7546771E-02  0.2140416E+00
         21   -1    0    0  503  502  0.00000000000E+00  0.00000000000E+00  0.38080363985E+02  0.38080363985E+02  0.00000000000E+00 0.  1.
         21   -1    0    0  501  503 -0.00000000000E+00 -0.00000000000E+00 -0.23987738053E+01  0.23987738053E+01  0.00000000000E+00 0. -1.
          5    1    1    2  501    0 -0.64928295349E+01 -0.39741361021E+01  0.10720424266E+02  0.13963097421E+02  0.47000000000E+01 0.  1.
         -5    1    1    2    0  502  0.64928295349E+01  0.39741361021E+01  0.24961165914E+02  0.26516040370E+02  0.47000000000E+01 0. -1.
<mgrwt>
<rscale>  2 0.89465408E+01</rscale>
<asrwt>0</asrwt>
<pdfrwt beam="1">  1       21 0.58585171E-02 0.89465408E+01</pdfrwt>
<pdfrwt beam="2">  1       21 0.36904215E-03 0.89465408E+01</pdfrwt>
<totfact> 0.13057829E+09</totfact>
</mgrwt>
</event>
<event>
 4    1  0.3931501E+006  0.6665986E+01  0.7546771E-02  0.2336045E+00
         21   -1    0    0  501  502  0.00000000000E+00  0.00000000000E+00  0.53421757582E+00  0.53421757582E+00  0.00000000000E+00 0.  1.
         21   -1    0    0  502  503 -0.00000000000E+00 -0.00000000000E+00 -0.11898450936E+03  0.11898450936E+03  0.00000000000E+00 0. -1.
          5    1    1    2  501    0  0.30276403766E+00 -0.47173830081E+01 -0.26442858176E+02  0.27270132325E+02  0.47000000000E+01 0.  1.
         -5    1    1    2    0  503 -0.30276403766E+00  0.47173830081E+01 -0.92007433611E+02  0.92248594614E+02  0.47000000000E+01 0. -1.
<mgrwt>
<rscale>  2 0.66659859E+01</rscale>
<asrwt>0</asrwt>
<pdfrwt beam="1">  1       21 0.82187343E-04 0.66659859E+01</pdfrwt>
<pdfrwt beam="2">  1       21 0.18305304E-01 0.66659859E+01</pdfrwt>
<totfact> 0.14147792E+09</totfact>
</mgrwt>
</event>
<event>
 4    1  0.3931501E+006  0.7198874E+01  0.7546771E-02  0.2281399E+00
         21   -1    0    0  503  502  0.00000000000E+00  0.00000000000E+00  0.22998154192E+00  0.22998154192E+00  0.00000000000E+00 0.  1.
         21   -1    0    0  501  503 -0.00000000000E+00 -0.00000000000E+00 -0.23075857403E+03  0.23075857403E+03  0.00000000000E+00 0. -1.
          5    1    1    2  501    0  0.37285169114E+01 -0.39789386040E+01 -0.13296406481E+03  0.13315880114E+03  0.47000000000E+01 0.  1.
         -5    1    1    2    0  502 -0.37285169114E+01  0.39789386040E+01 -0.97564527674E+02  0.97829754426E+02  0.47000000000E+01 0. -1.
<mgrwt>
<rscale>  2 0.71988743E+01</rscale>
<asrwt>0</asrwt>
<pdfrwt beam="1">  1       21 0.35381757E-04 0.71988743E+01</pdfrwt>
<pdfrwt beam="2">  1       21 0.35501338E-01 0.71988743E+01</pdfrwt>
<totfact> 0.15341736E+09</totfact>
</mgrwt>
</event>
<event>
 4    1  0.3931501E+006  0.5232160E+01  0.7546771E-02  0.2527546E+00
         21   -1    0    0  501  502  0.00000000000E+00  0.00000000000E+00  0.16943065880E+03  0.16943065880E+03  0.00000000000E+00 0. -1.
         21   -1    0    0  502  503 -0.00000000000E+00 -0.00000000000E+00 -0.11440873299E+01  0.11440873299E+01  0.00000000000E+00 0.  1.
          5    1    1    2  501    0  0.46619213591E+00 -0.22512579702E+01  0.16317920248E+03  0.16326306263E+03  0.47000000000E+01 0. -1.
         -5    1    1    2    0  503 -0.46619213591E+00  0.22512579702E+01  0.51073689820E+01  0.73116834911E+01  0.47000000000E+01 0.  1.
<mgrwt>
<rscale>  2 0.52321599E+01</rscale>
<asrwt>0</asrwt>
<pdfrwt beam="1">  1       21 0.26066235E-01 0.52321599E+01</pdfrwt>
<pdfrwt beam="2">  1       21 0.17601357E-03 0.52321599E+01</pdfrwt>
<totfact> 0.23810564E+08</totfact>
</mgrwt>
</event>
<event>
 4    1  0.3931501E+006  0.6704598E+01  0.7546771E-02  0.2331846E+00
         21   -1    0    0  503  502  0.00000000000E+00  0.00000000000E+00  0.12201831330E+03  0.12201831330E+03  0.00000000000E+00 0. -1.
         21   -1    0    0  501  503 -0.00000000000E+00 -0.00000000000E+00 -0.37115852988E+00  0.37115852988E+00  0.00000000000E+00 0.  1.
          5    1    1    2  501    0 -0.36995676966E-01 -0.47812408864E+01  0.66098515796E+02  0.66437680751E+02  0.47000000000E+01 0.  1.
         -5    1    1    2    0  502  0.36995676966E-01  0.47812408864E+01  0.55548638974E+02  0.55951791079E+02  0.47000000000E+01 0.  1.
<mgrwt>
<rscale>  2 0.67045979E+01</rscale>
<asrwt>0</asrwt>
<pdfrwt beam="1">  1       21 0.18772016E-01 0.67045979E+01</pdfrwt>
<pdfrwt beam="2">  1       21 0.57101410E-04 0.67045979E+01</pdfrwt>
<totfact> 0.22276219E+09</totfact>
</mgrwt>
</event>
<event>
 4    1  0.3931501E+006  0.7122926E+01  0.7546771E-02  0.2288777E+00
         21   -1    0    0  503  502  0.00000000000E+00  0.00000000000E+00  0.73917187691E+01  0.73917187691E+01  0.00000000000E+00 0.  1.
         21   -1    0    0  501  503 -0.00000000000E+00 -0.00000000000E+00 -0.72005260736E+01  0.72005260736E+01  0.00000000000E+00 0. -1.
          5    1    1    2  501    0  0.34012035671E+01  0.41325404479E+01 -0.14819380230E+01  0.72754530143E+01  0.47000000000E+01 0. -1.
         -5    1    1    2    0  502 -0.34012035671E+01 -0.41325404479E+01  0.16731307185E+01  0.73167918284E+01  0.47000000000E+01 0.  1.
<mgrwt>
<rscale>  2 0.71229261E+01</rscale>
<asrwt>0</asrwt>
<pdfrwt beam="1">  1       21 0.11371875E-02 0.71229261E+01</pdfrwt>
<pdfrwt beam="2">  1       21 0.11077732E-02 0.71229261E+01</pdfrwt>
<totfact> 0.26246104E+09</totfact>
</mgrwt>
</event>
<event>
 4    1  0.3931501E+006  0.5775582E+01  0.7546771E-02  0.2445580E+00
         21   -1    0    0  503  502  0.00000000000E+00  0.00000000000E+00  0.29426981057E+01  0.29426981057E+01  0.00000000000E+00 0.  1.
         21   -1    0    0  501  503 -0.00000000000E+00 -0.00000000000E+00 -0.11680175941E+02  0.11680175941E+02  0.00000000000E+00 0.  1.
          5    1    1    2  501    0 -0.29987121961E+01  0.15083341660E+01 -0.56244782791E+01  0.80617679638E+01  0.47000000000E+01 0.  1.
         -5    1    1    2    0  502  0.29987121961E+01 -0.15083341660E+01 -0.31129995558E+01  0.65611060825E+01  0.47000000000E+01 0.  1.
<mgrwt>
<rscale>  2 0.57755819E+01</rscale>
<asrwt>0</asrwt>
<pdfrwt beam="1">  1       21 0.45272279E-03 0.57755819E+01</pdfrwt>
<pdfrwt beam="2">  1       21 0.17969501E-02 0.57755819E+01</pdfrwt>
<totfact> 0.40137892E+09</totfact>
</mgrwt>
</event>
<event>
 4    1  0.3931501E+006  0.4806705E+01  0.7546771E-02  0.2602630E+00
         21   -1    0    0  503  502  0.00000000000E+00  0.00000000000E+00  0.27682586839E+02  0.27682586839E+02  0.00000000000E+00 0.  1.
         21   -1    0    0  501  503 -0.00000000000E+00 -0.00000000000E+00 -0.38671208963E+01  0.38671208963E+01  0.00000000000E+00 0.  1.
          5    1    1    2  501    0  0.99543413037E+00 -0.15338837118E+00 -0.20614819723E+01  0.52301171136E+01  0.47000000000E+01 0.  1.
         -5    1    1    2    0  502 -0.99543413037E+00  0.15338837118E+00  0.25876947915E+02  0.26319590622E+02  0.47000000000E+01 0.  1.
<mgrwt>
<rscale>  2 0.48067054E+01</rscale>
<asrwt>0</asrwt>
<pdfrwt beam="1">  1       21 0.42588594E-02 0.48067054E+01</pdfrwt>
<pdfrwt beam="2">  1       21 0.59494169E-03 0.48067054E+01</pdfrwt>
<totfact> 0.67048076E+08</totfact>
</mgrwt>
</event>
<event>
 4    1  0.3931501E+006  0.4939356E+01  0.7546771E-02  0.2578026E+00
         21   -1    0    0  501  502  0.00000000000E+00  0.00000000000E+00  0.95009155295E+03  0.95009155295E+03  0.00000000000E+00 0.  1.
         21   -1    0    0  502  503 -0.00000000000E+00 -0.00000000000E+00 -0.40827355554E-01  0.40827355554E-01  0.00000000000E+00 0. -1.
          5    1    1    2  501    0  0.13205971436E+01  0.75050932119E+00  0.76440212688E+03  0.76441808510E+03  0.47000000000E+01 0.  1.
         -5    1    1    2    0  503 -0.13205971436E+01 -0.75050932119E+00  0.18564859872E+03  0.18571429521E+03  0.47000000000E+01 0. -1.
<mgrwt>
<rscale>  2 0.49393563E+01</rscale>
<asrwt>0</asrwt>
<pdfrwt beam="1">  1       21 0.14615023E+00 0.49393563E+01</pdfrwt>
<pdfrwt beam="2">  1       21 0.62818925E-05 0.49393563E+01</pdfrwt>
<totfact> 0.78148259E+08</totfact>
</mgrwt>
</event>
<event>
 4    1  0.3931501E+006  0.1330954E+02  0.7546771E-02  0.1924511E+00
         21   -1    0    0  503  502  0.00000000000E+00  0.00000000000E+00  0.41737247836E+01  0.41737247836E+01  0.00000000000E+00 0. -1.
         21   -1    0    0  501  503 -0.00000000000E+00 -0.00000000000E+00 -0.51763046222E+02  0.51763046222E+02  0.00000000000E+00 0.  1.
          5    1    1    2  501    0  0.12088846804E+02 -0.29855926048E+01 -0.35662576284E+02  0.38065250918E+02  0.47000000000E+01 0.  1.
         -5    1    1    2    0  502 -0.12088846804E+02  0.29855926048E+01 -0.11926745155E+02  0.17871520088E+02  0.47000000000E+01 0. -1.
<mgrwt>
<rscale>  2 0.13309545E+02</rscale>
<asrwt>0</asrwt>
<pdfrwt beam="1">  1       21 0.64211152E-03 0.13309545E+02</pdfrwt>
<pdfrwt beam="2">  1       21 0.79635453E-02 0.13309545E+02</pdfrwt>
<totfact> 0.45286831E+08</totfact>
</mgrwt>
</event>
<event>
 4    1  0.3931501E+006  0.6779146E+01  0.7546771E-02  0.2323852E+00
         21   -1    0    0  501  502  0.00000000000E+00  0.00000000000E+00  0.28359311295E+02  0.28359311295E+02  0.00000000000E+00 0. -1.
         21   -1    0    0  502  503 -0.00000000000E+00 -0.00000000000E+00 -0.16976039351E+01  0.16976039351E+01  0.00000000000E+00 0.  1.
          5    1    1    2  501    0  0.27403946870E+01  0.40443859967E+01  0.16533280078E+02  0.17869140194E+02  0.47000000000E+01 0. -1.
         -5    1    1    2    0  503 -0.27403946870E+01 -0.40443859967E+01  0.10128427282E+02  0.12187775036E+02  0.47000000000E+01 0.  1.
<mgrwt>
<rscale>  2 0.67791460E+01</rscale>
<asrwt>0</asrwt>
<pdfrwt beam="1">  1       21 0.43629706E-02 0.67791460E+01</pdfrwt>
<pdfrwt beam="2">  1       21 0.26116986E-03 0.67791460E+01</pdfrwt>
<totfact> 0.27088278E+09</totfact>
</mgrwt>
</event>
<event>
 4    1  0.3931501E+006  0.7852024E+01  0.7546771E-02  0.2222805E+00
         21   -1    0    0  503  502  0.00000000000E+00  0.00000000000E+00  0.25039089493E+02  0.25039089493E+02  0.00000000000E+00 0.  1.
         21   -1    0    0  501  503 -0.00000000000E+00 -0.00000000000E+00 -0.74385653154E+01  0.74385653154E+01  0.00000000000E+00 0. -1.
          5    1    1    2  501    0 -0.56409992303E+01  0.27826983861E+01 -0.44816594694E+01  0.90409929888E+01  0.47000000000E+01 0. -1.
         -5    1    1    2    0  502  0.56409992303E+01 -0.27826983861E+01  0.22082183646E+02  0.23436661819E+02  0.47000000000E+01 0.  1.
<mgrwt>
<rscale>  2 0.78520241E+01</rscale>
<asrwt>0</asrwt>
<pdfrwt beam="1">  1       21 0.38521676E-02 0.78520241E+01</pdfrwt>
<pdfrwt beam="2">  1       21 0.11443947E-02 0.78520241E+01</pdfrwt>
<totfact> 0.45281393E+08</totfact>
</mgrwt>
</event>
<event>
 4    1  0.3931501E+006  0.5550782E+01  0.7546771E-02  0.2477835E+00
         21   -1    0    0  503  502  0.00000000000E+00  0.00000000000E+00  0.47715060724E+02  0.47715060724E+02  0.00000000000E+00 0.  1.
         21   -1    0    0  501  503 -0.00000000000E+00 -0.00000000000E+00 -0.13579267307E+01  0.13579267307E+01  0.00000000000E+00 0.  1.
          5    1    1    2  501    0  0.37316470122E+00  0.29294938924E+01  0.54091399277E+01  0.77504826377E+01  0.47000000000E+01 0.  1.
         -5    1    1    2    0  502 -0.37316470122E+00 -0.29294938924E+01  0.40947994065E+02  0.41322504817E+02  0.47000000000E+01 0.  1.
<mgrwt>
<rscale>  2 0.55507825E+01</rscale>
<asrwt>0</asrwt>
<pdfrwt beam="1">  1       21 0.73407773E-02 0.55507825E+01</pdfrwt>
<pdfrwt beam="2">  1       21 0.20891184E-03 0.55507825E+01</pdfrwt>
<totfact> 0.14314746E+09</totfact>
</mgrwt>
</event>
<event>
 4    1  0.3931501E+006  0.4848791E+01  0.7546771E-02  0.2594698E+00
         21   -1    0    0  503  502  0.00000000000E+00  0.00000000000E+00  0.61706217964E+02  0.61706217964E+02  0.00000000000E+00 0. -1.
         21   -1    0    0  501  503 -0.00000000000E+00 -0.00000000000E+00 -0.70733311983E+00  0.70733311983E+00  0.00000000000E+00 0. -1.
          5    1    1    2  501    0 -0.11566037766E+01  0.28817812255E+00  0.93031539410E+01  0.10490922370E+02  0.47000000000E+01 0. -1.
         -5    1    1    2    0  502  0.11566037766E+01 -0.28817812255E+00  0.51695730903E+02  0.51922628714E+02  0.47000000000E+01 0. -1.
<mgrwt>
<rscale>  2 0.48487915E+01</rscale>
<asrwt>0</asrwt>
<pdfrwt beam="1">  1       21 0.94932600E-02 0.48487915E+01</pdfrwt>
<pdfrwt beam="2">  1       21 0.10882053E-03 0.48487915E+01</pdfrwt>
<totfact> 0.20555049E+09</totfact>
</mgrwt>
</event>
<event>
 4    1  0.3931501E+006  0.7489263E+01  0.7546771E-02  0.2254324E+00
         21   -1    0    0  503  502  0.00000000000E+00  0.00000000000E+00  0.90564796106E+00  0.90564796106E+00  0.00000000000E+00 0. -1.
         21   -1    0    0  501  503 -0.00000000000E+00 -0.00000000000E+00 -0.10436864869E+03  0.10436864869E+03  0.00000000000E+00 0.  1.
          5    1    1    2  501    0 -0.61094597596E+00  0.57987756082E+01 -0.85295618473E+02  0.85623779315E+02  0.47000000000E+01 0.  1.
         -5    1    1    2    0  502  0.61094597596E+00 -0.57987756082E+01 -0.18167382259E+02  0.19650517339E+02  0.47000000000E+01 0. -1.
<mgrwt>
<rscale>  2 0.74892625E+01</rscale>
<asrwt>0</asrwt>
<pdfrwt beam="1">  1       21 0.13933062E-03 0.74892625E+01</pdfrwt>
<pdfrwt beam="2">  1       21 0.16056697E-01 0.74892625E+01</pdfrwt>
<totfact> 0.92615664E+08</totfact>
</mgrwt>
</event>
<event>
 4    1  0.3931501E+006  0.5462637E+01  0.7546771E-02  0.2491093E+00
         21   -1    0    0  503  502  0.00000000000E+00  0.00000000000E+00  0.17905792522E+01  0.17905792522E+01  0.00000000000E+00 0. -1.
         21   -1    0    0  501  503 -0.00000000000E+00 -0.00000000000E+00 -0.21017713358E+02  0.21017713358E+02  0.00000000000E+00 0.  1.
          5    1    1    2  501    0 -0.84771802564E+00  0.26517499761E+01 -0.44239068630E+01  0.70293211421E+01  0.47000000000E+01 0. -1.
         -5    1    1    2    0  502  0.84771802564E+00 -0.26517499761E+01 -0.14803227243E+02  0.15778971468E+02  0.47000000000E+01 0.  1.
<mgrwt>
<rscale>  2 0.54626371E+01</rscale>
<asrwt>0</asrwt>
<pdfrwt beam="1">  1       21 0.27547373E-03 0.54626371E+01</pdfrwt>
<pdfrwt beam="2">  1       21 0.32334944E-02 0.54626371E+01</pdfrwt>
<totfact> 0.32396418E+09</totfact>
</mgrwt>
</event>
<event>
 4    1  0.3931501E+006  0.5663675E+01  0.7546771E-02  0.2461366E+00
         21   -1    0    0  501  502  0.00000000000E+00  0.00000000000E+00  0.12379301016E+02  0.12379301016E+02  0.00000000000E+00 0. -1.
         21   -1    0    0  502  503 -0.00000000000E+00 -0.00000000000E+00 -0.39802048531E+01  0.39802048531E+01  0.00000000000E+00 0. -1.
          5    1    1    2  501    0  0.12013073634E+01 -0.29230248092E+01  0.90316907861E+01  0.10660612172E+02  0.47000000000E+01 0. -1.
         -5    1    1    2    0  503 -0.12013073634E+01  0.29230248092E+01 -0.63259462339E+00  0.56988936974E+01  0.47000000000E+01 0. -1.
<mgrwt>
<rscale>  2 0.56636749E+01</rscale>
<asrwt>0</asrwt>
<pdfrwt beam="1">  1       21 0.19045078E-02 0.56636749E+01</pdfrwt>
<pdfrwt beam="2">  1       21 0.61233921E-03 0.56636749E+01</pdfrwt>
<totfact> 0.23870544E+09</totfact>
</mgrwt>
</event>
<event>
 4    1  0.3931501E+006  0.7175584E+01  0.7546771E-02  0.2283648E+00
         21   -1    0    0  501  502  0.00000000000E+00  0.00000000000E+00  0.39749764215E+00  0.39749764215E+00  0.00000000000E+00 0.  1.
         21   -1    0    0  502  503 -0.00000000000E+00 -0.00000000000E+00 -0.10569944208E+04  0.10569944208E+04  0.00000000000E+00 0. -1.
          5    1    1    2  501    0 -0.51433221428E+01 -0.17161696139E+01 -0.33056304537E+02  0.33826147733E+02  0.47000000000E+01 0.  1.
         -5    1    1    2    0  503  0.51433221428E+01  0.17161696139E+01 -0.10235406186E+04  0.10235657707E+04  0.47000000000E+01 0. -1.
<mgrwt>
<rscale>  2 0.71755837E+01</rscale>
<asrwt>0</asrwt>
<pdfrwt beam="1">  1       21 0.61153752E-04 0.71755837E+01</pdfrwt>
<pdfrwt beam="2">  1       21 0.16261381E+00 0.71755837E+01</pdfrwt>
<totfact> 0.37049573E+07</totfact>
</mgrwt>
</event>
<event>
 4    1  0.3931501E+006  0.1332870E+02  0.7546771E-02  0.1923811E+00
         21   -1    0    0  503  502  0.00000000000E+00  0.00000000000E+00  0.21168041223E+03  0.21168041223E+03  0.00000000000E+00 0. -1.
         21   -1    0    0  501  503 -0.00000000000E+00 -0.00000000000E+00 -0.98332304263E+00  0.98332304263E+00  0.00000000000E+00 0.  1.
          5    1    1    2  501    0 -0.11914554110E+02 -0.36888693252E+01  0.14604864819E+03  0.14665558972E+03  0.47000000000E+01 0. -1.
         -5    1    1    2    0  502  0.11914554110E+02  0.36888693252E+01  0.64648440991E+02  0.66008145552E+02  0.47000000000E+01 0.  1.
<mgrwt>
<rscale>  2 0.13328704E+02</rscale>
<asrwt>0</asrwt>
<pdfrwt beam="1">  1       21 0.32566181E-01 0.13328704E+02</pdfrwt>
<pdfrwt beam="2">  1       21 0.15128064E-03 0.13328704E+02</pdfrwt>
<totfact> 0.33795797E+08</totfact>
</mgrwt>
</event>
<event>
 4    1  0.3931501E+006  0.5309464E+01  0.7546771E-02  0.2515019E+00
         21   -1    0    0  503  502  0.00000000000E+00  0.00000000000E+00  0.12193767856E+04  0.12193767856E+04  0.00000000000E+00 0. -1.
         21   -1    0    0  501  503 -0.00000000000E+00 -0.00000000000E+00 -0.27304972035E+00  0.27304972035E+00  0.00000000000E+00 0. -1.
          5    1    1    2  501    0 -0.73736431331E+00 -0.23572650660E+01  0.26114313893E+02  0.26648598365E+02  0.47000000000E+01 0. -1.
         -5    1    1    2    0  502  0.73736431331E+00  0.23572650660E+01  0.11929894220E+04  0.11930012370E+04  0.47000000000E+01 0. -1.
<mgrwt>
<rscale>  2 0.53094637E+01</rscale>
<asrwt>0</asrwt>
<pdfrwt beam="1">  1       21 0.18759207E+00 0.53094637E+01</pdfrwt>
<pdfrwt beam="2">  1       21 0.42008626E-04 0.53094637E+01</pdfrwt>
<totfact> 0.38576175E+07</totfact>
</mgrwt>
</event>
<event>
 4    1  0.3931501E+006  0.7432225E+01  0.7546771E-02  0.2259506E+00
         21   -1    0    0  501  502  0.00000000000E+00  0.00000000000E+00  0.12423871908E+00  0.12423871908E+00  0.00000000000E+00 0. -1.
         21   -1    0    0  502  503 -0.00000000000E+00 -0.00000000000E+00 -0.68066969244E+03  0.68066969244E+03  0.00000000000E+00 0.  1.
          5    1    1    2  501    0  0.20329930520E+01  0.53865494431E+01 -0.13981309892E+03  0.14001050177E+03  0.47000000000E+01 0. -1.
         -5    1    1    2    0  503 -0.20329930520E+01 -0.53865494431E+01 -0.54073235480E+03  0.54078342939E+03  0.47000000000E+01 0.  1.
<mgrwt>
<rscale>  2 0.74322255E+01</rscale>
<asrwt>0</asrwt>
<pdfrwt beam="1">  1       21 0.19114020E-04 0.74322255E+01</pdfrwt>
<pdfrwt beam="2">  1       21 0.10471638E+00 0.74322255E+01</pdfrwt>
<totfact> 0.46325523E+08</totfact>
</mgrwt>
</event>
<event>
 4    1  0.3931501E+006  0.5735917E+01  0.7546771E-02  0.2451116E+00
         21   -1    0    0  503  502  0.00000000000E+00  0.00000000000E+00  0.15744986148E+02  0.15744986148E+02  0.00000000000E+00 0.  1.
         21   -1    0    0  501  503 -0.00000000000E+00 -0.00000000000E+00 -0.67357332385E+01  0.67357332385E+01  0.00000000000E+00 0.  1.
          5    1    1    2  501    0 -0.24734415254E+01 -0.21662936188E+01 -0.48307867631E+01  0.74991494033E+01  0.47000000000E+01 0.  1.
         -5    1    1    2    0  502  0.24734415254E+01  0.21662936188E+01  0.13840039672E+02  0.14981569983E+02  0.47000000000E+01 0.  1.
<mgrwt>
<rscale>  2 0.57359168E+01</rscale>
<asrwt>0</asrwt>
<pdfrwt beam="1">  1       21 0.24223056E-02 0.57359168E+01</pdfrwt>
<pdfrwt beam="2">  1       21 0.10362667E-02 0.57359168E+01</pdfrwt>
<totfact> 0.81863566E+08</totfact>
</mgrwt>
</event>
<event>
 4    1  0.3931501E+006  0.1178800E+02  0.7546771E-02  0.1985555E+00
         21   -1    0    0  501  502  0.00000000000E+00  0.00000000000E+00  0.13808235684E+02  0.13808235684E+02  0.00000000000E+00 0.  1.
         21   -1    0    0  502  503 -0.00000000000E+00 -0.00000000000E+00 -0.12237911922E+02  0.12237911922E+02  0.00000000000E+00 0. -1.
          5    1    1    2  501    0  0.86720243603E+01 -0.64546864987E+01  0.62748368074E+01  0.13354046625E+02  0.47000000000E+01 0.  1.
         -5    1    1    2    0  503 -0.86720243603E+01  0.64546864987E+01 -0.47045130455E+01  0.12692100980E+02  0.47000000000E+01 0. -1.
<mgrwt>
<rscale>  2 0.11788002E+02</rscale>
<asrwt>0</asrwt>
<pdfrwt beam="1">  1       21 0.21243440E-02 0.11788002E+02</pdfrwt>
<pdfrwt beam="2">  1       21 0.18827557E-02 0.11788002E+02</pdfrwt>
<totfact> 0.67042504E+08</totfact>
</mgrwt>
</event>
<event>
 4    1  0.3931501E+006  0.4952986E+01  0.7546771E-02  0.2575562E+00
         21   -1    0    0  503  502  0.00000000000E+00  0.00000000000E+00  0.45403062411E+00  0.45403062411E+00  0.00000000000E+00 0.  1.
         21   -1    0    0  501  503 -0.00000000000E+00 -0.00000000000E+00 -0.43900341171E+03  0.43900341171E+03  0.00000000000E+00 0.  1.
          5    1    1    2  501    0 -0.14727344600E+01  0.52261592036E+00 -0.42503767717E+03  0.42506653490E+03  0.47000000000E+01 0.  1.
         -5    1    1    2    0  502  0.14727344600E+01 -0.52261592036E+00 -0.13511703916E+02  0.14390907439E+02  0.47000000000E+01 0.  1.
<mgrwt>
<rscale>  2 0.49529864E+01</rscale>
<asrwt>0</asrwt>
<pdfrwt beam="1">  1       21 0.69850330E-04 0.49529864E+01</pdfrwt>
<pdfrwt beam="2">  1       21 0.67539503E-01 0.49529864E+01</pdfrwt>
<totfact> 0.14954140E+08</totfact>
</mgrwt>
</event>
<event>
 4    1  0.3931501E+006  0.4709279E+01  0.7546771E-02  0.2621464E+00
         21   -1    0    0  501  502  0.00000000000E+00  0.00000000000E+00  0.34938753889E+01  0.34938753889E+01  0.00000000000E+00 0. -1.
         21   -1    0    0  502  503 -0.00000000000E+00 -0.00000000000E+00 -0.19496308621E+02  0.19496308621E+02  0.00000000000E+00 0. -1.
          5    1    1    2  501    0 -0.25874287134E+00  0.14269418299E+00  0.14389522560E+01  0.49242149728E+01  0.47000000000E+01 0. -1.
         -5    1    1    2    0  503  0.25874287134E+00 -0.14269418299E+00 -0.17441385488E+02  0.18065969037E+02  0.47000000000E+01 0. -1.
<mgrwt>
<rscale>  2 0.47092791E+01</rscale>
<asrwt>0</asrwt>
<pdfrwt beam="1">  1       21 0.53751929E-03 0.47092791E+01</pdfrwt>
<pdfrwt beam="2">  1       21 0.29994321E-02 0.47092791E+01</pdfrwt>
<totfact> 0.12508215E+09</totfact>
</mgrwt>
</event>
<event>
 4    1  0.3931501E+006  0.9488126E+01  0.7546771E-02  0.2105346E+00
         21   -1    0    0  503  502  0.00000000000E+00  0.00000000000E+00  0.20681245320E+03  0.20681245320E+03  0.00000000000E+00 0.  1.
         21   -1    0    0  501  503 -0.00000000000E+00 -0.00000000000E+00 -0.86713068139E+00  0.86713068139E+00  0.00000000000E+00 0. -1.
          5    1    1    2  501    0  0.75702805151E+01 -0.32596601880E+01  0.29693491537E+02  0.31172551568E+02  0.47000000000E+01 0. -1.
         -5    1    1    2    0  502 -0.75702805151E+01  0.32596601880E+01  0.17625183098E+03  0.17650703232E+03  0.47000000000E+01 0.  1.
<mgrwt>
<rscale>  2 0.94881258E+01</rscale>
<asrwt>0</asrwt>
<pdfrwt beam="1">  1       21 0.31817261E-01 0.94881258E+01</pdfrwt>
<pdfrwt beam="2">  1       21 0.13340488E-03 0.94881258E+01</pdfrwt>
<totfact> 0.35904593E+08</totfact>
</mgrwt>
</event>
<event>
 4    1  0.3931501E+006  0.5766942E+01  0.7546771E-02  0.2446780E+00
         21   -1    0    0  501  502  0.00000000000E+00  0.00000000000E+00  0.47554004156E+01  0.47554004156E+01  0.00000000000E+00 0. -1.
         21   -1    0    0  502  503 -0.00000000000E+00 -0.00000000000E+00 -0.75121836836E+01  0.75121836836E+01  0.00000000000E+00 0. -1.
          5    1    1    2  501    0  0.52149650219E+00 -0.33008583168E+01  0.23311775633E+00  0.57716521133E+01  0.47000000000E+01 0. -1.
         -5    1    1    2    0  503 -0.52149650219E+00  0.33008583168E+01 -0.29899010243E+01  0.64959319858E+01  0.47000000000E+01 0. -1.
<mgrwt>
<rscale>  2 0.57669424E+01</rscale>
<asrwt>0</asrwt>
<pdfrwt beam="1">  1       21 0.73160007E-03 0.57669424E+01</pdfrwt>
<pdfrwt beam="2">  1       21 0.11557206E-02 0.57669424E+01</pdfrwt>
<totfact> 0.38495208E+09</totfact>
</mgrwt>
</event>
<event>
 4    1  0.3931501E+006  0.4837583E+01  0.7546771E-02  0.2596799E+00
         21   -1    0    0  503  502  0.00000000000E+00  0.00000000000E+00  0.42853324800E+00  0.42853324800E+00  0.00000000000E+00 0. -1.
         21   -1    0    0  501  503 -0.00000000000E+00 -0.00000000000E+00 -0.16124126806E+03  0.16124126806E+03  0.00000000000E+00 0. -1.
          5    1    1    2  501    0 -0.10935611998E+01  0.34107547216E+00 -0.14614233438E+03  0.14622237896E+03  0.47000000000E+01 0. -1.
         -5    1    1    2    0  502  0.10935611998E+01 -0.34107547216E+00 -0.14670400426E+02  0.15447422349E+02  0.47000000000E+01 0. -1.
<mgrwt>
<rscale>  2 0.48375829E+01</rscale>
<asrwt>0</asrwt>
<pdfrwt beam="1">  1       21 0.65928138E-04 0.48375829E+01</pdfrwt>
<pdfrwt beam="2">  1       21 0.24806369E-01 0.48375829E+01</pdfrwt>
<totfact> 0.89391362E+08</totfact>
</mgrwt>
</event>
<event>
 4    1  0.3931501E+006  0.5218519E+01  0.7546771E-02  0.2529790E+00
         21   -1    0    0  503  502  0.00000000000E+00  0.00000000000E+00  0.74427623796E+01  0.74427623796E+01  0.00000000000E+00 0.  1.
         21   -1    0    0  501  503 -0.00000000000E+00 -0.00000000000E+00 -0.41621010873E+01  0.41621010873E+01  0.00000000000E+00 0. -1.
          5    1    1    2  501    0 -0.22498527601E+01 -0.28478170219E+00 -0.37705471261E+00  0.52321227352E+01  0.47000000000E+01 0. -1.
         -5    1    1    2    0  502  0.22498527601E+01  0.28478170219E+00  0.36577160049E+01  0.63727407316E+01  0.47000000000E+01 0.  1.
<mgrwt>
<rscale>  2 0.52185188E+01</rscale>
<asrwt>0</asrwt>
<pdfrwt beam="1">  1       21 0.11450404E-02 0.52185188E+01</pdfrwt>
<pdfrwt beam="2">  1       21 0.64032325E-03 0.52185188E+01</pdfrwt>
<totfact> 0.42605729E+09</totfact>
</mgrwt>
</event>
<event>
 4    1  0.3931501E+006  0.5089423E+01  0.7546771E-02  0.2551531E+00
         21   -1    0    0  503  502  0.00000000000E+00  0.00000000000E+00  0.63683217062E+01  0.63683217062E+01  0.00000000000E+00 0. -1.
         21   -1    0    0  501  503 -0.00000000000E+00 -0.00000000000E+00 -0.15996273852E+02  0.15996273852E+02  0.00000000000E+00 0. -1.
          5    1    1    2  501    0 -0.13610384854E+01 -0.13999286208E+01 -0.14470530170E+02  0.15339441623E+02  0.47000000000E+01 0. -1.
         -5    1    1    2    0  502  0.13610384854E+01  0.13999286208E+01  0.48425780238E+01  0.70251539356E+01  0.47000000000E+01 0. -1.
<mgrwt>
<rscale>  2 0.50894229E+01</rscale>
<asrwt>0</asrwt>
<pdfrwt beam="1">  1       21 0.97974180E-03 0.50894229E+01</pdfrwt>
<pdfrwt beam="2">  1       21 0.24609652E-02 0.50894229E+01</pdfrwt>
<totfact> 0.77958622E+08</totfact>
</mgrwt>
</event>
<event>
 4    1  0.3931501E+006  0.7745360E+01  0.7546771E-02  0.2231824E+00
         21   -1    0    0  503  502  0.00000000000E+00  0.00000000000E+00  0.56365663541E+01  0.56365663541E+01  0.00000000000E+00 0. -1.
         21   -1    0    0  501  503 -0.00000000000E+00 -0.00000000000E+00 -0.11493667218E+02  0.11493667218E+02  0.00000000000E+00 0.  1.
          5    1    1    2  501    0  0.44035529273E+00 -0.61405770952E+01 -0.52585484979E+01  0.93617803943E+01  0.47000000000E+01 0. -1.
         -5    1    1    2    0  502 -0.44035529273E+00  0.61405770952E+01 -0.59855236636E+00  0.77684531782E+01  0.47000000000E+01 0.  1.
<mgrwt>
<rscale>  2 0.77453599E+01</rscale>
<asrwt>0</asrwt>
<pdfrwt beam="1">  1       21 0.86716406E-03 0.77453599E+01</pdfrwt>
<pdfrwt beam="2">  1       21 0.17682565E-02 0.77453599E+01</pdfrwt>
<totfact> 0.21002459E+09</totfact>
</mgrwt>
</event>
<event>
 4    1  0.3931501E+006  0.5367501E+01  0.7546771E-02  0.2505817E+00
         21   -1    0    0  501  502  0.00000000000E+00  0.00000000000E+00  0.10944214105E+01  0.10944214105E+01  0.00000000000E+00 0. -1.
         21   -1    0    0  502  503 -0.00000000000E+00 -0.00000000000E+00 -0.62599244818E+02  0.62599244818E+02  0.00000000000E+00 0.  1.
          5    1    1    2  501    0 -0.82443883920E+00  0.24577155295E+01 -0.65095401874E+01  0.84370716765E+01  0.47000000000E+01 0. -1.
         -5    1    1    2    0  503  0.82443883920E+00 -0.24577155295E+01 -0.54995283220E+02  0.55256594552E+02  0.47000000000E+01 0.  1.
<mgrwt>
<rscale>  2 0.53675008E+01</rscale>
<asrwt>0</asrwt>
<pdfrwt beam="1">  1       21 0.16837253E-03 0.53675008E+01</pdfrwt>
<pdfrwt beam="2">  1       21 0.96306528E-02 0.53675008E+01</pdfrwt>
<totfact> 0.12351458E+09</totfact>
</mgrwt>
</event>
<event>
 4    1  0.3931501E+006  0.6410273E+01  0.7546771E-02  0.2364900E+00
         21   -1    0    0  503  502  0.00000000000E+00  0.00000000000E+00  0.65025075670E+01  0.65025075670E+01  0.00000000000E+00 0.  1.
         21   -1    0    0  501  503 -0.00000000000E+00 -0.00000000000E+00 -0.83507823070E+01  0.83507823070E+01  0.00000000000E+00 0. -1.
          5    1    1    2  501    0 -0.18845040275E+01 -0.39306800404E+01 -0.45870839853E+01  0.78824450837E+01  0.47000000000E+01 0. -1.
         -5    1    1    2    0  502  0.18845040275E+01  0.39306800404E+01  0.27388092452E+01  0.69708447903E+01  0.47000000000E+01 0.  1.
<mgrwt>
<rscale>  2 0.64102731E+01</rscale>
<asrwt>0</asrwt>
<pdfrwt beam="1">  1       21 0.10003858E-02 0.64102731E+01</pdfrwt>
<pdfrwt beam="2">  1       21 0.12847357E-02 0.64102731E+01</pdfrwt>
<totfact> 0.23419880E+09</totfact>
</mgrwt>
</event>
<event>
 4    1  0.3931501E+006  0.5185448E+01  0.7546771E-02  0.2535271E+00
         21   -1    0    0  501  502  0.00000000000E+00  0.00000000000E+00  0.50945870769E+01  0.50945870769E+01  0.00000000000E+00 0.  1.
         21   -1    0    0  502  503 -0.00000000000E+00 -0.00000000000E+00 -0.86425107086E+01  0.86425107086E+01  0.00000000000E+00 0.  1.
          5    1    1    2  501    0  0.90247759052E+00 -0.19960976585E+01 -0.60595509808E+01  0.79754015418E+01  0.47000000000E+01 0.  1.
         -5    1    1    2    0  503 -0.90247759052E+00  0.19960976585E+01  0.25116273492E+01  0.57616962437E+01  0.47000000000E+01 0.  1.
<mgrwt>
<rscale>  2 0.51854481E+01</rscale>
<asrwt>0</asrwt>
<pdfrwt beam="1">  1       21 0.78378264E-03 0.51854481E+01</pdfrwt>
<pdfrwt beam="2">  1       21 0.13296170E-02 0.51854481E+01</pdfrwt>
<totfact> 0.25921169E+09</totfact>
</mgrwt>
</event>
<event>
 4    1  0.3931501E+006  0.4993217E+01  0.7546771E-02  0.2568358E+00
         21   -1    0    0  501  502  0.00000000000E+00  0.00000000000E+00  0.14799673724E+01  0.14799673724E+01  0.00000000000E+00 0.  1.
         21   -1    0    0  502  503 -0.00000000000E+00 -0.00000000000E+00 -0.21853384433E+02  0.21853384433E+02  0.00000000000E+00 0.  1.
          5    1    1    2  501    0 -0.15626721310E+01  0.63267018852E+00 -0.46023516661E+01  0.67907184167E+01  0.47000000000E+01 0.  1.
         -5    1    1    2    0  503  0.15626721310E+01 -0.63267018852E+00 -0.15771065394E+02  0.16542633388E+02  0.47000000000E+01 0.  1.
<mgrwt>
<rscale>  2 0.49932170E+01</rscale>
<asrwt>0</asrwt>
<pdfrwt beam="1">  1       21 0.22768728E-03 0.49932170E+01</pdfrwt>
<pdfrwt beam="2">  1       21 0.33620592E-02 0.49932170E+01</pdfrwt>
<totfact> 0.36243870E+09</totfact>
</mgrwt>
</event>
<event>
 4    1  0.3931501E+006  0.6630733E+01  0.7546771E-02  0.2339914E+00
         21   -1    0    0  501  502  0.00000000000E+00  0.00000000000E+00  0.35916518555E+02  0.35916518555E+02  0.00000000000E+00 0.  1.
         21   -1    0    0  502  503 -0.00000000000E+00 -0.00000000000E+00 -0.22265675432E+01  0.22265675432E+01  0.00000000000E+00 0. -1.
          5    1    1    2  501    0  0.19380967237E+01 -0.42568060882E+01  0.29641610382E+02  0.30374194360E+02  0.47000000000E+01 0.  1.
         -5    1    1    2    0  503 -0.19380967237E+01  0.42568060882E+01  0.40483406298E+01  0.77688917380E+01  0.47000000000E+01 0. -1.
<mgrwt>
<rscale>  2 0.66307328E+01</rscale>
<asrwt>0</asrwt>
<pdfrwt beam="1">  1       21 0.55256178E-02 0.66307328E+01</pdfrwt>
<pdfrwt beam="2">  1       21 0.34254888E-03 0.66307328E+01</pdfrwt>
<totfact> 0.12864552E+09</totfact>
</mgrwt>
</event>
<event>
 4    1  0.3931501E+006  0.5540032E+01  0.7546771E-02  0.2479432E+00
         21   -1    0    0  501  502  0.00000000000E+00  0.00000000000E+00  0.33419797930E+01  0.33419797930E+01  0.00000000000E+00 0. -1.
         21   -1    0    0  502  503 -0.00000000000E+00 -0.00000000000E+00 -0.17024944025E+02  0.17024944025E+02  0.00000000000E+00 0.  1.
          5    1    1    2  501    0 -0.14380198492E+01 -0.25561798954E+01  0.69555936687E-01  0.55404688225E+01  0.47000000000E+01 0. -1.
         -5    1    1    2    0  503  0.14380198492E+01  0.25561798954E+01 -0.13752520169E+02  0.14826454996E+02  0.47000000000E+01 0.  1.
<mgrwt>
<rscale>  2 0.55400322E+01</rscale>
<asrwt>0</asrwt>
<pdfrwt beam="1">  1       21 0.51415072E-03 0.55400322E+01</pdfrwt>
<pdfrwt beam="2">  1       21 0.26192222E-02 0.55400322E+01</pdfrwt>
<totfact> 0.18883131E+09</totfact>
</mgrwt>
</event>
<event>
 4    1  0.3931501E+006  0.5212391E+01  0.7546771E-02  0.2530801E+00
         21   -1    0    0  501  502  0.00000000000E+00  0.00000000000E+00  0.77332955225E+00  0.77332955225E+00  0.00000000000E+00 0.  1.
         21   -1    0    0  502  503 -0.00000000000E+00 -0.00000000000E+00 -0.14436954475E+03  0.14436954475E+03  0.00000000000E+00 0. -1.
          5    1    1    2  501    0  0.13813458596E+01 -0.17807029370E+01 -0.86714415999E+01  0.10117456140E+02  0.47000000000E+01 0.  1.
         -5    1    1    2    0  503 -0.13813458596E+01  0.17807029370E+01 -0.13492477359E+03  0.13502541816E+03  0.47000000000E+01 0. -1.
<mgrwt>
<rscale>  2 0.52123909E+01</rscale>
<asrwt>0</asrwt>
<pdfrwt beam="1">  1       21 0.11897377E-03 0.52123909E+01</pdfrwt>
<pdfrwt beam="2">  1       21 0.22210700E-01 0.52123909E+01</pdfrwt>
<totfact> 0.52054211E+08</totfact>
</mgrwt>
</event>
<event>
 4    1  0.3931501E+006  0.5150580E+01  0.7546771E-02  0.2541115E+00
         21   -1    0    0  503  502  0.00000000000E+00  0.00000000000E+00  0.10684125005E+03  0.10684125005E+03  0.00000000000E+00 0. -1.
         21   -1    0    0  501  503 -0.00000000000E+00 -0.00000000000E+00 -0.15723013732E+01  0.15723013732E+01  0.00000000000E+00 0. -1.
          5    1    1    2  501    0  0.20684172310E+01 -0.40015153240E+00  0.28916751339E+01  0.59067974547E+01  0.47000000000E+01 0. -1.
         -5    1    1    2    0  502 -0.20684172310E+01  0.40015153240E+00  0.10237727354E+03  0.10250675397E+03  0.47000000000E+01 0. -1.
<mgrwt>
<rscale>  2 0.51505797E+01</rscale>
<asrwt>0</asrwt>
<pdfrwt beam="1">  1       21 0.16437110E-01 0.51505797E+01</pdfrwt>
<pdfrwt beam="2">  1       21 0.24189260E-03 0.51505797E+01</pdfrwt>
<totfact> 0.32051970E+08</totfact>
</mgrwt>
</event>
<event>
 4    1  0.3931501E+006  0.6475465E+01  0.7546771E-02  0.2357365E+00
         21   -1    0    0  501  502  0.00000000000E+00  0.00000000000E+00  0.33872997615E+02  0.33872997615E+02  0.00000000000E+00 0.  1.
         21   -1    0    0  502  503 -0.00000000000E+00 -0.00000000000E+00 -0.13602223750E+01  0.13602223750E+01  0.00000000000E+00 0. -1.
          5    1    1    2  501    0  0.42362561715E+01 -0.13768720437E+01  0.21539097360E+02  0.22491428547E+02  0.47000000000E+01 0.  1.
         -5    1    1    2    0  503 -0.42362561715E+01  0.13768720437E+01  0.10973677879E+02  0.12741791443E+02  0.47000000000E+01 0.  1.
<mgrwt>
<rscale>  2 0.64754647E+01</rscale>
<asrwt>0</asrwt>
<pdfrwt beam="1">  1       21 0.52112298E-02 0.64754647E+01</pdfrwt>
<pdfrwt beam="2">  1       21 0.20926501E-03 0.64754647E+01</pdfrwt>
<totfact> 0.27162918E+09</totfact>
</mgrwt>
</event>
<event>
 4    1  0.3931501E+006  0.8974377E+01  0.7546771E-02  0.2138532E+00
         21   -1    0    0  501  502  0.00000000000E+00  0.00000000000E+00  0.56267820011E+00  0.56267820011E+00  0.00000000000E+00 0.  1.
         21   -1    0    0  502  503 -0.00000000000E+00 -0.00000000000E+00 -0.29224816645E+03  0.29224816645E+03  0.00000000000E+00 0. -1.
          5    1    1    2  501    0 -0.99377462597E+00  0.75803592410E+01 -0.41265307534E+02  0.42229906939E+02  0.47000000000E+01 0.  1.
         -5    1    1    2    0  503  0.99377462597E+00 -0.75803592410E+01 -0.25042018072E+03  0.25058093771E+03  0.47000000000E+01 0.  1.
<mgrwt>
<rscale>  2 0.89743765E+01</rscale>
<asrwt>0</asrwt>
<pdfrwt beam="1">  1       21 0.86565702E-04 0.89743765E+01</pdfrwt>
<pdfrwt beam="2">  1       21 0.44961347E-01 0.89743765E+01</pdfrwt>
<totfact> 0.34121533E+08</totfact>
</mgrwt>
</event>
<event>
 4    1  0.3931501E+006  0.7588312E+01  0.7546771E-02  0.2245476E+00
         21   -1    0    0  501  502  0.00000000000E+00  0.00000000000E+00  0.37774930849E+01  0.37774930849E+01  0.00000000000E+00 0.  1.
         21   -1    0    0  502  503 -0.00000000000E+00 -0.00000000000E+00 -0.15309485491E+02  0.15309485491E+02  0.00000000000E+00 0.  1.
          5    1    1    2  501    0 -0.51634026574E+01 -0.29718259936E+01 -0.63922115607E+01  0.99218367944E+01  0.47000000000E+01 0.  1.
         -5    1    1    2    0  503  0.51634026574E+01  0.29718259936E+01 -0.51397808456E+01  0.91651417817E+01  0.47000000000E+01 0.  1.
<mgrwt>
<rscale>  2 0.75883119E+01</rscale>
<asrwt>0</asrwt>
<pdfrwt beam="1">  1       21 0.58115277E-03 0.75883119E+01</pdfrwt>
<pdfrwt beam="2">  1       21 0.23553055E-02 0.75883119E+01</pdfrwt>
<totfact> 0.24028070E+09</totfact>
</mgrwt>
</event>
<event>
 4    1  0.3931501E+006  0.5569624E+01  0.7546771E-02  0.2475047E+00
         21   -1    0    0  501  502  0.00000000000E+00  0.00000000000E+00  0.39534809044E+02  0.39534809044E+02  0.00000000000E+00 0. -1.
         21   -1    0    0  502  503 -0.00000000000E+00 -0.00000000000E+00 -0.14239972735E+01  0.14239972735E+01  0.00000000000E+00 0. -1.
          5    1    1    2  501    0 -0.67334784456E+00 -0.29115832271E+01  0.32777913386E+02  0.33247741580E+02  0.47000000000E+01 0. -1.
         -5    1    1    2    0  503  0.67334784456E+00  0.29115832271E+01  0.53328983840E+01  0.77110647373E+01  0.47000000000E+01 0. -1.
<mgrwt>
<rscale>  2 0.55696242E+01</rscale>
<asrwt>0</asrwt>
<pdfrwt beam="1">  1       21 0.60822775E-02 0.55696242E+01</pdfrwt>
<pdfrwt beam="2">  1       21 0.21907653E-03 0.55696242E+01</pdfrwt>
<totfact> 0.17825663E+09</totfact>
</mgrwt>
</event>
<event>
 4    1  0.3931501E+006  0.5074914E+01  0.7546771E-02  0.2554033E+00
         21   -1    0    0  503  502  0.00000000000E+00  0.00000000000E+00  0.15624636343E+01  0.15624636343E+01  0.00000000000E+00 0.  1.
         21   -1    0    0  501  503 -0.00000000000E+00 -0.00000000000E+00 -0.20828452312E+02  0.20828452312E+02  0.00000000000E+00 0.  1.
          5    1    1    2  501    0  0.41436678834E+00  0.18689708755E+01 -0.14746392658E+02  0.15595218767E+02  0.47000000000E+01 0.  1.
         -5    1    1    2    0  502 -0.41436678834E+00 -0.18689708755E+01 -0.45195960195E+01  0.67956971790E+01  0.47000000000E+01 0.  1.
<mgrwt>
<rscale>  2 0.50749140E+01</rscale>
<asrwt>0</asrwt>
<pdfrwt beam="1">  1       21 0.24037903E-03 0.50749140E+01</pdfrwt>
<pdfrwt beam="2">  1       21 0.32043772E-02 0.50749140E+01</pdfrwt>
<totfact> 0.36703090E+09</totfact>
</mgrwt>
</event>
<event>
 4    1  0.3931501E+006  0.4843804E+01  0.7546771E-02  0.2595632E+00
         21   -1    0    0  503  502  0.00000000000E+00  0.00000000000E+00  0.10901364708E+00  0.10901364708E+00  0.00000000000E+00 0. -1.
         21   -1    0    0  501  503 -0.00000000000E+00 -0.00000000000E+00 -0.51533059042E+03  0.51533059042E+03  0.00000000000E+00 0. -1.
          5    1    1    2  501    0 -0.73755805147E+00 -0.91019126090E+00 -0.45428255436E+03  0.45430837725E+03  0.47000000000E+01 0. -1.
         -5    1    1    2    0  502  0.73755805147E+00  0.91019126090E+00 -0.60939022405E+02  0.61131226814E+02  0.47000000000E+01 0. -1.
<mgrwt>
<rscale>  2 0.48438043E+01</rscale>
<asrwt>0</asrwt>
<pdfrwt beam="1">  1       21 0.16771295E-04 0.48438043E+01</pdfrwt>
<pdfrwt beam="2">  1       21 0.79281795E-01 0.48438043E+01</pdfrwt>
<totfact> 0.71742440E+08</totfact>
</mgrwt>
</event>
<event>
 4    1  0.3931501E+006  0.8204802E+01  0.7546771E-02  0.2194330E+00
         21   -1    0    0  501  502  0.00000000000E+00  0.00000000000E+00  0.15233540668E+01  0.15233540668E+01  0.00000000000E+00 0. -1.
         21   -1    0    0  502  503 -0.00000000000E+00 -0.00000000000E+00 -0.19750759003E+03  0.19750759003E+03  0.00000000000E+00 0. -1.
          5    1    1    2  501    0  0.35713144700E+01 -0.56986386252E+01 -0.10313625379E+02  0.13179136454E+02  0.47000000000E+01 0. -1.
         -5    1    1    2    0  503 -0.35713144700E+01  0.56986386252E+01 -0.18567061058E+03  0.18585180764E+03  0.47000000000E+01 0. -1.
<mgrwt>
<rscale>  2 0.82048016E+01</rscale>
<asrwt>0</asrwt>
<pdfrwt beam="1">  1       21 0.23436222E-03 0.82048016E+01</pdfrwt>
<pdfrwt beam="2">  1       21 0.30385775E-01 0.82048016E+01</pdfrwt>
<totfact> 0.16519372E+08</totfact>
</mgrwt>
</event>
<event>
 4    1  0.3931501E+006  0.6058747E+01  0.7546771E-02  0.2407840E+00
         21   -1    0    0  503  502  0.00000000000E+00  0.00000000000E+00  0.37587162436E+02  0.37587162436E+02  0.00000000000E+00 0. -1.
         21   -1    0    0  501  503 -0.00000000000E+00 -0.00000000000E+00 -0.10601291741E+01  0.10601291741E+01  0.00000000000E+00 0.  1.
          5    1    1    2  501    0  0.12460934796E+01 -0.36146465354E+01  0.12840090507E+02  0.14197758372E+02  0.47000000000E+01 0.  1.
         -5    1    1    2    0  502 -0.12460934796E+01  0.36146465354E+01  0.23686942754E+02  0.24449533238E+02  0.47000000000E+01 0. -1.
<mgrwt>
<rscale>  2 0.60587473E+01</rscale>
<asrwt>0</asrwt>
<pdfrwt beam="1">  1       21 0.57826393E-02 0.60587473E+01</pdfrwt>
<pdfrwt beam="2">  1       21 0.16309683E-03 0.60587473E+01</pdfrwt>
<totfact> 0.30861076E+09</totfact>
</mgrwt>
</event>
<event>
 4    1  0.3931501E+006  0.4719139E+01  0.7546771E-02  0.2619528E+00
         21   -1    0    0  501  502  0.00000000000E+00  0.00000000000E+00  0.10037109710E+01  0.10037109710E+01  0.00000000000E+00 0.  1.
         21   -1    0    0  502  503 -0.00000000000E+00 -0.00000000000E+00 -0.22746146193E+02  0.22746146193E+02  0.00000000000E+00 0.  1.
          5    1    1    2  501    0  0.42457899508E+00  0.17972920784E-02 -0.90109406152E+01  0.10171888779E+02  0.47000000000E+01 0. -1.
         -5    1    1    2    0  503 -0.42457899508E+00 -0.17972920784E-02 -0.12731494607E+02  0.13577968386E+02  0.47000000000E+01 0. -1.
<mgrwt>
<rscale>  2 0.47191388E+01</rscale>
<asrwt>0</asrwt>
<pdfrwt beam="1">  1       21 0.15441707E-03 0.47191388E+01</pdfrwt>
<pdfrwt beam="2">  1       21 0.34994071E-02 0.47191388E+01</pdfrwt>
<totfact> 0.54227264E+09</totfact>
</mgrwt>
</event>
<event>
 4    1  0.3931501E+006  0.6210707E+01  0.7546771E-02  0.2388781E+00
         21   -1    0    0  501  502  0.00000000000E+00  0.00000000000E+00  0.14566401651E+03  0.14566401651E+03  0.00000000000E+00 0.  1.
         21   -1    0    0  502  503 -0.00000000000E+00 -0.00000000000E+00 -0.36558850598E+00  0.36558850598E+00  0.00000000000E+00 0. -1.
          5    1    1    2  501    0 -0.32115027749E+01  0.24837737808E+01  0.11098502109E+03  0.11115866043E+03  0.47000000000E+01 0.  1.
         -5    1    1    2    0  503  0.32115027749E+01 -0.24837737808E+01  0.34313406917E+02  0.34870944589E+02  0.47000000000E+01 0. -1.
<mgrwt>
<rscale>  2 0.62107071E+01</rscale>
<asrwt>0</asrwt>
<pdfrwt beam="1">  1       21 0.22409802E-01 0.62107071E+01</pdfrwt>
<pdfrwt beam="2">  1       21 0.56244502E-04 0.62107071E+01</pdfrwt>
<totfact> 0.16065003E+09</totfact>
</mgrwt>
</event>
<event>
 4    1  0.3931501E+006  0.5441099E+01  0.7546771E-02  0.2494388E+00
         21   -1    0    0  503  502  0.00000000000E+00  0.00000000000E+00  0.70422799777E+03  0.70422799777E+03  0.00000000000E+00 0.  1.
         21   -1    0    0  501  503 -0.00000000000E+00 -0.00000000000E+00 -0.94499540155E-01  0.94499540155E-01  0.00000000000E+00 0.  1.
          5    1    1    2  501    0 -0.83928541158E+00 -0.26098192129E+01  0.89681107123E+02  0.89846015666E+02  0.47000000000E+01 0.  1.
         -5    1    1    2    0  502  0.83928541158E+00  0.26098192129E+01  0.61445239111E+03  0.61447648164E+03  0.47000000000E+01 0.  1.
<mgrwt>
<rscale>  2 0.54410988E+01</rscale>
<asrwt>0</asrwt>
<pdfrwt beam="1">  1       21 0.10833857E+00 0.54410988E+01</pdfrwt>
<pdfrwt beam="2">  1       21 0.14538955E-04 0.54410988E+01</pdfrwt>
<totfact> 0.51139539E+08</totfact>
</mgrwt>
</event>
<event>
 4    1  0.3931501E+006  0.7092815E+01  0.7546771E-02  0.2291737E+00
         21   -1    0    0  501  502  0.00000000000E+00  0.00000000000E+00  0.38011801298E+01  0.38011801298E+01  0.00000000000E+00 0. -1.
         21   -1    0    0  502  503 -0.00000000000E+00 -0.00000000000E+00 -0.15781182921E+02  0.15781182921E+02  0.00000000000E+00 0.  1.
          5    1    1    2  501    0 -0.53092383025E+01 -0.17323499233E+00 -0.20570051990E+01  0.73850722477E+01  0.47000000000E+01 0. -1.
         -5    1    1    2    0  503  0.53092383025E+01  0.17323499233E+00 -0.99229975920E+01  0.12197290803E+02  0.47000000000E+01 0.  1.
<mgrwt>
<rscale>  2 0.70928148E+01</rscale>
<asrwt>0</asrwt>
<pdfrwt beam="1">  1       21 0.58479694E-03 0.70928148E+01</pdfrwt>
<pdfrwt beam="2">  1       21 0.24278743E-02 0.70928148E+01</pdfrwt>
<totfact> 0.21642315E+09</totfact>
</mgrwt>
</event>
<event>
 4    1  0.3931501E+006  0.7115449E+01  0.7546771E-02  0.2289510E+00
         21   -1    0    0  503  502  0.00000000000E+00  0.00000000000E+00  0.17444397738E+01  0.17444397738E+01  0.00000000000E+00 0.  1.
         21   -1    0    0  501  503 -0.00000000000E+00 -0.00000000000E+00 -0.74900910089E+02  0.74900910089E+02  0.00000000000E+00 0.  1.
          5    1    1    2  501    0  0.27458927267E+01  0.45825420009E+01 -0.66570693639E+02  0.66949883269E+02  0.47000000000E+01 0.  1.
         -5    1    1    2    0  502 -0.27458927267E+01 -0.45825420009E+01 -0.65857766759E+01  0.96954665943E+01  0.47000000000E+01 0.  1.
<mgrwt>
<rscale>  2 0.71154493E+01</rscale>
<asrwt>0</asrwt>
<pdfrwt beam="1">  1       21 0.26837541E-03 0.71154493E+01</pdfrwt>
<pdfrwt beam="2">  1       21 0.11523214E-01 0.71154493E+01</pdfrwt>
<totfact> 0.61538268E+08</totfact>
</mgrwt>
</event>
<event>
 4    1  0.3931501E+006  0.5310936E+01  0.7546771E-02  0.2514783E+00
         21   -1    0    0  503  502  0.00000000000E+00  0.00000000000E+00  0.74919532645E+01  0.74919532645E+01  0.00000000000E+00 0.  1.
         21   -1    0    0  501  503 -0.00000000000E+00 -0.00000000000E+00 -0.38610924203E+01  0.38610924203E+01  0.00000000000E+00 0. -1.
          5    1    1    2  501    0  0.19190330891E+01  0.15599219357E+01  0.91919657368E+00  0.53898948769E+01  0.47000000000E+01 0. -1.
         -5    1    1    2    0  502 -0.19190330891E+01 -0.15599219357E+01  0.27116642705E+01  0.59631508080E+01  0.47000000000E+01 0. -1.
<mgrwt>
<rscale>  2 0.53109363E+01</rscale>
<asrwt>0</asrwt>
<pdfrwt beam="1">  1       21 0.11526082E-02 0.53109363E+01</pdfrwt>
<pdfrwt beam="2">  1       21 0.59401422E-03 0.53109363E+01</pdfrwt>
<totfact> 0.47688380E+09</totfact>
</mgrwt>
</event>
<event>
 4    1  0.3931501E+006  0.7845562E+01  0.7546771E-02  0.2223345E+00
         21   -1    0    0  503  502  0.00000000000E+00  0.00000000000E+00  0.29831337796E+03  0.29831337796E+03  0.00000000000E+00 0.  1.
         21   -1    0    0  501  503 -0.00000000000E+00 -0.00000000000E+00 -0.57962281556E+00  0.57962281556E+00  0.00000000000E+00 0. -1.
          5    1    1    2  501    0 -0.57257331911E+01  0.25843408470E+01  0.28935107538E+02  0.29979881362E+02  0.47000000000E+01 0. -1.
         -5    1    1    2    0  502  0.57257331911E+01 -0.25843408470E+01  0.26879864761E+03  0.26891311941E+03  0.47000000000E+01 0.  1.
<mgrwt>
<rscale>  2 0.78455617E+01</rscale>
<asrwt>0</asrwt>
<pdfrwt beam="1">  1       21 0.45894243E-01 0.78455617E+01</pdfrwt>
<pdfrwt beam="2">  1       21 0.89172979E-04 0.78455617E+01</pdfrwt>
<totfact> 0.29370169E+08</totfact>
</mgrwt>
</event>
<event>
 4    1  0.3931501E+006  0.6853080E+01  0.7546771E-02  0.2316065E+00
         21   -1    0    0  501  502  0.00000000000E+00  0.00000000000E+00  0.28152127977E+02  0.28152127977E+02  0.00000000000E+00 0. -1.
         21   -1    0    0  502  503 -0.00000000000E+00 -0.00000000000E+00 -0.25075215088E+01  0.25075215088E+01  0.00000000000E+00 0. -1.
          5    1    1    2  501    0  0.49788570295E+01  0.29273074923E+00  0.21691143264E+02  0.22747975838E+02  0.47000000000E+01 0. -1.
         -5    1    1    2    0  503 -0.49788570295E+01 -0.29273074923E+00  0.39534632046E+01  0.79116736486E+01  0.47000000000E+01 0. -1.
<mgrwt>
<rscale>  2 0.68530802E+01</rscale>
<asrwt>0</asrwt>
<pdfrwt beam="1">  1       21 0.43310964E-02 0.68530802E+01</pdfrwt>
<pdfrwt beam="2">  1       21 0.38577256E-03 0.68530802E+01</pdfrwt>
<totfact> 0.16087818E+09</totfact>
</mgrwt>
</event>
<event>
 4    1  0.3931501E+006  0.6846319E+01  0.7546771E-02  0.2316772E+00
         21   -1    0    0  503  502  0.00000000000E+00  0.00000000000E+00  0.11487604178E+02  0.11487604178E+02  0.00000000000E+00 0. -1.
         21   -1    0    0  501  503 -0.00000000000E+00 -0.00000000000E+00 -0.24176146344E+02  0.24176146344E+02  0.00000000000E+00 0. -1.
          5    1    1    2  501    0  0.41181072108E+01 -0.27970127096E+01 -0.22601906042E+02  0.23616059024E+02  0.47000000000E+01 0. -1.
         -5    1    1    2    0  502 -0.41181072108E+01  0.27970127096E+01  0.99133638756E+01  0.12047691498E+02  0.47000000000E+01 0. -1.
<mgrwt>
<rscale>  2 0.68463192E+01</rscale>
<asrwt>0</asrwt>
<pdfrwt beam="1">  1       21 0.17673237E-02 0.68463192E+01</pdfrwt>
<pdfrwt beam="2">  1       21 0.37194071E-02 0.68463192E+01</pdfrwt>
<totfact> 0.23335560E+08</totfact>
</mgrwt>
</event>
<event>
 4    1  0.3931501E+006  0.5408487E+01  0.7546771E-02  0.2499419E+00
         21   -1    0    0  501  502  0.00000000000E+00  0.00000000000E+00  0.31054091496E+00  0.31054091496E+00  0.00000000000E+00 0.  1.
         21   -1    0    0  502  503 -0.00000000000E+00 -0.00000000000E+00 -0.14337675517E+03  0.14337675517E+03  0.00000000000E+00 0.  1.
          5    1    1    2  501    0  0.22413950952E+00 -0.26667375180E+01 -0.11361026324E+03  0.11373892756E+03  0.47000000000E+01 0.  1.
         -5    1    1    2    0  503 -0.22413950952E+00  0.26667375180E+01 -0.29455951016E+02  0.29948368532E+02  0.47000000000E+01 0.  1.
<mgrwt>
<rscale>  2 0.54084866E+01</rscale>
<asrwt>0</asrwt>
<pdfrwt beam="1">  1       21 0.47775554E-04 0.54084866E+01</pdfrwt>
<pdfrwt beam="2">  1       21 0.22057949E-01 0.54084866E+01</pdfrwt>
<totfact> 0.18304207E+09</totfact>
</mgrwt>
</event>
<event>
 4    1  0.3931501E+006  0.1144039E+02  0.7546771E-02  0.2001229E+00
         21   -1    0    0  501  502  0.00000000000E+00  0.00000000000E+00  0.18558595926E+02  0.18558595926E+02  0.00000000000E+00 0.  1.
         21   -1    0    0  502  503 -0.00000000000E+00 -0.00000000000E+00 -0.23575944193E+02  0.23575944193E+02  0.00000000000E+00 0. -1.
          5    1    1    2  501    0  0.59535847723E+01  0.85643105446E+01  0.15128351955E+02  0.18967066711E+02  0.47000000000E+01 0.  1.
         -5    1    1    2    0  503 -0.59535847723E+01 -0.85643105446E+01 -0.20145700221E+02  0.23167473409E+02  0.47000000000E+01 0. -1.
<mgrwt>
<rscale>  2 0.11440393E+02</rscale>
<asrwt>0</asrwt>
<pdfrwt beam="1">  1       21 0.28551686E-02 0.11440393E+02</pdfrwt>
<pdfrwt beam="2">  1       21 0.36270683E-02 0.11440393E+02</pdfrwt>
<totfact> 0.15815117E+08</totfact>
</mgrwt>
</event>
<event>
 4    1  0.3931501E+006  0.5894965E+01  0.7546771E-02  0.2429298E+00
         21   -1    0    0  503  502  0.00000000000E+00  0.00000000000E+00  0.10255195925E+04  0.10255195925E+04  0.00000000000E+00 0. -1.
         21   -1    0    0  501  503 -0.00000000000E+00 -0.00000000000E+00 -0.35186169053E+00  0.35186169053E+00  0.00000000000E+00 0. -1.
          5    1    1    2  501    0  0.25909530270E+01  0.24387652605E+01  0.24972283897E+02  0.25658635518E+02  0.47000000000E+01 0. -1.
         -5    1    1    2    0  502 -0.25909530270E+01 -0.24387652605E+01  0.10001954469E+04  0.10002128187E+04  0.47000000000E+01 0. -1.
<mgrwt>
<rscale>  2 0.58949651E+01</rscale>
<asrwt>0</asrwt>
<pdfrwt beam="1">  1       21 0.15776985E+00 0.58949651E+01</pdfrwt>
<pdfrwt beam="2">  1       21 0.54133389E-04 0.58949651E+01</pdfrwt>
<totfact> 0.42405874E+07</totfact>
</mgrwt>
</event>
<event>
 4    1  0.3931501E+006  0.5141412E+01  0.7546771E-02  0.2542663E+00
         21   -1    0    0  503  502  0.00000000000E+00  0.00000000000E+00  0.10450140582E+02  0.10450140582E+02  0.00000000000E+00 0.  1.
         21   -1    0    0  501  503 -0.00000000000E+00 -0.00000000000E+00 -0.18504740513E+02  0.18504740513E+02  0.00000000000E+00 0.  1.
          5    1    1    2  501    0 -0.16352565375E+01  0.12923061798E+01 -0.17478881784E+02  0.18219369572E+02  0.47000000000E+01 0.  1.
         -5    1    1    2    0  502  0.16352565375E+01 -0.12923061798E+01  0.94242818528E+01  0.10735511522E+02  0.47000000000E+01 0.  1.
<mgrwt>
<rscale>  2 0.51414122E+01</rscale>
<asrwt>0</asrwt>
<pdfrwt beam="1">  1       21 0.16077140E-02 0.51414122E+01</pdfrwt>
<pdfrwt beam="2">  1       21 0.28468831E-02 0.51414122E+01</pdfrwt>
<totfact> 0.31857145E+08</totfact>
</mgrwt>
</event>
<event>
 4    1  0.3931501E+006  0.5818893E+01  0.7546771E-02  0.2439608E+00
         21   -1    0    0  501  502  0.00000000000E+00  0.00000000000E+00  0.10519150326E+03  0.10519150326E+03  0.00000000000E+00 0. -1.
         21   -1    0    0  502  503 -0.00000000000E+00 -0.00000000000E+00 -0.10170514873E+01  0.10170514873E+01  0.00000000000E+00 0.  1.
          5    1    1    2  501    0 -0.31575300810E+01  0.13414615754E+01  0.95991075388E+02  0.96167281700E+02  0.47000000000E+01 0. -1.
         -5    1    1    2    0  503  0.31575300810E+01 -0.13414615754E+01  0.81833763873E+01  0.10041273050E+02  0.47000000000E+01 0.  1.
<mgrwt>
<rscale>  2 0.58188930E+01</rscale>
<asrwt>0</asrwt>
<pdfrwt beam="1">  1       21 0.16183300E-01 0.58188930E+01</pdfrwt>
<pdfrwt beam="2">  1       21 0.15646954E-03 0.58188930E+01</pdfrwt>
<totfact> 0.65196361E+08</totfact>
</mgrwt>
</event>
<event>
 4    1  0.3931501E+006  0.5125924E+01  0.7546771E-02  0.2545288E+00
         21   -1    0    0  501  502  0.00000000000E+00  0.00000000000E+00  0.35712596486E+01  0.35712596486E+01  0.00000000000E+00 0. -1.
         21   -1    0    0  502  503 -0.00000000000E+00 -0.00000000000E+00 -0.27058232785E+02  0.27058232785E+02  0.00000000000E+00 0. -1.
          5    1    1    2  501    0 -0.87038564287E-01  0.20438976430E+01  0.13243191118E+01  0.52942340708E+01  0.47000000000E+01 0. -1.
         -5    1    1    2    0  503  0.87038564287E-01 -0.20438976430E+01 -0.24811292248E+02  0.25335258363E+02  0.47000000000E+01 0. -1.
<mgrwt>
<rscale>  2 0.51259237E+01</rscale>
<asrwt>0</asrwt>
<pdfrwt beam="1">  1       21 0.54942455E-03 0.51259237E+01</pdfrwt>
<pdfrwt beam="2">  1       21 0.41628051E-02 0.51259237E+01</pdfrwt>
<totfact> 0.82086411E+08</totfact>
</mgrwt>
</event>
<event>
 4    1  0.3931501E+006  0.6518205E+01  0.7546771E-02  0.2352492E+00
         21   -1    0    0  501  502  0.00000000000E+00  0.00000000000E+00  0.17704781286E+00  0.17704781286E+00  0.00000000000E+00 0.  1.
         21   -1    0    0  502  503 -0.00000000000E+00 -0.00000000000E+00 -0.31175477333E+03  0.31175477333E+03  0.00000000000E+00 0. -1.
          5    1    1    2  501    0  0.45119442121E+01  0.19839092729E+00 -0.80950373173E+02  0.81212375389E+02  0.47000000000E+01 0.  1.
         -5    1    1    2    0  503 -0.45119442121E+01 -0.19839092729E+00 -0.23062735235E+03  0.23071944576E+03  0.47000000000E+01 0. -1.
<mgrwt>
<rscale>  2 0.65182052E+01</rscale>
<asrwt>0</asrwt>
<pdfrwt beam="1">  1       21 0.27238006E-04 0.65182052E+01</pdfrwt>
<pdfrwt beam="2">  1       21 0.47962483E-01 0.65182052E+01</pdfrwt>
<totfact> 0.11949769E+09</totfact>
</mgrwt>
</event>
<event>
 4    1  0.3931501E+006  0.4715032E+01  0.7546771E-02  0.2620334E+00
         21   -1    0    0  503  502  0.00000000000E+00  0.00000000000E+00  0.53275482628E-01  0.53275482628E-01  0.00000000000E+00 0. -1.
         21   -1    0    0  501  503 -0.00000000000E+00 -0.00000000000E+00 -0.82211085818E+03  0.82211085818E+03  0.00000000000E+00 0. -1.
          5    1    1    2  501    0 -0.24379631859E+00  0.28651275864E+00 -0.69949355132E+03  0.69950944230E+03  0.47000000000E+01 0. -1.
         -5    1    1    2    0  502  0.24379631859E+00 -0.28651275864E+00 -0.12256403138E+03  0.12265469136E+03  0.47000000000E+01 0. -1.
<mgrwt>
<rscale>  2 0.47150319E+01</rscale>
<asrwt>0</asrwt>
<pdfrwt beam="1">  1       21 0.81960521E-05 0.47150319E+01</pdfrwt>
<pdfrwt beam="2">  1       21 0.12648131E+00 0.47150319E+01</pdfrwt>
<totfact> 0.71482164E+08</totfact>
</mgrwt>
</event>
<event>
 4    1  0.3931501E+006  0.4715422E+01  0.7546771E-02  0.2620257E+00
         21   -1    0    0  503  502  0.00000000000E+00  0.00000000000E+00  0.38280003654E+00  0.38280003654E+00  0.00000000000E+00 0. -1.
         21   -1    0    0  501  503 -0.00000000000E+00 -0.00000000000E+00 -0.58099353744E+02  0.58099353744E+02  0.00000000000E+00 0. -1.
          5    1    1    2  501    0 -0.12496468811E+00 -0.35998448144E+00 -0.28409880975E+02  0.28798551040E+02  0.47000000000E+01 0. -1.
         -5    1    1    2    0  502  0.12496468811E+00  0.35998448144E+00 -0.29306672733E+02  0.29683602741E+02  0.47000000000E+01 0. -1.
<mgrwt>
<rscale>  2 0.47154220E+01</rscale>
<asrwt>0</asrwt>
<pdfrwt beam="1">  1       21 0.58892344E-04 0.47154220E+01</pdfrwt>
<pdfrwt beam="2">  1       21 0.89383575E-02 0.47154220E+01</pdfrwt>
<totfact> 0.49256745E+09</totfact>
</mgrwt>
</event>
<event>
 4    1  0.3931501E+006  0.6526662E+01  0.7546771E-02  0.2351535E+00
         21   -1    0    0  501  502  0.00000000000E+00  0.00000000000E+00  0.18390097655E+01  0.18390097655E+01  0.00000000000E+00 0.  1.
         21   -1    0    0  502  503 -0.00000000000E+00 -0.00000000000E+00 -0.33095721916E+03  0.33095721916E+03  0.00000000000E+00 0.  1.
          5    1    1    2  501    0 -0.11989262933E+01 -0.43669089310E+01 -0.40895777172E+01  0.77020752901E+01  0.47000000000E+01 0.  1.
         -5    1    1    2    0  503  0.11989262933E+01  0.43669089310E+01 -0.32502863168E+03  0.32509415364E+03  0.47000000000E+01 0.  1.
<mgrwt>
<rscale>  2 0.65266621E+01</rscale>
<asrwt>0</asrwt>
<pdfrwt beam="1">  1       21 0.28292460E-03 0.65266621E+01</pdfrwt>
<pdfrwt beam="2">  1       21 0.50916492E-01 0.65266621E+01</pdfrwt>
<totfact> 0.45334786E+07</totfact>
</mgrwt>
</event>
<event>
 4    1  0.3931501E+006  0.5878687E+01  0.7546771E-02  0.2431485E+00
         21   -1    0    0  501  502  0.00000000000E+00  0.00000000000E+00  0.99751556754E+01  0.99751556754E+01  0.00000000000E+00 0.  1.
         21   -1    0    0  502  503 -0.00000000000E+00 -0.00000000000E+00 -0.62780731108E+01  0.62780731108E+01  0.00000000000E+00 0. -1.
          5    1    1    2  501    0  0.32781901175E+01 -0.13124145874E+01  0.72888719222E+01  0.93641132199E+01  0.47000000000E+01 0.  1.
         -5    1    1    2    0  503 -0.32781901175E+01  0.13124145874E+01 -0.35917893577E+01  0.68891155663E+01  0.47000000000E+01 0. -1.
<mgrwt>
<rscale>  2 0.58786871E+01</rscale>
<asrwt>0</asrwt>
<pdfrwt beam="1">  1       21 0.15346393E-02 0.58786871E+01</pdfrwt>
<pdfrwt beam="2">  1       21 0.96585740E-03 0.58786871E+01</pdfrwt>
<totfact> 0.17740131E+09</totfact>
</mgrwt>
</event>
<event>
 4    1  0.3931501E+006  0.5911317E+01  0.7546771E-02  0.2427111E+00
         21   -1    0    0  503  502  0.00000000000E+00  0.00000000000E+00  0.40688828094E+03  0.40688828094E+03  0.00000000000E+00 0. -1.
         21   -1    0    0  501  503 -0.00000000000E+00 -0.00000000000E+00 -0.89009420733E-01  0.89009420733E-01  0.00000000000E+00 0. -1.
          5    1    1    2  501    0  0.27967129138E+01 -0.22432272582E+01  0.16524598691E+03  0.16535168539E+03  0.47000000000E+01 0. -1.
         -5    1    1    2    0  502 -0.27967129138E+01  0.22432272582E+01  0.24155328460E+03  0.24162560496E+03  0.47000000000E+01 0. -1.
<mgrwt>
<rscale>  2 0.59113173E+01</rscale>
<asrwt>0</asrwt>
<pdfrwt beam="1">  1       21 0.62596708E-01 0.59113173E+01</pdfrwt>
<pdfrwt beam="2">  1       21 0.13694083E-04 0.59113173E+01</pdfrwt>
<totfact> 0.17123958E+09</totfact>
</mgrwt>
</event>
<event>
 4    1  0.3931501E+006  0.5275496E+01  0.7546771E-02  0.2520485E+00
         21   -1    0    0  501  502  0.00000000000E+00  0.00000000000E+00  0.77364447924E+02  0.77364447924E+02  0.00000000000E+00 0.  1.
         21   -1    0    0  502  503 -0.00000000000E+00 -0.00000000000E+00 -0.58910861402E+00  0.58910861402E+00  0.00000000000E+00 0.  1.
          5    1    1    2  501    0 -0.12727320513E+01  0.20300282417E+01  0.62708477695E+02  0.62929993138E+02  0.47000000000E+01 0. -1.
         -5    1    1    2    0  503  0.12727320513E+01 -0.20300282417E+01  0.14066861615E+02  0.15023563400E+02  0.47000000000E+01 0. -1.
<mgrwt>
<rscale>  2 0.52754963E+01</rscale>
<asrwt>0</asrwt>
<pdfrwt beam="1">  1       21 0.11902215E-01 0.52754963E+01</pdfrwt>
<pdfrwt beam="2">  1       21 0.90632155E-04 0.52754963E+01</pdfrwt>
<totfact> 0.20159242E+09</totfact>
</mgrwt>
</event>
<event>
 4    1  0.3931501E+006  0.1231448E+02  0.7546771E-02  0.1963128E+00
         21   -1    0    0  503  502  0.00000000000E+00  0.00000000000E+00  0.17118635697E+02  0.17118635697E+02  0.00000000000E+00 0.  1.
         21   -1    0    0  501  503 -0.00000000000E+00 -0.00000000000E+00 -0.14562907425E+02  0.14562907425E+02  0.00000000000E+00 0.  1.
          5    1    1    2  501    0 -0.94875027729E+01  0.62883734942E+01 -0.86362866209E+01  0.15041003845E+02  0.47000000000E+01 0.  1.
         -5    1    1    2    0  502  0.94875027729E+01 -0.62883734942E+01  0.11192014893E+02  0.16640539277E+02  0.47000000000E+01 0.  1.
<mgrwt>
<rscale>  2 0.12314477E+02</rscale>
<asrwt>0</asrwt>
<pdfrwt beam="1">  1       21 0.26336363E-02 0.12314477E+02</pdfrwt>
<pdfrwt beam="2">  1       21 0.22404473E-02 0.12314477E+02</pdfrwt>
<totfact> 0.38242795E+08</totfact>
</mgrwt>
</event>
<event>
 4    1  0.3931501E+006  0.5371741E+01  0.7546771E-02  0.2505151E+00
         21   -1    0    0  503  502  0.00000000000E+00  0.00000000000E+00  0.10092769838E+01  0.10092769838E+01  0.00000000000E+00 0.  1.
         21   -1    0    0  501  503 -0.00000000000E+00 -0.00000000000E+00 -0.29140683460E+02  0.29140683460E+02  0.00000000000E+00 0.  1.
          5    1    1    2  501    0  0.63183148622E+00 -0.25231699015E+01 -0.16137341459E+02  0.17007921294E+02  0.47000000000E+01 0.  1.
         -5    1    1    2    0  502 -0.63183148622E+00  0.25231699015E+01 -0.11994065017E+02  0.13142039150E+02  0.47000000000E+01 0.  1.
<mgrwt>
<rscale>  2 0.53717406E+01</rscale>
<asrwt>0</asrwt>
<pdfrwt beam="1">  1       21 0.15527339E-03 0.53717406E+01</pdfrwt>
<pdfrwt beam="2">  1       21 0.44831818E-02 0.53717406E+01</pdfrwt>
<totfact> 0.43036111E+09</totfact>
</mgrwt>
</event>
<event>
 4    1  0.3931501E+006  0.6065484E+01  0.7546771E-02  0.2406978E+00
         21   -1    0    0  501  502  0.00000000000E+00  0.00000000000E+00  0.41929705581E+01  0.41929705581E+01  0.00000000000E+00 0. -1.
         21   -1    0    0  502  503 -0.00000000000E+00 -0.00000000000E+00 -0.11431868155E+02  0.11431868155E+02  0.00000000000E+00 0.  1.
          5    1    1    2  501    0 -0.14412111906E+01 -0.35528878827E+01 -0.73862664531E+01  0.95575642357E+01  0.47000000000E+01 0.  1.
         -5    1    1    2    0  503  0.14412111906E+01  0.35528878827E+01  0.14736885633E+00  0.60672744773E+01  0.47000000000E+01 0. -1.
<mgrwt>
<rscale>  2 0.60654845E+01</rscale>
<asrwt>0</asrwt>
<pdfrwt beam="1">  1       21 0.64507240E-03 0.60654845E+01</pdfrwt>
<pdfrwt beam="2">  1       21 0.17587489E-02 0.60654845E+01</pdfrwt>
<totfact> 0.26437042E+09</totfact>
</mgrwt>
</event>
<event>
 4    1  0.3931501E+006  0.6207601E+01  0.7546771E-02  0.2389163E+00
         21   -1    0    0  501  502  0.00000000000E+00  0.00000000000E+00  0.10527777932E+02  0.10527777932E+02  0.00000000000E+00 0.  1.
         21   -1    0    0  502  503 -0.00000000000E+00 -0.00000000000E+00 -0.36619275862E+01  0.36619275862E+01  0.00000000000E+00 0.  1.
          5    1    1    2  501    0 -0.40537407907E+01  0.10723383213E+00  0.35847192550E+01  0.71683000516E+01  0.47000000000E+01 0.  1.
         -5    1    1    2    0  503  0.40537407907E+01 -0.10723383213E+00  0.32811310910E+01  0.70214054668E+01  0.47000000000E+01 0.  1.
<mgrwt>
<rscale>  2 0.62076013E+01</rscale>
<asrwt>0</asrwt>
<pdfrwt beam="1">  1       21 0.16196581E-02 0.62076013E+01</pdfrwt>
<pdfrwt beam="2">  1       21 0.56337348E-03 0.62076013E+01</pdfrwt>
<totfact> 0.36681208E+09</totfact>
</mgrwt>
</event>
<event>
 4    1  0.3931501E+006  0.7479642E+01  0.7546771E-02  0.2255194E+00
         21   -1    0    0  501  502  0.00000000000E+00  0.00000000000E+00  0.27098319614E+00  0.27098319614E+00  0.00000000000E+00 0. -1.
         21   -1    0    0  502  503 -0.00000000000E+00 -0.00000000000E+00 -0.23784557102E+03  0.23784557102E+03  0.00000000000E+00 0. -1.
          5    1    1    2  501    0 -0.75209146865E+00 -0.57696964100E+01 -0.75532721313E+02  0.75902154299E+02  0.47000000000E+01 0. -1.
         -5    1    1    2    0  503  0.75209146865E+00  0.57696964100E+01 -0.16204186651E+03  0.16221439991E+03  0.47000000000E+01 0. -1.
<mgrwt>
<rscale>  2 0.74796416E+01</rscale>
<asrwt>0</asrwt>
<pdfrwt beam="1">  1       21 0.41689739E-04 0.74796416E+01</pdfrwt>
<pdfrwt beam="2">  1       21 0.36591612E-01 0.74796416E+01</pdfrwt>
<totfact> 0.11965900E+09</totfact>
</mgrwt>
</event>
<event>
 4    1  0.3931501E+006  0.1210812E+02  0.7546771E-02  0.1971739E+00
         21   -1    0    0  501  502  0.00000000000E+00  0.00000000000E+00  0.95351945259E+01  0.95351945259E+01  0.00000000000E+00 0.  1.
         21   -1    0    0  502  503 -0.00000000000E+00 -0.00000000000E+00 -0.73252093056E+02  0.73252093056E+02  0.00000000000E+00 0. -1.
          5    1    1    2  501    0 -0.10198979949E+02  0.45274149995E+01  0.49354477763E+01  0.13075370868E+02  0.47000000000E+01 0.  1.
         -5    1    1    2    0  503  0.10198979949E+02 -0.45274149995E+01 -0.68652346307E+02  0.69711916715E+02  0.47000000000E+01 0. -1.
<mgrwt>
<rscale>  2 0.12108124E+02</rscale>
<asrwt>0</asrwt>
<pdfrwt beam="1">  1       21 0.14669530E-02 0.12108124E+02</pdfrwt>
<pdfrwt beam="2">  1       21 0.11269553E-01 0.12108124E+02</pdfrwt>
<totfact> 0.74242214E+07</totfact>
</mgrwt>
</event>
<event>
 4    1  0.3931501E+006  0.5762793E+01  0.7546771E-02  0.2447358E+00
         21   -1    0    0  503  502  0.00000000000E+00  0.00000000000E+00  0.14423087100E+02  0.14423087100E+02  0.00000000000E+00 0.  1.
         21   -1    0    0  501  503 -0.00000000000E+00 -0.00000000000E+00 -0.38294217365E+01  0.38294217365E+01  0.00000000000E+00 0.  1.
          5    1    1    2  501    0  0.25463417268E+01 -0.21531199474E+01 -0.46589652169E+00  0.57815950452E+01  0.47000000000E+01 0.  1.
         -5    1    1    2    0  502 -0.25463417268E+01  0.21531199474E+01  0.11059561885E+02  0.12470913791E+02  0.47000000000E+01 0.  1.
<mgrwt>
<rscale>  2 0.57627929E+01</rscale>
<asrwt>0</asrwt>
<pdfrwt beam="1">  1       21 0.22189364E-02 0.57627929E+01</pdfrwt>
<pdfrwt beam="2">  1       21 0.58914181E-03 0.57627929E+01</pdfrwt>
<totfact> 0.20550571E+09</totfact>
</mgrwt>
</event>
<event>
 4    1  0.3931501E+006  0.4812621E+01  0.7546771E-02  0.2601508E+00
         21   -1    0    0  503  502  0.00000000000E+00  0.00000000000E+00  0.31653085241E+04  0.31653085241E+04  0.00000000000E+00 0.  1.
         21   -1    0    0  501  503 -0.00000000000E+00 -0.00000000000E+00 -0.21497605479E+00  0.21497605479E+00  0.00000000000E+00 0.  1.
          5    1    1    2  501    0  0.60016606779E+00  0.84328168741E+00  0.26954823707E+02  0.27381085522E+02  0.47000000000E+01 0.  1.
         -5    1    1    2    0  502 -0.60016606779E+00 -0.84328168741E+00  0.31381387244E+04  0.31381424147E+04  0.47000000000E+01 0.  1.
<mgrwt>
<rscale>  2 0.48126213E+01</rscale>
<asrwt>0</asrwt>
<pdfrwt beam="1">  1       21 0.48693322E+00 0.48126213E+01</pdfrwt>
<pdfrwt beam="2">  1       21 0.33075774E-04 0.48126213E+01</pdfrwt>
<totfact> 0.26752833E+06</totfact>
</mgrwt>
</event>
<event>
 4    1  0.3931501E+006  0.6173032E+01  0.7546771E-02  0.2393433E+00
         21   -1    0    0  501  502  0.00000000000E+00  0.00000000000E+00  0.21634895807E+01  0.21634895807E+01  0.00000000000E+00 0. -1.
         21   -1    0    0  502  503 -0.00000000000E+00 -0.00000000000E+00 -0.22358286345E+02  0.22358286345E+02  0.00000000000E+00 0. -1.
          5    1    1    2  501    0 -0.11350608845E+01 -0.38377019226E+01 -0.44491025091E+01  0.76092596483E+01  0.47000000000E+01 0. -1.
         -5    1    1    2    0  503  0.11350608845E+01  0.38377019226E+01 -0.15745694255E+02  0.16912516277E+02  0.47000000000E+01 0. -1.
<mgrwt>
<rscale>  2 0.61730316E+01</rscale>
<asrwt>0</asrwt>
<pdfrwt beam="1">  1       21 0.33284455E-03 0.61730316E+01</pdfrwt>
<pdfrwt beam="2">  1       21 0.34397364E-02 0.61730316E+01</pdfrwt>
<totfact> 0.25480314E+09</totfact>
</mgrwt>
</event>
<event>
 4    1  0.3931501E+006  0.4800073E+01  0.7546771E-02  0.2603891E+00
         21   -1    0    0  501  502  0.00000000000E+00  0.00000000000E+00  0.34281260247E+02  0.34281260247E+02  0.00000000000E+00 0.  1.
         21   -1    0    0  502  503 -0.00000000000E+00 -0.00000000000E+00 -0.17526708641E+01  0.17526708641E+01  0.00000000000E+00 0.  1.
          5    1    1    2  501    0  0.54260576637E+00  0.81011235756E+00  0.30411039523E+02  0.30787530396E+02  0.47000000000E+01 0.  1.
         -5    1    1    2    0  503 -0.54260576637E+00 -0.81011235756E+00  0.21175498600E+01  0.52464007147E+01  0.47000000000E+01 0.  1.
<mgrwt>
<rscale>  2 0.48000732E+01</rscale>
<asrwt>0</asrwt>
<pdfrwt beam="1">  1       21 0.52740395E-02 0.48000732E+01</pdfrwt>
<pdfrwt beam="2">  1       21 0.26964170E-03 0.48000732E+01</pdfrwt>
<totfact> 0.14429771E+09</totfact>
</mgrwt>
</event>
<event>
 4    1  0.3931501E+006  0.6515415E+01  0.7546771E-02  0.2352809E+00
         21   -1    0    0  501  502  0.00000000000E+00  0.00000000000E+00  0.59033271414E+00  0.59033271414E+00  0.00000000000E+00 0.  1.
         21   -1    0    0  502  503 -0.00000000000E+00 -0.00000000000E+00 -0.91879897399E+02  0.91879897399E+02  0.00000000000E+00 0. -1.
          5    1    1    2  501    0  0.41121419435E+01  0.18576660174E+01 -0.24089529162E+02  0.24955080638E+02  0.47000000000E+01 0.  1.
         -5    1    1    2    0  503 -0.41121419435E+01 -0.18576660174E+01 -0.67200035522E+02  0.67515149474E+02  0.47000000000E+01 0. -1.
<mgrwt>
<rscale>  2 0.65154151E+01</rscale>
<asrwt>0</asrwt>
<pdfrwt beam="1">  1       21 0.90820359E-04 0.65154151E+01</pdfrwt>
<pdfrwt beam="2">  1       21 0.14135378E-01 0.65154151E+01</pdfrwt>
<totfact> 0.18368498E+09</totfact>
</mgrwt>
</event>
<event>
 4    1  0.3931501E+006  0.5888495E+01  0.7546771E-02  0.2430166E+00
         21   -1    0    0  501  502  0.00000000000E+00  0.00000000000E+00  0.60368080019E+01  0.60368080019E+01  0.00000000000E+00 0. -1.
         21   -1    0    0  502  503 -0.00000000000E+00 -0.00000000000E+00 -0.10508838088E+02  0.10508838088E+02  0.00000000000E+00 0.  1.
          5    1    1    2  501    0 -0.34949260309E+01  0.60816401804E+00  0.33346675378E+01  0.67671544258E+01  0.47000000000E+01 0. -1.
         -5    1    1    2    0  503  0.34949260309E+01 -0.60816401804E+00 -0.78066976241E+01  0.97784916643E+01  0.47000000000E+01 0.  1.
<mgrwt>
<rscale>  2 0.58884948E+01</rscale>
<asrwt>0</asrwt>
<pdfrwt beam="1">  1       21 0.92873970E-03 0.58884948E+01</pdfrwt>
<pdfrwt beam="2">  1       21 0.16167443E-02 0.58884948E+01</pdfrwt>
<totfact> 0.17429337E+09</totfact>
</mgrwt>
</event>
<event>
 4    1  0.3931501E+006  0.7034555E+01  0.7546771E-02  0.2297524E+00
         21   -1    0    0  503  502  0.00000000000E+00  0.00000000000E+00  0.18319668409E+01  0.18319668409E+01  0.00000000000E+00 0.  1.
         21   -1    0    0  501  503 -0.00000000000E+00 -0.00000000000E+00 -0.32047691436E+02  0.32047691436E+02  0.00000000000E+00 0.  1.
          5    1    1    2  501    0 -0.14879517647E+01  0.50180637404E+01 -0.21822817627E+02  0.22928592049E+02  0.47000000000E+01 0.  1.
         -5    1    1    2    0  502  0.14879517647E+01 -0.50180637404E+01 -0.83929069675E+01  0.10951066228E+02  0.47000000000E+01 0.  1.
<mgrwt>
<rscale>  2 0.70345550E+01</rscale>
<asrwt>0</asrwt>
<pdfrwt beam="1">  1       21 0.28184106E-03 0.70345550E+01</pdfrwt>
<pdfrwt beam="2">  1       21 0.49304139E-02 0.70345550E+01</pdfrwt>
<totfact> 0.20907949E+09</totfact>
</mgrwt>
</event>
<event>
 4    1  0.3931501E+006  0.4907056E+01  0.7546771E-02  0.2583911E+00
         21   -1    0    0  501  502  0.00000000000E+00  0.00000000000E+00  0.41625480615E+02  0.41625480615E+02  0.00000000000E+00 0.  1.
         21   -1    0    0  502  503 -0.00000000000E+00 -0.00000000000E+00 -0.66714068413E+00  0.66714068413E+00  0.00000000000E+00 0.  1.
          5    1    1    2  501    0  0.10765293138E+01  0.91119671157E+00  0.28188379723E+02  0.28612304106E+02  0.47000000000E+01 0.  1.
         -5    1    1    2    0  503 -0.10765293138E+01 -0.91119671157E+00  0.12769960208E+02  0.13680317194E+02  0.47000000000E+01 0.  1.
<mgrwt>
<rscale>  2 0.49070556E+01</rscale>
<asrwt>0</asrwt>
<pdfrwt beam="1">  1       21 0.64039181E-02 0.49070556E+01</pdfrwt>
<pdfrwt beam="2">  1       21 0.10263706E-03 0.49070556E+01</pdfrwt>
<totfact> 0.40416668E+09</totfact>
</mgrwt>
</event>
<event>
 4    1  0.3931501E+006  0.5611687E+01  0.7546771E-02  0.2468880E+00
         21   -1    0    0  501  502  0.00000000000E+00  0.00000000000E+00  0.15377964436E+01  0.15377964436E+01  0.00000000000E+00 0.  1.
         21   -1    0    0  502  503 -0.00000000000E+00 -0.00000000000E+00 -0.56846120265E+02  0.56846120265E+02  0.00000000000E+00 0.  1.
          5    1    1    2  501    0  0.19520338021E+01  0.23644445141E+01 -0.43049033306E+01  0.70727099835E+01  0.47000000000E+01 0.  1.
         -5    1    1    2    0  503 -0.19520338021E+01 -0.23644445141E+01 -0.51003420491E+02  0.51311206725E+02  0.47000000000E+01 0.  1.
<mgrwt>
<rscale>  2 0.56116873E+01</rscale>
<asrwt>0</asrwt>
<pdfrwt beam="1">  1       21 0.23658405E-03 0.56116873E+01</pdfrwt>
<pdfrwt beam="2">  1       21 0.87455577E-02 0.56116873E+01</pdfrwt>
<totfact> 0.93701989E+08</totfact>
</mgrwt>
</event>
<event>
 4    1  0.3931501E+006  0.6571992E+01  0.7546771E-02  0.2346435E+00
         21   -1    0    0  501  502  0.00000000000E+00  0.00000000000E+00  0.34664221566E+01  0.34664221566E+01  0.00000000000E+00 0.  1.
         21   -1    0    0  502  503 -0.00000000000E+00 -0.00000000000E+00 -0.22232847097E+02  0.22232847097E+02  0.00000000000E+00 0.  1.
          5    1    1    2  501    0  0.20394088504E+01  0.41160531606E+01 -0.86384720831E+00  0.66285227675E+01  0.47000000000E+01 0.  1.
         -5    1    1    2    0  503 -0.20394088504E+01 -0.41160531606E+01 -0.17902577733E+02  0.19070746487E+02  0.47000000000E+01 0.  1.
<mgrwt>
<rscale>  2 0.65719922E+01</rscale>
<asrwt>0</asrwt>
<pdfrwt beam="1">  1       21 0.53329569E-03 0.65719922E+01</pdfrwt>
<pdfrwt beam="2">  1       21 0.34204382E-02 0.65719922E+01</pdfrwt>
<totfact> 0.14059709E+09</totfact>
</mgrwt>
</event>
<event>
 4    1  0.3931501E+006  0.8524706E+01  0.7546771E-02  0.2170159E+00
         21   -1    0    0  503  502  0.00000000000E+00  0.00000000000E+00  0.12373875776E+02  0.12373875776E+02  0.00000000000E+00 0. -1.
         21   -1    0    0  501  503 -0.00000000000E+00 -0.00000000000E+00 -0.22471347254E+02  0.22471347254E+02  0.00000000000E+00 0. -1.
          5    1    1    2  501    0  0.65223672660E+01 -0.28353718635E+01 -0.20022546881E+02  0.21761732283E+02  0.47000000000E+01 0. -1.
         -5    1    1    2    0  502 -0.65223672660E+01  0.28353718635E+01  0.99250754038E+01  0.13083490747E+02  0.47000000000E+01 0. -1.
<mgrwt>
<rscale>  2 0.85247058E+01</rscale>
<asrwt>0</asrwt>
<pdfrwt beam="1">  1       21 0.19036732E-02 0.85247058E+01</pdfrwt>
<pdfrwt beam="2">  1       21 0.34571303E-02 0.85247058E+01</pdfrwt>
<totfact> 0.26709559E+08</totfact>
</mgrwt>
</event>
<event>
 4    1  0.3931501E+006  0.6095025E+01  0.7546771E-02  0.2403218E+00
         21   -1    0    0  503  502  0.00000000000E+00  0.00000000000E+00  0.66449879863E+01  0.66449879863E+01  0.00000000000E+00 0.  1.
         21   -1    0    0  501  503 -0.00000000000E+00 -0.00000000000E+00 -0.56144567605E+01  0.56144567605E+01  0.00000000000E+00 0.  1.
          5    1    1    2  501    0 -0.35373917181E+01 -0.15956787728E+01  0.11552076127E+00  0.60961197462E+01  0.47000000000E+01 0.  1.
         -5    1    1    2    0  502  0.35373917181E+01  0.15956787728E+01  0.91501046453E+00  0.61633250006E+01  0.47000000000E+01 0.  1.
<mgrwt>
<rscale>  2 0.60950251E+01</rscale>
<asrwt>0</asrwt>
<pdfrwt beam="1">  1       21 0.10223058E-02 0.60950251E+01</pdfrwt>
<pdfrwt beam="2">  1       21 0.86376258E-03 0.60950251E+01</pdfrwt>
<totfact> 0.38141259E+09</totfact>
</mgrwt>
</event>
<event>
 4    1  0.3931501E+006  0.1325788E+02  0.7546771E-02  0.1926407E+00
         21   -1    0    0  501  502  0.00000000000E+00  0.00000000000E+00  0.33428236287E+02  0.33428236287E+02  0.00000000000E+00 0.  1.
         21   -1    0    0  502  503 -0.00000000000E+00 -0.00000000000E+00 -0.77927681548E+01  0.77927681548E+01  0.00000000000E+00 0. -1.
          5    1    1    2  501    0 -0.28503145233E+01 -0.12064702016E+02  0.24572048636E+02  0.27920546230E+02  0.47000000000E+01 0.  1.
         -5    1    1    2    0  503  0.28503145233E+01  0.12064702016E+02  0.10634194962E+01  0.13300458212E+02  0.47000000000E+01 0. -1.
<mgrwt>
<rscale>  2 0.13257878E+02</rscale>
<asrwt>0</asrwt>
<pdfrwt beam="1">  1       21 0.51428055E-02 0.13257878E+02</pdfrwt>
<pdfrwt beam="2">  1       21 0.11988874E-02 0.13257878E+02</pdfrwt>
<totfact> 0.36021934E+08</totfact>
</mgrwt>
</event>
<event>
 4    1  0.3931501E+006  0.6338441E+01  0.7546771E-02  0.2373352E+00
         21   -1    0    0  501  502  0.00000000000E+00  0.00000000000E+00  0.16891997962E+02  0.16891997962E+02  0.00000000000E+00 0.  1.
         21   -1    0    0  502  503 -0.00000000000E+00 -0.00000000000E+00 -0.24630041655E+02  0.24630041655E+02  0.00000000000E+00 0. -1.
          5    1    1    2  501    0 -0.32945636280E+01  0.26891802975E+01  0.15864163226E+02  0.17083545154E+02  0.47000000000E+01 0.  1.
         -5    1    1    2    0  503  0.32945636280E+01 -0.26891802975E+01 -0.23602206919E+02  0.24438494463E+02  0.47000000000E+01 0. -1.
<mgrwt>
<rscale>  2 0.63384415E+01</rscale>
<asrwt>0</asrwt>
<pdfrwt beam="1">  1       21 0.25987689E-02 0.63384415E+01</pdfrwt>
<pdfrwt beam="2">  1       21 0.37892372E-02 0.63384415E+01</pdfrwt>
<totfact> 0.12353316E+08</totfact>
</mgrwt>
</event>
<event>
 4    1  0.3931501E+006  0.6856393E+01  0.7546771E-02  0.2315719E+00
         21   -1    0    0  503  502  0.00000000000E+00  0.00000000000E+00  0.37452143041E+03  0.37452143041E+03  0.00000000000E+00 0.  1.
         21   -1    0    0  501  503 -0.00000000000E+00 -0.00000000000E+00 -0.14705567203E+00  0.14705567203E+00  0.00000000000E+00 0. -1.
          5    1    1    2  501    0  0.27986826619E+01 -0.41337036055E+01  0.11549858654E+03  0.11570191711E+03  0.47000000000E+01 0. -1.
         -5    1    1    2    0  502 -0.27986826619E+01  0.41337036055E+01  0.25887578821E+03  0.25896656898E+03  0.47000000000E+01 0.  1.
<mgrwt>
<rscale>  2 0.68563934E+01</rscale>
<asrwt>0</asrwt>
<pdfrwt beam="1">  1       21 0.57617918E-01 0.68563934E+01</pdfrwt>
<pdfrwt beam="2">  1       21 0.22624249E-04 0.68563934E+01</pdfrwt>
<totfact> 0.11340894E+09</totfact>
</mgrwt>
</event>
<event>
 4    1  0.3931501E+006  0.5509813E+01  0.7546771E-02  0.2483952E+00
         21   -1    0    0  503  502  0.00000000000E+00  0.00000000000E+00  0.26987865329E+03  0.26987865329E+03  0.00000000000E+00 0. -1.
         21   -1    0    0  501  503 -0.00000000000E+00 -0.00000000000E+00 -0.11423345048E+00  0.11423345048E+00  0.00000000000E+00 0.  1.
          5    1    1    2  501    0  0.26090436526E+01  0.12086906129E+01  0.11819395716E+03  0.11832231214E+03  0.47000000000E+01 0. -1.
         -5    1    1    2    0  502 -0.26090436526E+01 -0.12086906129E+01  0.15157046268E+03  0.15167057460E+03  0.47000000000E+01 0. -1.
<mgrwt>
<rscale>  2 0.55098132E+01</rscale>
<asrwt>0</asrwt>
<pdfrwt beam="1">  1       21 0.41519283E-01 0.55098132E+01</pdfrwt>
<pdfrwt beam="2">  1       21 0.17574593E-04 0.55098132E+01</pdfrwt>
<totfact> 0.24356522E+09</totfact>
</mgrwt>
</event>
<event>
 4    1  0.3931501E+006  0.5246891E+01  0.7546771E-02  0.2525135E+00
         21   -1    0    0  501  502  0.00000000000E+00  0.00000000000E+00  0.94110020260E+01  0.94110020260E+01  0.00000000000E+00 0. -1.
         21   -1    0    0  502  503 -0.00000000000E+00 -0.00000000000E+00 -0.33693147938E+01  0.33693147938E+01  0.00000000000E+00 0. -1.
          5    1    1    2  501    0 -0.20159986596E+01  0.11728654212E+01  0.53406238445E+01  0.74867968411E+01  0.47000000000E+01 0.  1.
         -5    1    1    2    0  503  0.20159986596E+01 -0.11728654212E+01  0.70106338768E+00  0.52935199787E+01  0.47000000000E+01 0.  1.
<mgrwt>
<rscale>  2 0.52468909E+01</rscale>
<asrwt>0</asrwt>
<pdfrwt beam="1">  1       21 0.14478465E-02 0.52468909E+01</pdfrwt>
<pdfrwt beam="2">  1       21 0.51835613E-03 0.52468909E+01</pdfrwt>
<totfact> 0.41238741E+09</totfact>
</mgrwt>
</event>
<event>
 4    1  0.3931501E+006  0.6466482E+01  0.7546771E-02  0.2358396E+00
         21   -1    0    0  501  502  0.00000000000E+00  0.00000000000E+00  0.78175287502E+01  0.78175287502E+01  0.00000000000E+00 0. -1.
         21   -1    0    0  502  503 -0.00000000000E+00 -0.00000000000E+00 -0.20263027583E+02  0.20263027583E+02  0.00000000000E+00 0. -1.
          5    1    1    2  501    0 -0.36113749714E+01 -0.25852192338E+01 -0.18268173191E+02  0.19378894174E+02  0.47000000000E+01 0. -1.
         -5    1    1    2    0  503  0.36113749714E+01  0.25852192338E+01  0.58226743575E+01  0.87016621599E+01  0.47000000000E+01 0. -1.
<mgrwt>
<rscale>  2 0.64664819E+01</rscale>
<asrwt>0</asrwt>
<pdfrwt beam="1">  1       21 0.12026968E-02 0.64664819E+01</pdfrwt>
<pdfrwt beam="2">  1       21 0.31173888E-02 0.64664819E+01</pdfrwt>
<totfact> 0.50508057E+08</totfact>
</mgrwt>
</event>
<event>
 4    1  0.3931501E+006  0.7942470E+01  0.7546771E-02  0.2215310E+00
         21   -1    0    0  501  502  0.00000000000E+00  0.00000000000E+00  0.67686328597E+00  0.67686328597E+00  0.00000000000E+00 0. -1.
         21   -1    0    0  502  503 -0.00000000000E+00 -0.00000000000E+00 -0.10474136643E+03  0.10474136643E+03  0.00000000000E+00 0.  1.
          5    1    1    2  501    0  0.45922779515E+01  0.44613693569E+01 -0.34534665049E+02  0.35436223323E+02  0.47000000000E+01 0. -1.
         -5    1    1    2    0  503 -0.45922779515E+01 -0.44613693569E+01 -0.69529838096E+02  0.69982006395E+02  0.47000000000E+01 0.  1.
<mgrwt>
<rscale>  2 0.79424702E+01</rscale>
<asrwt>0</asrwt>
<pdfrwt beam="1">  1       21 0.10413285E-03 0.79424702E+01</pdfrwt>
<pdfrwt beam="2">  1       21 0.16114051E-01 0.79424702E+01</pdfrwt>
<totfact> 0.14257933E+09</totfact>
</mgrwt>
</event>
<event>
 4    1  0.3931501E+006  0.7537170E+01  0.7546771E-02  0.2250021E+00
         21   -1    0    0  501  502  0.00000000000E+00  0.00000000000E+00  0.12266510034E+01  0.12266510034E+01  0.00000000000E+00 0. -1.
         21   -1    0    0  502  503 -0.00000000000E+00 -0.00000000000E+00 -0.57184093781E+02  0.57184093781E+02  0.00000000000E+00 0.  1.
          5    1    1    2  501    0 -0.23164470679E+01 -0.54178410875E+01 -0.15244354410E+02  0.17005859886E+02  0.47000000000E+01 0. -1.
         -5    1    1    2    0  503  0.23164470679E+01  0.54178410875E+01 -0.40713088368E+02  0.41404884899E+02  0.47000000000E+01 0.  1.
<mgrwt>
<rscale>  2 0.75371698E+01</rscale>
<asrwt>0</asrwt>
<pdfrwt beam="1">  1       21 0.18871554E-03 0.75371698E+01</pdfrwt>
<pdfrwt beam="2">  1       21 0.87975528E-02 0.75371698E+01</pdfrwt>
<totfact> 0.15852963E+09</totfact>
</mgrwt>
</event>
<event>
 4    1  0.3931501E+006  0.1091770E+02  0.7546771E-02  0.2026237E+00
         21   -1    0    0  503  502  0.00000000000E+00  0.00000000000E+00  0.12579631777E+02  0.12579631777E+02  0.00000000000E+00 0.  1.
         21   -1    0    0  501  503 -0.00000000000E+00 -0.00000000000E+00 -0.98312842292E+01  0.98312842292E+01  0.00000000000E+00 0.  1.
          5    1    1    2  501    0 -0.12471978188E+01  0.97750077575E+01  0.35063146977E+01  0.11466931665E+02  0.47000000000E+01 0.  1.
         -5    1    1    2    0  502  0.12471978188E+01 -0.97750077575E+01 -0.75796714968E+00  0.10943984341E+02  0.47000000000E+01 0.  1.
<mgrwt>
<rscale>  2 0.10917705E+02</rscale>
<asrwt>0</asrwt>
<pdfrwt beam="1">  1       21 0.19353280E-02 0.10917705E+02</pdfrwt>
<pdfrwt beam="2">  1       21 0.15125053E-02 0.10917705E+02</pdfrwt>
<totfact> 0.10222234E+09</totfact>
</mgrwt>
</event>
<event>
 4    1  0.3931501E+006  0.5627588E+01  0.7546771E-02  0.2466570E+00
         21   -1    0    0  501  502  0.00000000000E+00  0.00000000000E+00  0.39794684836E+00  0.39794684836E+00  0.00000000000E+00 0.  1.
         21   -1    0    0  502  503 -0.00000000000E+00 -0.00000000000E+00 -0.23118815556E+03  0.23118815556E+03  0.00000000000E+00 0.  1.
          5    1    1    2  501    0 -0.51472678574E+00  0.30520155906E+01 -0.21626616309E+02  0.22346818024E+02  0.47000000000E+01 0.  1.
         -5    1    1    2    0  503  0.51472678574E+00 -0.30520155906E+01 -0.20916359240E+03  0.20923928438E+03  0.47000000000E+01 0.  1.
<mgrwt>
<rscale>  2 0.56275877E+01</rscale>
<asrwt>0</asrwt>
<pdfrwt beam="1">  1       21 0.61222632E-04 0.56275877E+01</pdfrwt>
<pdfrwt beam="2">  1       21 0.35567385E-01 0.56275877E+01</pdfrwt>
<totfact> 0.61454598E+08</totfact>
</mgrwt>
</event>
<event>
 4    1  0.3931501E+006  0.6738856E+01  0.7546771E-02  0.2328155E+00
         21   -1    0    0  503  502  0.00000000000E+00  0.00000000000E+00  0.10554314473E+02  0.10554314473E+02  0.00000000000E+00 0.  1.
         21   -1    0    0  501  503 -0.00000000000E+00 -0.00000000000E+00 -0.43451484901E+01  0.43451484901E+01  0.00000000000E+00 0. -1.
          5    1    1    2  501    0 -0.33122205336E+01 -0.35144525997E+01  0.38407984490E+01  0.77565401221E+01  0.47000000000E+01 0.  1.
         -5    1    1    2    0  502  0.33122205336E+01  0.35144525997E+01  0.23683675341E+01  0.71429228412E+01  0.47000000000E+01 0. -1.
<mgrwt>
<rscale>  2 0.67388561E+01</rscale>
<asrwt>0</asrwt>
<pdfrwt beam="1">  1       21 0.16237407E-02 0.67388561E+01</pdfrwt>
<pdfrwt beam="2">  1       21 0.66848438E-03 0.67388561E+01</pdfrwt>
<totfact> 0.30841726E+09</totfact>
</mgrwt>
</event>
<event>
 4    1  0.3931501E+006  0.5172204E+01  0.7546771E-02  0.2537483E+00
         21   -1    0    0  501  502  0.00000000000E+00  0.00000000000E+00  0.42164264679E+01  0.42164264679E+01  0.00000000000E+00 0. -1.
         21   -1    0    0  502  503 -0.00000000000E+00 -0.00000000000E+00 -0.65083819506E+01  0.65083819506E+01  0.00000000000E+00 0.  1.
          5    1    1    2  501    0  0.20803629666E+01 -0.57773666418E+00 -0.19965452066E+01  0.55441755463E+01  0.47000000000E+01 0.  1.
         -5    1    1    2    0  503 -0.20803629666E+01  0.57773666418E+00 -0.29541027611E+00  0.51806328723E+01  0.47000000000E+01 0. -1.
<mgrwt>
<rscale>  2 0.51722036E+01</rscale>
<asrwt>0</asrwt>
<pdfrwt beam="1">  1       21 0.64868099E-03 0.51722036E+01</pdfrwt>
<pdfrwt beam="2">  1       21 0.10012895E-02 0.51722036E+01</pdfrwt>
<totfact> 0.50031067E+09</totfact>
</mgrwt>
</event>
<event>
 4    1  0.3931501E+006  0.7590313E+01  0.7546771E-02  0.2245299E+00
         21   -1    0    0  503  502  0.00000000000E+00  0.00000000000E+00  0.40753888807E+01  0.40753888807E+01  0.00000000000E+00 0. -1.
         21   -1    0    0  501  503 -0.00000000000E+00 -0.00000000000E+00 -0.14137677499E+02  0.14137677499E+02  0.00000000000E+00 0. -1.
          5    1    1    2  501    0  0.58999980022E+01  0.84432366298E+00 -0.49584171616E+01  0.90663531601E+01  0.47000000000E+01 0. -1.
         -5    1    1    2    0  502 -0.58999980022E+01 -0.84432366298E+00 -0.51038714562E+01  0.91467132193E+01  0.47000000000E+01 0. -1.
<mgrwt>
<rscale>  2 0.75903135E+01</rscale>
<asrwt>0</asrwt>
<pdfrwt beam="1">  1       21 0.62698291E-03 0.75903135E+01</pdfrwt>
<pdfrwt beam="2">  1       21 0.21750273E-02 0.75903135E+01</pdfrwt>
<totfact> 0.24254626E+09</totfact>
</mgrwt>
</event>
<event>
 4    1  0.3931501E+006  0.6152902E+01  0.7546771E-02  0.2395938E+00
         21   -1    0    0  503  502  0.00000000000E+00  0.00000000000E+00  0.23758690842E+03  0.23758690842E+03  0.00000000000E+00 0. -1.
         21   -1    0    0  501  503 -0.00000000000E+00 -0.00000000000E+00 -0.21007422865E+01  0.21007422865E+01  0.00000000000E+00 0.  1.
          5    1    1    2  501    0 -0.29014160893E+01 -0.27110854996E+01  0.25340520673E+01  0.66542933350E+01  0.47000000000E+01 0.  1.
         -5    1    1    2    0  502  0.29014160893E+01  0.27110854996E+01  0.23295211407E+03  0.23303335737E+03  0.47000000000E+01 0. -1.
<mgrwt>
<rscale>  2 0.61529017E+01</rscale>
<asrwt>0</asrwt>
<pdfrwt beam="1">  1       21 0.36551811E-01 0.61529017E+01</pdfrwt>
<pdfrwt beam="2">  1       21 0.32319131E-03 0.61529017E+01</pdfrwt>
<totfact> 0.65676966E+07</totfact>
</mgrwt>
</event>
<event>
 4    1  0.3931501E+006  0.8827479E+01  0.7546771E-02  0.2148581E+00
         21   -1    0    0  503  502  0.00000000000E+00  0.00000000000E+00  0.51000126145E+00  0.51000126145E+00  0.00000000000E+00 0.  1.
         21   -1    0    0  501  503 -0.00000000000E+00 -0.00000000000E+00 -0.18867973569E+03  0.18867973569E+03  0.00000000000E+00 0. -1.
          5    1    1    2  501    0  0.50290655644E+01 -0.55265624359E+01 -0.13533968318E+03  0.13562726214E+03  0.47000000000E+01 0. -1.
         -5    1    1    2    0  502 -0.50290655644E+01  0.55265624359E+01 -0.52830051245E+02  0.53562474806E+02  0.47000000000E+01 0.  1.
<mgrwt>
<rscale>  2 0.88274794E+01</rscale>
<asrwt>0</asrwt>
<pdfrwt beam="1">  1       21 0.78461662E-04 0.88274794E+01</pdfrwt>
<pdfrwt beam="2">  1       21 0.29027678E-01 0.88274794E+01</pdfrwt>
<totfact> 0.83948893E+08</totfact>
</mgrwt>
</event>
<event>
 4    1  0.3931501E+006  0.1269058E+02  0.7546771E-02  0.1947988E+00
         21   -1    0    0  503  502  0.00000000000E+00  0.00000000000E+00  0.31112595923E+02  0.31112595923E+02  0.00000000000E+00 0.  1.
         21   -1    0    0  501  503 -0.00000000000E+00 -0.00000000000E+00 -0.71748351474E+01  0.71748351474E+01  0.00000000000E+00 0. -1.
          5    1    1    2  501    0 -0.11596817501E+02  0.21153279563E+01  0.18654958997E+01  0.12826958465E+02  0.47000000000E+01 0. -1.
         -5    1    1    2    0  502  0.11596817501E+02 -0.21153279563E+01  0.22072264875E+02  0.25460472605E+02  0.47000000000E+01 0.  1.
<mgrwt>
<rscale>  2 0.12690579E+02</rscale>
<asrwt>0</asrwt>
<pdfrwt beam="1">  1       21 0.47865532E-02 0.12690579E+02</pdfrwt>
<pdfrwt beam="2">  1       21 0.11038208E-02 0.12690579E+02</pdfrwt>
<totfact> 0.44570177E+08</totfact>
</mgrwt>
</event>
<event>
 4    1  0.3931501E+006  0.6448786E+01  0.7546771E-02  0.2360433E+00
         21   -1    0    0  501  502  0.00000000000E+00  0.00000000000E+00  0.83434142011E+00  0.83434142011E+00  0.00000000000E+00 0. -1.
         21   -1    0    0  502  503 -0.00000000000E+00 -0.00000000000E+00 -0.72874975893E+02  0.72874975893E+02  0.00000000000E+00 0.  1.
          5    1    1    2  501    0  0.40847148939E+01  0.16768850779E+01 -0.15301727419E+02  0.16605110699E+02  0.47000000000E+01 0. -1.
         -5    1    1    2    0  503 -0.40847148939E+01 -0.16768850779E+01 -0.56738907054E+02  0.57104206614E+02  0.47000000000E+01 0.  1.
<mgrwt>
<rscale>  2 0.64487859E+01</rscale>
<asrwt>0</asrwt>
<pdfrwt beam="1">  1       21 0.12836019E-03 0.64487859E+01</pdfrwt>
<pdfrwt beam="2">  1       21 0.11211537E-01 0.64487859E+01</pdfrwt>
<totfact> 0.16414902E+09</totfact>
</mgrwt>
</event>
<event>
 4    1  0.3931501E+006  0.9152805E+01  0.7546771E-02  0.2126672E+00
         21   -1    0    0  503  502  0.00000000000E+00  0.00000000000E+00  0.19582301222E+03  0.19582301222E+03  0.00000000000E+00 0.  1.
         21   -1    0    0  501  503 -0.00000000000E+00 -0.00000000000E+00 -0.56402499081E+00  0.56402499081E+00  0.00000000000E+00 0. -1.
          5    1    1    2  501    0  0.30951126826E+01  0.72183185727E+01  0.49372990406E+02  0.50214201449E+02  0.47000000000E+01 0. -1.
         -5    1    1    2    0  502 -0.30951126826E+01 -0.72183185727E+01  0.14588599682E+03  0.14617283576E+03  0.47000000000E+01 0.  1.
<mgrwt>
<rscale>  2 0.91528053E+01</rscale>
<asrwt>0</asrwt>
<pdfrwt beam="1">  1       21 0.30126563E-01 0.91528053E+01</pdfrwt>
<pdfrwt beam="2">  1       21 0.86773231E-04 0.91528053E+01</pdfrwt>
<totfact> 0.70015346E+08</totfact>
</mgrwt>
</event>
<event>
 4    1  0.3931501E+006  0.6052706E+01  0.7546771E-02  0.2408614E+00
         21   -1    0    0  501  502  0.00000000000E+00  0.00000000000E+00  0.38297899116E+02  0.38297899116E+02  0.00000000000E+00 0. -1.
         21   -1    0    0  502  503 -0.00000000000E+00 -0.00000000000E+00 -0.10804577209E+01  0.10804577209E+01  0.00000000000E+00 0.  1.
          5    1    1    2  501    0 -0.92810554303E+00 -0.36991715022E+01  0.25275392544E+02  0.25990011888E+02  0.47000000000E+01 0. -1.
         -5    1    1    2    0  503  0.92810554303E+00  0.36991715022E+01  0.11942048851E+02  0.13388344949E+02  0.47000000000E+01 0.  1.
<mgrwt>
<rscale>  2 0.60527060E+01</rscale>
<asrwt>0</asrwt>
<pdfrwt beam="1">  1       21 0.58919834E-02 0.60527060E+01</pdfrwt>
<pdfrwt beam="2">  1       21 0.16622429E-03 0.60527060E+01</pdfrwt>
<totfact> 0.29221294E+09</totfact>
</mgrwt>
</event>
<event>
 4    1  0.3931501E+006  0.6006899E+01  0.7546771E-02  0.2414527E+00
         21   -1    0    0  501  502  0.00000000000E+00  0.00000000000E+00  0.80261047446E+01  0.80261047446E+01  0.00000000000E+00 0.  1.
         21   -1    0    0  502  503 -0.00000000000E+00 -0.00000000000E+00 -0.10683278075E+02  0.10683278075E+02  0.00000000000E+00 0. -1.
          5    1    1    2  501    0 -0.26460687601E+01  0.26440795632E+01  0.57907262316E+01  0.83435811801E+01  0.47000000000E+01 0.  1.
         -5    1    1    2    0  503  0.26460687601E+01 -0.26440795632E+01 -0.84478995617E+01  0.10365801639E+02  0.47000000000E+01 0. -1.
<mgrwt>
<rscale>  2 0.60068991E+01</rscale>
<asrwt>0</asrwt>
<pdfrwt beam="1">  1       21 0.12347854E-02 0.60068991E+01</pdfrwt>
<pdfrwt beam="2">  1       21 0.16435812E-02 0.60068991E+01</pdfrwt>
<totfact> 0.11578381E+09</totfact>
</mgrwt>
</event>
<event>
 4    1  0.3931501E+006  0.6141717E+01  0.7546771E-02  0.2397336E+00
         21   -1    0    0  503  502  0.00000000000E+00  0.00000000000E+00  0.11897268661E+01  0.11897268661E+01  0.00000000000E+00 0. -1.
         21   -1    0    0  501  503 -0.00000000000E+00 -0.00000000000E+00 -0.31954170920E+02  0.31954170920E+02  0.00000000000E+00 0.  1.
          5    1    1    2  501    0  0.93732882897E+00 -0.38408467362E+01 -0.13919821802E+02  0.15214536732E+02  0.47000000000E+01 0. -1.
         -5    1    1    2    0  502 -0.93732882897E+00  0.38408467362E+01 -0.16844622252E+02  0.17929361054E+02  0.47000000000E+01 0.  1.
<mgrwt>
<rscale>  2 0.61417171E+01</rscale>
<asrwt>0</asrwt>
<pdfrwt beam="1">  1       21 0.18303490E-03 0.61417171E+01</pdfrwt>
<pdfrwt beam="2">  1       21 0.49160262E-02 0.61417171E+01</pdfrwt>
<totfact> 0.33998036E+09</totfact>
</mgrwt>
</event>
<event>
 4    1  0.3931501E+006  0.8375940E+01  0.7546771E-02  0.2181215E+00
         21   -1    0    0  501  502  0.00000000000E+00  0.00000000000E+00  0.42444325473E+03  0.42444325473E+03  0.00000000000E+00 0.  1.
         21   -1    0    0  502  503 -0.00000000000E+00 -0.00000000000E+00 -0.32007461368E+00  0.32007461368E+00  0.00000000000E+00 0. -1.
          5    1    1    2  501    0  0.27264192291E+00  0.69276287298E+01  0.35975285515E+03  0.35985034829E+03  0.47000000000E+01 0.  1.
         -5    1    1    2    0  503 -0.27264192291E+00 -0.69276287298E+01  0.64370324961E+02  0.64912981052E+02  0.47000000000E+01 0. -1.
<mgrwt>
<rscale>  2 0.83759402E+01</rscale>
<asrwt>0</asrwt>
<pdfrwt beam="1">  1       21 0.65298512E-01 0.83759402E+01</pdfrwt>
<pdfrwt beam="2">  1       21 0.49242588E-04 0.83759402E+01</pdfrwt>
<totfact> 0.35328059E+08</totfact>
</mgrwt>
</event>
<event>
 4    1  0.3931501E+006  0.6088341E+01  0.7546771E-02  0.2404066E+00
         21   -1    0    0  503  502  0.00000000000E+00  0.00000000000E+00  0.25411702089E+00  0.25411702089E+00  0.00000000000E+00 0. -1.
         21   -1    0    0  501  503 -0.00000000000E+00 -0.00000000000E+00 -0.27610855597E+03  0.27610855597E+03  0.00000000000E+00 0.  1.
          5    1    1    2  501    0  0.10349890135E+01 -0.37291676668E+01 -0.23283029064E+03  0.23290987985E+03  0.47000000000E+01 0.  1.
         -5    1    1    2    0  502 -0.10349890135E+01  0.37291676668E+01 -0.43024148316E+02  0.43452793144E+02  0.47000000000E+01 0. -1.
<mgrwt>
<rscale>  2 0.60883408E+01</rscale>
<asrwt>0</asrwt>
<pdfrwt beam="1">  1       21 0.39094840E-04 0.60883408E+01</pdfrwt>
<pdfrwt beam="2">  1       21 0.42478333E-01 0.60883408E+01</pdfrwt>
<totfact> 0.87140119E+08</totfact>
</mgrwt>
</event>
<event>
 4    1  0.3931501E+006  0.4892721E+01  0.7546771E-02  0.2586544E+00
         21   -1    0    0  501  502  0.00000000000E+00  0.00000000000E+00  0.33124286640E+01  0.33124286640E+01  0.00000000000E+00 0. -1.
         21   -1    0    0  502  503 -0.00000000000E+00 -0.00000000000E+00 -0.24970065969E+02  0.24970065969E+02  0.00000000000E+00 0. -1.
          5    1    1    2  501    0  0.13439017292E+01 -0.20650641550E+00  0.10916399714E+01  0.50130224999E+01  0.47000000000E+01 0. -1.
         -5    1    1    2    0  503 -0.13439017292E+01  0.20650641550E+00 -0.22749277276E+02  0.23269472133E+02  0.47000000000E+01 0. -1.
<mgrwt>
<rscale>  2 0.48927208E+01</rscale>
<asrwt>0</asrwt>
<pdfrwt beam="1">  1       21 0.50960442E-03 0.48927208E+01</pdfrwt>
<pdfrwt beam="2">  1       21 0.38415485E-02 0.48927208E+01</pdfrwt>
<totfact> 0.97906168E+08</totfact>
</mgrwt>
</event>
<event>
 4    1  0.3931501E+006  0.8263446E+01  0.7546771E-02  0.2189787E+00
         21   -1    0    0  501  502  0.00000000000E+00  0.00000000000E+00  0.28247684381E+02  0.28247684381E+02  0.00000000000E+00 0. -1.
         21   -1    0    0  502  503 -0.00000000000E+00 -0.00000000000E+00 -0.27533582000E+01  0.27533582000E+01  0.00000000000E+00 0. -1.
          5    1    1    2  501    0  0.60781645997E+01 -0.30414550763E+01  0.18162057857E+02  0.19953568089E+02  0.47000000000E+01 0. -1.
         -5    1    1    2    0  503 -0.60781645997E+01  0.30414550763E+01  0.73322683247E+01  0.11047474493E+02  0.47000000000E+01 0. -1.
<mgrwt>
<rscale>  2 0.82634456E+01</rscale>
<asrwt>0</asrwt>
<pdfrwt beam="1">  1       21 0.43457974E-02 0.82634456E+01</pdfrwt>
<pdfrwt beam="2">  1       21 0.42359359E-03 0.82634456E+01</pdfrwt>
<totfact> 0.16068133E+09</totfact>
</mgrwt>
</event>
<event>
 4    1  0.3931501E+006  0.4770435E+01  0.7546771E-02  0.2609564E+00
         21   -1    0    0  501  502  0.00000000000E+00  0.00000000000E+00  0.69549639971E+02  0.69549639971E+02  0.00000000000E+00 0.  1.
         21   -1    0    0  502  503 -0.00000000000E+00 -0.00000000000E+00 -0.37720117883E+00  0.37720117883E+00  0.00000000000E+00 0.  1.
          5    1    1    2  501    0 -0.11204041313E-01 -0.81665461938E+00  0.21857285497E+02  0.22371812166E+02  0.47000000000E+01 0.  1.
         -5    1    1    2    0  503  0.11204041313E-01  0.81665461938E+00  0.47315153295E+02  0.47555028984E+02  0.47000000000E+01 0.  1.
<mgrwt>
<rscale>  2 0.47704350E+01</rscale>
<asrwt>0</asrwt>
<pdfrwt beam="1">  1       21 0.10699934E-01 0.47704350E+01</pdfrwt>
<pdfrwt beam="2">  1       21 0.58031006E-04 0.47704350E+01</pdfrwt>
<totfact> 0.38791111E+09</totfact>
</mgrwt>
</event>
<event>
 4    1  0.3931501E+006  0.6443663E+01  0.7546771E-02  0.2361025E+00
         21   -1    0    0  503  502  0.00000000000E+00  0.00000000000E+00  0.18517334976E+00  0.18517334976E+00  0.00000000000E+00 0.  1.
         21   -1    0    0  501  503 -0.00000000000E+00 -0.00000000000E+00 -0.24254810071E+03  0.24254810071E+03  0.00000000000E+00 0. -1.
          5    1    1    2  501    0  0.79338120250E+00 -0.43360507611E+01 -0.15453799979E+03  0.15467227990E+03  0.47000000000E+01 0. -1.
         -5    1    1    2    0  502 -0.79338120250E+00  0.43360507611E+01 -0.87824927569E+02  0.88060994160E+02  0.47000000000E+01 0.  1.
<mgrwt>
<rscale>  2 0.64436628E+01</rscale>
<asrwt>0</asrwt>
<pdfrwt beam="1">  1       21 0.28488241E-04 0.64436628E+01</pdfrwt>
<pdfrwt beam="2">  1       21 0.37315049E-01 0.64436628E+01</pdfrwt>
<totfact> 0.17400349E+09</totfact>
</mgrwt>
</event>
<event>
 4    1  0.3931501E+006  0.6230570E+01  0.7546771E-02  0.2386347E+00
         21   -1    0    0  501  502  0.00000000000E+00  0.00000000000E+00  0.50178286015E-01  0.50178286015E-01  0.00000000000E+00 0. -1.
         21   -1    0    0  502  503 -0.00000000000E+00 -0.00000000000E+00 -0.11090028640E+04  0.11090028640E+04  0.00000000000E+00 0. -1.
          5    1    1    2  501    0  0.62565829843E+00  0.40420982740E+01 -0.24953769381E+03  0.24961546554E+03  0.47000000000E+01 0. -1.
         -5    1    1    2    0  503 -0.62565829843E+00 -0.40420982740E+01 -0.85941499191E+03  0.85943757675E+03  0.47000000000E+01 0. -1.
<mgrwt>
<rscale>  2 0.62305703E+01</rscale>
<asrwt>0</asrwt>
<pdfrwt beam="1">  1       21 0.77194768E-05 0.62305703E+01</pdfrwt>
<pdfrwt beam="2">  1       21 0.17062156E+00 0.62305703E+01</pdfrwt>
<totfact> 0.49643083E+08</totfact>
</mgrwt>
</event>
<event>
 4    1  0.3931501E+006  0.6172235E+01  0.7546771E-02  0.2393532E+00
         21   -1    0    0  503  502  0.00000000000E+00  0.00000000000E+00  0.15488010760E+03  0.15488010760E+03  0.00000000000E+00 0.  1.
         21   -1    0    0  501  503 -0.00000000000E+00 -0.00000000000E+00 -0.44338601636E+00  0.44338601636E+00  0.00000000000E+00 0.  1.
          5    1    1    2  501    0 -0.43468548110E+00 -0.39771258831E+01  0.25397701332E+02  0.26136941571E+02  0.47000000000E+01 0.  1.
         -5    1    1    2    0  502  0.43468548110E+00  0.39771258831E+01  0.12903902025E+03  0.12918655204E+03  0.47000000000E+01 0.  1.
<mgrwt>
<rscale>  2 0.61722347E+01</rscale>
<asrwt>0</asrwt>
<pdfrwt beam="1">  1       21 0.23827666E-01 0.61722347E+01</pdfrwt>
<pdfrwt beam="2">  1       21 0.68213357E-04 0.61722347E+01</pdfrwt>
<totfact> 0.11162750E+09</totfact>
</mgrwt>
</event>
<event>
 4    1  0.3931501E+006  0.1326112E+02  0.7546771E-02  0.1926287E+00
         21   -1    0    0  503  502  0.00000000000E+00  0.00000000000E+00  0.16527265760E+03  0.16527265760E+03  0.00000000000E+00 0.  1.
         21   -1    0    0  501  503 -0.00000000000E+00 -0.00000000000E+00 -0.16294478098E+01  0.16294478098E+01  0.00000000000E+00 0. -1.
          5    1    1    2  501    0 -0.82259324286E+01 -0.92790840228E+01  0.32663968562E+02  0.35253258103E+02  0.47000000000E+01 0. -1.
         -5    1    1    2    0  502  0.82259324286E+01  0.92790840228E+01  0.13097924123E+03  0.13164884731E+03  0.47000000000E+01 0.  1.
<mgrwt>
<rscale>  2 0.13261122E+02</rscale>
<asrwt>0</asrwt>
<pdfrwt beam="1">  1       21 0.25426549E-01 0.13261122E+02</pdfrwt>
<pdfrwt beam="2">  1       21 0.25068441E-03 0.13261122E+02</pdfrwt>
<totfact> 0.25541930E+08</totfact>
</mgrwt>
</event>
<event>
 4    1  0.3931501E+006  0.5949848E+01  0.7546771E-02  0.2421997E+00
         21   -1    0    0  503  502  0.00000000000E+00  0.00000000000E+00  0.23207353025E+00  0.23207353025E+00  0.00000000000E+00 0.  1.
         21   -1    0    0  501  503 -0.00000000000E+00 -0.00000000000E+00 -0.30822928850E+03  0.30822928850E+03  0.00000000000E+00 0.  1.
          5    1    1    2  501    0 -0.21598747760E+01  0.29403465856E+01 -0.26361158742E+03  0.26367872443E+03  0.47000000000E+01 0.  1.
         -5    1    1    2    0  502  0.21598747760E+01 -0.29403465856E+01 -0.44385627558E+02  0.44782637604E+02  0.47000000000E+01 0.  1.
<mgrwt>
<rscale>  2 0.59498485E+01</rscale>
<asrwt>0</asrwt>
<pdfrwt beam="1">  1       21 0.35703556E-04 0.59498485E+01</pdfrwt>
<pdfrwt beam="2">  1       21 0.47419975E-01 0.59498485E+01</pdfrwt>
<totfact> 0.79588105E+08</totfact>
</mgrwt>
</event>
<event>
 4    1  0.3931501E+006  0.6222621E+01  0.7546771E-02  0.2387319E+00
         21   -1    0    0  503  502  0.00000000000E+00  0.00000000000E+00  0.25035905914E+02  0.25035905914E+02  0.00000000000E+00 0.  1.
         21   -1    0    0  501  503 -0.00000000000E+00 -0.00000000000E+00 -0.17401294617E+01  0.17401294617E+01  0.00000000000E+00 0.  1.
          5    1    1    2  501    0  0.33317384387E+01  0.23517087282E+01  0.71833412256E+01  0.95037574743E+01  0.47000000000E+01 0.  1.
         -5    1    1    2    0  502 -0.33317384387E+01 -0.23517087282E+01  0.16112435227E+02  0.17272277901E+02  0.47000000000E+01 0.  1.
<mgrwt>
<rscale>  2 0.62226212E+01</rscale>
<asrwt>0</asrwt>
<pdfrwt beam="1">  1       21 0.38516776E-02 0.62226212E+01</pdfrwt>
<pdfrwt beam="2">  1       21 0.26771224E-03 0.62226212E+01</pdfrwt>
<totfact> 0.29324895E+09</totfact>
</mgrwt>
</event>
<event>
 4    1  0.3931501E+006  0.5029319E+01  0.7546771E-02  0.2561979E+00
         21   -1    0    0  503  502  0.00000000000E+00  0.00000000000E+00  0.11079802212E+03  0.11079802212E+03  0.00000000000E+00 0. -1.
         21   -1    0    0  501  503 -0.00000000000E+00 -0.00000000000E+00 -0.22873636061E+00  0.22873636061E+00  0.00000000000E+00 0. -1.
          5    1    1    2  501    0 -0.74839924044E+00 -0.16260235313E+01  0.52831688824E+02  0.53070532294E+02  0.47000000000E+01 0. -1.
         -5    1    1    2    0  502  0.74839924044E+00  0.16260235313E+01  0.57737596938E+02  0.57956226189E+02  0.47000000000E+01 0. -1.
<mgrwt>
<rscale>  2 0.50293194E+01</rscale>
<asrwt>0</asrwt>
<pdfrwt beam="1">  1       21 0.17045807E-01 0.50293194E+01</pdfrwt>
<pdfrwt beam="2">  1       21 0.35190298E-04 0.50293194E+01</pdfrwt>
<totfact> 0.38713268E+09</totfact>
</mgrwt>
</event>
<event>
 4    1  0.3931501E+006  0.6887299E+01  0.7546771E-02  0.2312508E+00
         21   -1    0    0  503  502  0.00000000000E+00  0.00000000000E+00  0.30057744597E+01  0.30057744597E+01  0.00000000000E+00 0.  1.
         21   -1    0    0  501  503 -0.00000000000E+00 -0.00000000000E+00 -0.19370759864E+02  0.19370759864E+02  0.00000000000E+00 0. -1.
          5    1    1    2  501    0 -0.12619436962E+01  0.48736422447E+01 -0.12998718337E+02  0.14710593769E+02  0.47000000000E+01 0. -1.
         -5    1    1    2    0  502  0.12619436962E+01 -0.48736422447E+01 -0.33662670668E+01  0.76659405546E+01  0.47000000000E+01 0.  1.
<mgrwt>
<rscale>  2 0.68872992E+01</rscale>
<asrwt>0</asrwt>
<pdfrwt beam="1">  1       21 0.46242683E-03 0.68872992E+01</pdfrwt>
<pdfrwt beam="2">  1       21 0.29801170E-02 0.68872992E+01</pdfrwt>
<totfact> 0.21785480E+09</totfact>
</mgrwt>
</event>
<event>
 4    1  0.3931501E+006  0.6033320E+01  0.7546771E-02  0.2411107E+00
         21   -1    0    0  503  502  0.00000000000E+00  0.00000000000E+00  0.15175551241E+02  0.15175551241E+02  0.00000000000E+00 0. -1.
         21   -1    0    0  501  503 -0.00000000000E+00 -0.00000000000E+00 -0.31205951937E+01  0.31205951937E+01  0.00000000000E+00 0. -1.
          5    1    1    2  501    0 -0.35507999204E+01 -0.13049015534E+01  0.16273956592E+01  0.62489490933E+01  0.47000000000E+01 0. -1.
         -5    1    1    2    0  502  0.35507999204E+01  0.13049015534E+01  0.10427560388E+02  0.12047197342E+02  0.47000000000E+01 0. -1.
<mgrwt>
<rscale>  2 0.60333198E+01</rscale>
<asrwt>0</asrwt>
<pdfrwt beam="1">  1       21 0.23347002E-02 0.60333198E+01</pdfrwt>
<pdfrwt beam="2">  1       21 0.48009158E-03 0.60333198E+01</pdfrwt>
<totfact> 0.26427008E+09</totfact>
</mgrwt>
</event>
<event>
 4    1  0.3931501E+006  0.8192719E+01  0.7546771E-02  0.2195273E+00
         21   -1    0    0  501  502  0.00000000000E+00  0.00000000000E+00  0.13116317064E+00  0.13116317064E+00  0.00000000000E+00 0. -1.
         21   -1    0    0  502  503 -0.00000000000E+00 -0.00000000000E+00 -0.54945854225E+03  0.54945854225E+03  0.00000000000E+00 0.  1.
          5    1    1    2  501    0 -0.21816426284E+01  0.63459499617E+01 -0.20266020889E+03  0.20282574026E+03  0.47000000000E+01 0. -1.
         -5    1    1    2    0  503  0.21816426284E+01 -0.63459499617E+01 -0.34666717019E+03  0.34676396516E+03  0.47000000000E+01 0.  1.
<mgrwt>
<rscale>  2 0.81927191E+01</rscale>
<asrwt>0</asrwt>
<pdfrwt beam="1">  1       21 0.20179290E-04 0.81927191E+01</pdfrwt>
<pdfrwt beam="2">  1       21 0.84530657E-01 0.81927191E+01</pdfrwt>
<totfact> 0.70325801E+08</totfact>
</mgrwt>
</event>
<event>
 4    1  0.3931501E+006  0.1050567E+02  0.7546771E-02  0.2047302E+00
         21   -1    0    0  501  502  0.00000000000E+00  0.00000000000E+00  0.33493522205E+02  0.33493522205E+02  0.00000000000E+00 0. -1.
         21   -1    0    0  502  503 -0.00000000000E+00 -0.00000000000E+00 -0.42164141356E+01  0.42164141356E+01  0.00000000000E+00 0.  1.
          5    1    1    2  501    0 -0.12162342413E+00 -0.93949063939E+01  0.23451599206E+02  0.25697209259E+02  0.47000000000E+01 0. -1.
         -5    1    1    2    0  503  0.12162342413E+00  0.93949063939E+01  0.58255088635E+01  0.12012727081E+02  0.47000000000E+01 0.  1.
<mgrwt>
<rscale>  2 0.10505668E+02</rscale>
<asrwt>0</asrwt>
<pdfrwt beam="1">  1       21 0.51528494E-02 0.10505668E+02</pdfrwt>
<pdfrwt beam="2">  1       21 0.64867912E-03 0.10505668E+02</pdfrwt>
<totfact> 0.78288848E+08</totfact>
</mgrwt>
</event>
<event>
 4    1  0.3931501E+006  0.8216761E+01  0.7546771E-02  0.2193399E+00
         21   -1    0    0  503  502  0.00000000000E+00  0.00000000000E+00  0.45254956074E+03  0.45254956074E+03  0.00000000000E+00 0.  1.
         21   -1    0    0  501  503 -0.00000000000E+00 -0.00000000000E+00 -0.32049431383E+00  0.32049431383E+00  0.00000000000E+00 0.  1.
          5    1    1    2  501    0 -0.43915298702E+01  0.51126924244E+01  0.60568192666E+02  0.61122999936E+02  0.47000000000E+01 0.  1.
         -5    1    1    2    0  502  0.43915298702E+01 -0.51126924244E+01  0.39166087376E+03  0.39174705512E+03  0.47000000000E+01 0.  1.
<mgrwt>
<rscale>  2 0.82167608E+01</rscale>
<asrwt>0</asrwt>
<pdfrwt beam="1">  1       21 0.69622498E-01 0.82167608E+01</pdfrwt>
<pdfrwt beam="2">  1       21 0.49307180E-04 0.82167608E+01</pdfrwt>
<totfact> 0.30843270E+08</totfact>
</mgrwt>
</event>
<event>
 4    1  0.3931501E+006  0.5759343E+01  0.7546771E-02  0.2447839E+00
         21   -1    0    0  501  502  0.00000000000E+00  0.00000000000E+00  0.37776494595E+01  0.37776494595E+01  0.00000000000E+00 0.  1.
         21   -1    0    0  502  503 -0.00000000000E+00 -0.00000000000E+00 -0.11072478595E+02  0.11072478595E+02  0.00000000000E+00 0.  1.
          5    1    1    2  501    0 -0.32532440193E+01 -0.70458112111E+00 -0.26930662018E+00  0.57656358939E+01  0.47000000000E+01 0.  1.
         -5    1    1    2    0  503  0.32532440193E+01  0.70458112111E+00 -0.70255225157E+01  0.90844921611E+01  0.47000000000E+01 0.  1.
<mgrwt>
<rscale>  2 0.57593429E+01</rscale>
<asrwt>0</asrwt>
<pdfrwt beam="1">  1       21 0.58117684E-03 0.57593429E+01</pdfrwt>
<pdfrwt beam="2">  1       21 0.17034582E-02 0.57593429E+01</pdfrwt>
<totfact> 0.30558905E+09</totfact>
</mgrwt>
</event>
<event>
 4    1  0.3931501E+006  0.6728324E+01  0.7546771E-02  0.2329286E+00
         21   -1    0    0  501  502  0.00000000000E+00  0.00000000000E+00  0.13047287312E+01  0.13047287312E+01  0.00000000000E+00 0. -1.
         21   -1    0    0  502  503 -0.00000000000E+00 -0.00000000000E+00 -0.74810484717E+02  0.74810484717E+02  0.00000000000E+00 0.  1.
          5    1    1    2  501    0  0.86214355062E+00  0.47367768800E+01 -0.88849478190E+01  0.11145072654E+02  0.47000000000E+01 0. -1.
         -5    1    1    2    0  503 -0.86214355062E+00 -0.47367768800E+01 -0.64620808167E+02  0.64970140795E+02  0.47000000000E+01 0. -1.
<mgrwt>
<rscale>  2 0.67283242E+01</rscale>
<asrwt>0</asrwt>
<pdfrwt beam="1">  1       21 0.20072746E-03 0.67283242E+01</pdfrwt>
<pdfrwt beam="2">  1       21 0.11509307E-01 0.67283242E+01</pdfrwt>
<totfact> 0.88469649E+08</totfact>
</mgrwt>
</event>
<event>
 4    1  0.3931501E+006  0.7001962E+01  0.7546771E-02  0.2300796E+00
         21   -1    0    0  503  502  0.00000000000E+00  0.00000000000E+00  0.13469973846E+03  0.13469973846E+03  0.00000000000E+00 0. -1.
         21   -1    0    0  501  503 -0.00000000000E+00 -0.00000000000E+00 -0.36437674049E+00  0.36437674049E+00  0.00000000000E+00 0.  1.
          5    1    1    2  501    0  0.51473751405E+01 -0.66483074651E+00  0.69407285112E+02  0.69759577819E+02  0.47000000000E+01 0.  1.
         -5    1    1    2    0  502 -0.51473751405E+01  0.66483074651E+00  0.64928076603E+02  0.65304537378E+02  0.47000000000E+01 0. -1.
<mgrwt>
<rscale>  2 0.70019619E+01</rscale>
<asrwt>0</asrwt>
<pdfrwt beam="1">  1       21 0.20722997E-01 0.70019619E+01</pdfrwt>
<pdfrwt beam="2">  1       21 0.56058067E-04 0.70019619E+01</pdfrwt>
<totfact> 0.20072804E+09</totfact>
</mgrwt>
</event>
<event>
 4    1  0.3931501E+006  0.4771690E+01  0.7546771E-02  0.2609322E+00
         21   -1    0    0  503  502  0.00000000000E+00  0.00000000000E+00  0.36869643710E+03  0.36869643710E+03  0.00000000000E+00 0. -1.
         21   -1    0    0  501  503 -0.00000000000E+00 -0.00000000000E+00 -0.99682103257E-01  0.99682103257E-01  0.00000000000E+00 0. -1.
          5    1    1    2  501    0 -0.71429051270E+00 -0.41087558586E+00  0.70556662225E+02  0.70717830948E+02  0.47000000000E+01 0. -1.
         -5    1    1    2    0  502  0.71429051270E+00  0.41087558586E+00  0.29804009277E+03  0.29807828826E+03  0.47000000000E+01 0. -1.
<mgrwt>
<rscale>  2 0.47716904E+01</rscale>
<asrwt>0</asrwt>
<pdfrwt beam="1">  1       21 0.56721437E-01 0.47716904E+01</pdfrwt>
<pdfrwt beam="2">  1       21 0.15336003E-04 0.47716904E+01</pdfrwt>
<totfact> 0.14838609E+09</totfact>
</mgrwt>
</event>
<event>
 4    1  0.3931501E+006  0.4988150E+01  0.7546771E-02  0.2569260E+00
         21   -1    0    0  501  502  0.00000000000E+00  0.00000000000E+00  0.82764692656E-01  0.82764692656E-01  0.00000000000E+00 0. -1.
         21   -1    0    0  502  503 -0.00000000000E+00 -0.00000000000E+00 -0.89004176506E+03  0.89004176506E+03  0.00000000000E+00 0. -1.
          5    1    1    2  501    0 -0.15370843291E+01  0.65499334146E+00 -0.82799422095E+02  0.82949538539E+02  0.47000000000E+01 0. -1.
         -5    1    1    2    0  503  0.15370843291E+01 -0.65499334146E+00 -0.80715957827E+03  0.80717499122E+03  0.47000000000E+01 0. -1.
<mgrwt>
<rscale>  2 0.49881504E+01</rscale>
<asrwt>0</asrwt>
<pdfrwt beam="1">  1       21 0.12732425E-04 0.49881504E+01</pdfrwt>
<pdfrwt beam="2">  1       21 0.13693601E+00 0.49881504E+01</pdfrwt>
<totfact> 0.35293564E+08</totfact>
</mgrwt>
</event>
<event>
 4    1  0.3931501E+006  0.9304105E+01  0.7546771E-02  0.2116899E+00
         21   -1    0    0  501  502  0.00000000000E+00  0.00000000000E+00  0.19537189079E+03  0.19537189079E+03  0.00000000000E+00 0.  1.
         21   -1    0    0  502  503 -0.00000000000E+00 -0.00000000000E+00 -0.24222315398E+01  0.24222315398E+01  0.00000000000E+00 0. -1.
          5    1    1    2  501    0  0.36654831368E+01 -0.71442708309E+01  0.18587009633E+03  0.18610281857E+03  0.47000000000E+01 0.  1.
         -5    1    1    2    0  503 -0.36654831368E+01  0.71442708309E+01  0.70795629222E+01  0.11691303755E+02  0.47000000000E+01 0. -1.
<mgrwt>
<rscale>  2 0.93041051E+01</rscale>
<asrwt>0</asrwt>
<pdfrwt beam="1">  1       21 0.30057202E-01 0.93041051E+01</pdfrwt>
<pdfrwt beam="2">  1       21 0.37265116E-03 0.93041051E+01</pdfrwt>
<totfact> 0.93475914E+07</totfact>
</mgrwt>
</event>
<event>
 4    1  0.3931501E+006  0.4937869E+01  0.7546771E-02  0.2578295E+00
         21   -1    0    0  503  502  0.00000000000E+00  0.00000000000E+00  0.81853822679E+00  0.81853822679E+00  0.00000000000E+00 0. -1.
         21   -1    0    0  501  503 -0.00000000000E+00 -0.00000000000E+00 -0.38152146293E+02  0.38152146293E+02  0.00000000000E+00 0. -1.
          5    1    1    2  501    0  0.12670188305E+01 -0.82898484433E+00 -0.27790302318E+02  0.28225581580E+02  0.47000000000E+01 0. -1.
         -5    1    1    2    0  502 -0.12670188305E+01  0.82898484433E+00 -0.95433057485E+01  0.10745102940E+02  0.47000000000E+01 0. -1.
<mgrwt>
<rscale>  2 0.49378692E+01</rscale>
<asrwt>0</asrwt>
<pdfrwt beam="1">  1       21 0.12592894E-03 0.49378692E+01</pdfrwt>
<pdfrwt beam="2">  1       21 0.58695616E-02 0.49378692E+01</pdfrwt>
<totfact> 0.35233681E+09</totfact>
</mgrwt>
</event>
<event>
 4    1  0.3931501E+006  0.7743344E+01  0.7546771E-02  0.2231996E+00
         21   -1    0    0  501  502  0.00000000000E+00  0.00000000000E+00  0.87259319230E-01  0.87259319230E-01  0.00000000000E+00 0.  1.
         21   -1    0    0  502  503 -0.00000000000E+00 -0.00000000000E+00 -0.13729664323E+04  0.13729664323E+04  0.00000000000E+00 0. -1.
          5    1    1    2  501    0 -0.60331642411E+01 -0.12125617242E+01 -0.20122410959E+03  0.20137304104E+03  0.47000000000E+01 0.  1.
         -5    1    1    2    0  503  0.60331642411E+01  0.12125617242E+01 -0.11716550634E+04  0.11716806506E+04  0.47000000000E+01 0. -1.
<mgrwt>
<rscale>  2 0.77433440E+01</rscale>
<asrwt>0</asrwt>
<pdfrwt beam="1">  1       21 0.13422651E-04 0.77433440E+01</pdfrwt>
<pdfrwt beam="2">  1       21 0.21125487E+00 0.77433440E+01</pdfrwt>
<totfact> 0.16299885E+08</totfact>
</mgrwt>
</event>
<event>
 4    1  0.3931501E+006  0.5599605E+01  0.7546771E-02  0.2470644E+00
         21   -1    0    0  503  502  0.00000000000E+00  0.00000000000E+00  0.25753210798E+01  0.25753210798E+01  0.00000000000E+00 0. -1.
         21   -1    0    0  501  503 -0.00000000000E+00 -0.00000000000E+00 -0.25463970475E+02  0.25463970475E+02  0.00000000000E+00 0. -1.
          5    1    1    2  501    0 -0.29777478025E+01  0.63134154330E+00 -0.21572076491E+02  0.22286993029E+02  0.47000000000E+01 0. -1.
         -5    1    1    2    0  502  0.29777478025E+01 -0.63134154330E+00 -0.13165729038E+01  0.57522985259E+01  0.47000000000E+01 0. -1.
<mgrwt>
<rscale>  2 0.55996048E+01</rscale>
<asrwt>0</asrwt>
<pdfrwt beam="1">  1       21 0.39620323E-03 0.55996048E+01</pdfrwt>
<pdfrwt beam="2">  1       21 0.39175340E-02 0.55996048E+01</pdfrwt>
<totfact> 0.15234015E+09</totfact>
</mgrwt>
</event>
<event>
 4    1  0.3931501E+006  0.5966687E+01  0.7546771E-02  0.2419780E+00
         21   -1    0    0  503  502  0.00000000000E+00  0.00000000000E+00  0.57120776691E+03  0.57120776691E+03  0.00000000000E+00 0.  1.
         21   -1    0    0  501  503 -0.00000000000E+00 -0.00000000000E+00 -0.62432697999E-01  0.62432697999E-01  0.00000000000E+00 0. -1.
          5    1    1    2  501    0  0.34410832631E+01  0.12924018264E+01  0.27378980095E+03  0.27385480909E+03  0.47000000000E+01 0. -1.
         -5    1    1    2    0  502 -0.34410832631E+01 -0.12924018264E+01  0.29735553326E+03  0.29741539052E+03  0.47000000000E+01 0.  1.
<mgrwt>
<rscale>  2 0.59666872E+01</rscale>
<asrwt>0</asrwt>
<pdfrwt beam="1">  1       21 0.87873933E-01 0.59666872E+01</pdfrwt>
<pdfrwt beam="2">  1       21 0.96054879E-05 0.59666872E+01</pdfrwt>
<totfact> 0.14422210E+09</totfact>
</mgrwt>
</event>
<event>
 4    1  0.3931501E+006  0.5530963E+01  0.7546771E-02  0.2480784E+00
         21   -1    0    0  501  502  0.00000000000E+00  0.00000000000E+00  0.34255369342E+03  0.34255369342E+03  0.00000000000E+00 0.  1.
         21   -1    0    0  502  503 -0.00000000000E+00 -0.00000000000E+00 -0.35241476150E+00  0.35241476150E+00  0.00000000000E+00 0.  1.
          5    1    1    2  501    0  0.28702550006E+01  0.51301991762E+00  0.31924569204E+03  0.31929360069E+03  0.47000000000E+01 0.  1.
         -5    1    1    2    0  503 -0.28702550006E+01 -0.51301991762E+00  0.22955586618E+02  0.23612507494E+02  0.47000000000E+01 0.  1.
<mgrwt>
<rscale>  2 0.55309631E+01</rscale>
<asrwt>0</asrwt>
<pdfrwt beam="1">  1       21 0.52700302E-01 0.55309631E+01</pdfrwt>
<pdfrwt beam="2">  1       21 0.54217930E-04 0.55309631E+01</pdfrwt>
<totfact> 0.35775921E+08</totfact>
</mgrwt>
</event>
<event>
 4    1  0.3931501E+006  0.6093001E+01  0.7546771E-02  0.2403474E+00
         21   -1    0    0  503  502  0.00000000000E+00  0.00000000000E+00  0.68535137325E+02  0.68535137325E+02  0.00000000000E+00 0.  1.
         21   -1    0    0  501  503 -0.00000000000E+00 -0.00000000000E+00 -0.58916974573E+00  0.58916974573E+00  0.00000000000E+00 0.  1.
          5    1    1    2  501    0 -0.38720577665E+01  0.20451625143E+00  0.24161286735E+02  0.24917713276E+02  0.47000000000E+01 0.  1.
         -5    1    1    2    0  502  0.38720577665E+01 -0.20451625143E+00  0.43784680844E+02  0.44206593794E+02  0.47000000000E+01 0.  1.
<mgrwt>
<rscale>  2 0.60930008E+01</rscale>
<asrwt>0</asrwt>
<pdfrwt beam="1">  1       21 0.10543861E-01 0.60930008E+01</pdfrwt>
<pdfrwt beam="2">  1       21 0.90641553E-04 0.60930008E+01</pdfrwt>
<totfact> 0.27558460E+09</totfact>
</mgrwt>
</event>
<event>
 4    1  0.3931501E+006  0.5533922E+01  0.7546771E-02  0.2480343E+00
         21   -1    0    0  501  502  0.00000000000E+00  0.00000000000E+00  0.27567703943E+01  0.27567703943E+01  0.00000000000E+00 0.  1.
         21   -1    0    0  502  503 -0.00000000000E+00 -0.00000000000E+00 -0.21875925774E+02  0.21875925774E+02  0.00000000000E+00 0.  1.
          5    1    1    2  501    0 -0.13660744249E+01  0.25822721413E+01 -0.91886587046E+00  0.56096883366E+01  0.47000000000E+01 0.  1.
         -5    1    1    2    0  503  0.13660744249E+01 -0.25822721413E+01 -0.18200289509E+02  0.19023007831E+02  0.47000000000E+01 0.  1.
<mgrwt>
<rscale>  2 0.55339216E+01</rscale>
<asrwt>0</asrwt>
<pdfrwt beam="1">  1       21 0.42411853E-03 0.55339216E+01</pdfrwt>
<pdfrwt beam="2">  1       21 0.33655270E-02 0.55339216E+01</pdfrwt>
<totfact> 0.17125916E+09</totfact>
</mgrwt>
</event>
<event>
 4    1  0.3931501E+006  0.4708297E+01  0.7546771E-02  0.2621658E+00
         21   -1    0    0  503  502  0.00000000000E+00  0.00000000000E+00  0.97164471802E+02  0.97164471802E+02  0.00000000000E+00 0. -1.
         21   -1    0    0  501  503 -0.00000000000E+00 -0.00000000000E+00 -0.29406519403E+00  0.29406519403E+00  0.00000000000E+00 0. -1.
          5    1    1    2  501    0  0.26290184811E+00 -0.94589968604E-01  0.25364482001E+02  0.25797771451E+02  0.47000000000E+01 0. -1.
         -5    1    1    2    0  502 -0.26290184811E+00  0.94589968604E-01  0.71505924606E+02  0.71660765545E+02  0.47000000000E+01 0. -1.
<mgrwt>
<rscale>  2 0.47082974E+01</rscale>
<asrwt>0</asrwt>
<pdfrwt beam="1">  1       21 0.14948355E-01 0.47082974E+01</pdfrwt>
<pdfrwt beam="2">  1       21 0.45240877E-04 0.47082974E+01</pdfrwt>
<totfact> 0.31893538E+09</totfact>
</mgrwt>
</event>
<event>
 4    1  0.3931501E+006  0.6178382E+01  0.7546771E-02  0.2392770E+00
         21   -1    0    0  501  502  0.00000000000E+00  0.00000000000E+00  0.96701027522E-01  0.96701027522E-01  0.00000000000E+00 0. -1.
         21   -1    0    0  502  503 -0.00000000000E+00 -0.00000000000E+00 -0.51810050273E+03  0.51810050273E+03  0.00000000000E+00 0.  1.
          5    1    1    2  501    0  0.96337785975E+00 -0.38928531375E+01 -0.13257645363E+03  0.13272033928E+03  0.47000000000E+01 0. -1.
         -5    1    1    2    0  503 -0.96337785975E+00  0.38928531375E+01 -0.38542734807E+03  0.38547686447E+03  0.47000000000E+01 0.  1.
<mgrwt>
<rscale>  2 0.61783819E+01</rscale>
<asrwt>0</asrwt>
<pdfrwt beam="1">  1       21 0.14876687E-04 0.61783819E+01</pdfrwt>
<pdfrwt beam="2">  1       21 0.79709879E-01 0.61783819E+01</pdfrwt>
<totfact> 0.99873585E+08</totfact>
</mgrwt>
</event>
<event>
 4    1  0.3931501E+006  0.1281296E+02  0.7546771E-02  0.1943209E+00
         21   -1    0    0  503  502  0.00000000000E+00  0.00000000000E+00  0.15731234005E+02  0.15731234005E+02  0.00000000000E+00 0.  1.
         21   -1    0    0  501  503 -0.00000000000E+00 -0.00000000000E+00 -0.36837252242E+02  0.36837252242E+02  0.00000000000E+00 0. -1.
          5    1    1    2  501    0  0.11673031379E+02 -0.24129583942E+01 -0.32804733357E+02  0.35218213475E+02  0.47000000000E+01 0. -1.
         -5    1    1    2    0  502 -0.11673031379E+02  0.24129583942E+01  0.11698715120E+02  0.17350272771E+02  0.47000000000E+01 0.  1.
<mgrwt>
<rscale>  2 0.12812963E+02</rscale>
<asrwt>0</asrwt>
<pdfrwt beam="1">  1       21 0.24201899E-02 0.12812963E+02</pdfrwt>
<pdfrwt beam="2">  1       21 0.56672695E-02 0.12812963E+02</pdfrwt>
<totfact> 0.10702400E+08</totfact>
</mgrwt>
</event>
<event>
 4    1  0.3931501E+006  0.7462817E+01  0.7546771E-02  0.2256719E+00
         21   -1    0    0  503  502  0.00000000000E+00  0.00000000000E+00  0.14331805928E+02  0.14331805928E+02  0.00000000000E+00 0.  1.
         21   -1    0    0  501  503 -0.00000000000E+00 -0.00000000000E+00 -0.43309013374E+01  0.43309013374E+01  0.00000000000E+00 0. -1.
          5    1    1    2  501    0  0.43042833432E-01  0.57967041093E+01  0.20097071201E+01  0.77286838417E+01  0.47000000000E+01 0.  1.
         -5    1    1    2    0  502 -0.43042833432E-01 -0.57967041093E+01  0.79911974702E+01  0.10934023423E+02  0.47000000000E+01 0. -1.
<mgrwt>
<rscale>  2 0.74628166E+01</rscale>
<asrwt>0</asrwt>
<pdfrwt beam="1">  1       21 0.22048932E-02 0.74628166E+01</pdfrwt>
<pdfrwt beam="2">  1       21 0.66629252E-03 0.74628166E+01</pdfrwt>
<totfact> 0.21539066E+09</totfact>
</mgrwt>
</event>
<event>
 4    1  0.3931501E+006  0.6354735E+01  0.7546771E-02  0.2371421E+00
         21   -1    0    0  501  502  0.00000000000E+00  0.00000000000E+00  0.41341388989E+02  0.41341388989E+02  0.00000000000E+00 0. -1.
         21   -1    0    0  502  503 -0.00000000000E+00 -0.00000000000E+00 -0.10286306445E+01  0.10286306445E+01  0.00000000000E+00 0. -1.
          5    1    1    2  501    0  0.23469638433E+00 -0.42705479298E+01  0.24911399626E+02  0.25709151937E+02  0.47000000000E+01 0. -1.
         -5    1    1    2    0  503 -0.23469638433E+00  0.42705479298E+01  0.15401358719E+02  0.16660867697E+02  0.47000000000E+01 0. -1.
<mgrwt>
<rscale>  2 0.63547354E+01</rscale>
<asrwt>0</asrwt>
<pdfrwt beam="1">  1       21 0.63602124E-02 0.63547354E+01</pdfrwt>
<pdfrwt beam="2">  1       21 0.15825090E-03 0.63547354E+01</pdfrwt>
<totfact> 0.29034608E+09</totfact>
</mgrwt>
</event>
<event>
 4    1  0.3931501E+006  0.9820783E+01  0.7546771E-02  0.2085333E+00
         21   -1    0    0  501  502  0.00000000000E+00  0.00000000000E+00  0.20135220264E+03  0.20135220264E+03  0.00000000000E+00 0. -1.
         21   -1    0    0  502  503 -0.00000000000E+00 -0.00000000000E+00 -0.47968874318E+00  0.47968874318E+00  0.00000000000E+00 0.  1.
          5    1    1    2  501    0 -0.35291018441E+01 -0.78678597246E+01  0.96613322522E+02  0.97111183008E+02  0.47000000000E+01 0. -1.
         -5    1    1    2    0  503  0.35291018441E+01  0.78678597246E+01  0.10425919138E+03  0.10472070838E+03  0.47000000000E+01 0. -1.
<mgrwt>
<rscale>  2 0.98207829E+01</rscale>
<asrwt>0</asrwt>
<pdfrwt beam="1">  1       21 0.30977195E-01 0.98207829E+01</pdfrwt>
<pdfrwt beam="2">  1       21 0.73798429E-04 0.98207829E+01</pdfrwt>
<totfact> 0.86576819E+08</totfact>
</mgrwt>
</event>
<event>
 4    1  0.3931501E+006  0.5342047E+01  0.7546771E-02  0.2509832E+00
         21   -1    0    0  501  502  0.00000000000E+00  0.00000000000E+00  0.26729893975E+02  0.26729893975E+02  0.00000000000E+00 0.  1.
         21   -1    0    0  502  503 -0.00000000000E+00 -0.00000000000E+00 -0.10735011862E+01  0.10735011862E+01  0.00000000000E+00 0. -1.
          5    1    1    2  501    0  0.25278163834E+01  0.24001938783E+00  0.11799547925E+02  0.12952482241E+02  0.47000000000E+01 0. -1.
         -5    1    1    2    0  503 -0.25278163834E+01 -0.24001938783E+00  0.13856844864E+02  0.14850912920E+02  0.47000000000E+01 0. -1.
<mgrwt>
<rscale>  2 0.53420469E+01</rscale>
<asrwt>0</asrwt>
<pdfrwt beam="1">  1       21 0.41122909E-02 0.53420469E+01</pdfrwt>
<pdfrwt beam="2">  1       21 0.16515405E-03 0.53420469E+01</pdfrwt>
<totfact> 0.44686987E+09</totfact>
</mgrwt>
</event>
<event>
 4    1  0.3931501E+006  0.5408363E+01  0.7546771E-02  0.2499439E+00
         21   -1    0    0  501  502  0.00000000000E+00  0.00000000000E+00  0.79585764575E+00  0.79585764575E+00  0.00000000000E+00 0.  1.
         21   -1    0    0  502  503 -0.00000000000E+00 -0.00000000000E+00 -0.90206350530E+02  0.90206350530E+02  0.00000000000E+00 0.  1.
          5    1    1    2  501    0  0.44434100057E+00 -0.26387404277E+01 -0.96793184270E+01  0.11087812912E+02  0.47000000000E+01 0.  1.
         -5    1    1    2    0  503 -0.44434100057E+00  0.26387404277E+01 -0.79731174457E+02  0.79914395264E+02  0.47000000000E+01 0.  1.
<mgrwt>
<rscale>  2 0.54083630E+01</rscale>
<asrwt>0</asrwt>
<pdfrwt beam="1">  1       21 0.12243959E-03 0.54083630E+01</pdfrwt>
<pdfrwt beam="2">  1       21 0.13877906E-01 0.54083630E+01</pdfrwt>
<totfact> 0.10880623E+09</totfact>
</mgrwt>
</event>
<event>
 4    1  0.3931501E+006  0.5086356E+01  0.7546771E-02  0.2552059E+00
         21   -1    0    0  501  502  0.00000000000E+00  0.00000000000E+00  0.99870086819E+01  0.99870086819E+01  0.00000000000E+00 0. -1.
         21   -1    0    0  502  503 -0.00000000000E+00 -0.00000000000E+00 -0.21207962740E+02  0.21207962740E+02  0.00000000000E+00 0. -1.
          5    1    1    2  501    0 -0.10120646977E+01 -0.16603436512E+01  0.90034102319E+01  0.10340812918E+02  0.47000000000E+01 0. -1.
         -5    1    1    2    0  503  0.10120646977E+01  0.16603436512E+01 -0.20224364290E+02  0.20854158505E+02  0.47000000000E+01 0. -1.
<mgrwt>
<rscale>  2 0.50863559E+01</rscale>
<asrwt>0</asrwt>
<pdfrwt beam="1">  1       21 0.15364629E-02 0.50863559E+01</pdfrwt>
<pdfrwt beam="2">  1       21 0.32627635E-02 0.50863559E+01</pdfrwt>
<totfact> 0.27658156E+08</totfact>
</mgrwt>
</event>
<event>
 4    1  0.3931501E+006  0.5217218E+01  0.7546771E-02  0.2530004E+00
         21   -1    0    0  501  502  0.00000000000E+00  0.00000000000E+00  0.16669263200E+02  0.16669263200E+02  0.00000000000E+00 0.  1.
         21   -1    0    0  502  503 -0.00000000000E+00 -0.00000000000E+00 -0.14568857538E+02  0.14568857538E+02  0.00000000000E+00 0.  1.
          5    1    1    2  501    0 -0.22647246806E+01  0.19728405564E-01  0.15767949313E+02  0.16608660169E+02  0.47000000000E+01 0.  1.
         -5    1    1    2    0  503  0.22647246806E+01 -0.19728405564E-01 -0.13667543650E+02  0.14629460568E+02  0.47000000000E+01 0.  1.
<mgrwt>
<rscale>  2 0.52172183E+01</rscale>
<asrwt>0</asrwt>
<pdfrwt beam="1">  1       21 0.25645020E-02 0.52172183E+01</pdfrwt>
<pdfrwt beam="2">  1       21 0.22413627E-02 0.52172183E+01</pdfrwt>
<totfact> 0.23375640E+08</totfact>
</mgrwt>
</event>
<event>
 4    1  0.3931501E+006  0.5710938E+01  0.7546771E-02  0.2454636E+00
         21   -1    0    0  503  502  0.00000000000E+00  0.00000000000E+00  0.37842542277E+00  0.37842542277E+00  0.00000000000E+00 0. -1.
         21   -1    0    0  501  503 -0.00000000000E+00 -0.00000000000E+00 -0.98591413417E+02  0.98591413417E+02  0.00000000000E+00 0. -1.
          5    1    1    2  501    0 -0.31506028090E+01  0.77363541971E+00 -0.66660106710E+02  0.66904294603E+02  0.47000000000E+01 0. -1.
         -5    1    1    2    0  502  0.31506028090E+01 -0.77363541971E+00 -0.31552881285E+02  0.32065544237E+02  0.47000000000E+01 0. -1.
<mgrwt>
<rscale>  2 0.57109377E+01</rscale>
<asrwt>0</asrwt>
<pdfrwt beam="1">  1       21 0.58219313E-04 0.57109377E+01</pdfrwt>
<pdfrwt beam="2">  1       21 0.15167905E-01 0.57109377E+01</pdfrwt>
<totfact> 0.26777864E+09</totfact>
</mgrwt>
</event>
<event>
 4    1  0.3931501E+006  0.9288135E+01  0.7546771E-02  0.2117918E+00
         21   -1    0    0  503  502  0.00000000000E+00  0.00000000000E+00  0.74588396591E+00  0.74588396591E+00  0.00000000000E+00 0.  1.
         21   -1    0    0  501  503 -0.00000000000E+00 -0.00000000000E+00 -0.27279935636E+03  0.27279935636E+03  0.00000000000E+00 0. -1.
          5    1    1    2  501    0  0.35726417431E+00  0.80032375943E+01 -0.23983191860E+03  0.24001170519E+03  0.47000000000E+01 0. -1.
         -5    1    1    2    0  502 -0.35726417431E+00 -0.80032375943E+01 -0.32221553791E+02  0.33533535131E+02  0.47000000000E+01 0.  1.
<mgrwt>
<rscale>  2 0.92881349E+01</rscale>
<asrwt>0</asrwt>
<pdfrwt beam="1">  1       21 0.11475135E-03 0.92881349E+01</pdfrwt>
<pdfrwt beam="2">  1       21 0.41969143E-01 0.92881349E+01</pdfrwt>
<totfact> 0.26718998E+08</totfact>
</mgrwt>
</event>
<event>
 4    1  0.3931501E+006  0.5115868E+01  0.7546771E-02  0.2547001E+00
         21   -1    0    0  501  502  0.00000000000E+00  0.00000000000E+00  0.56170082853E+02  0.56170082853E+02  0.00000000000E+00 0.  1.
         21   -1    0    0  502  503 -0.00000000000E+00 -0.00000000000E+00 -0.15074470472E+01  0.15074470472E+01  0.00000000000E+00 0.  1.
          5    1    1    2  501    0 -0.20147761916E+01 -0.15093845860E+00  0.51302305388E+02  0.51556751679E+02  0.47000000000E+01 0.  1.
         -5    1    1    2    0  503  0.20147761916E+01  0.15093845860E+00  0.33603304174E+01  0.61207782213E+01  0.47000000000E+01 0.  1.
<mgrwt>
<rscale>  2 0.51158680E+01</rscale>
<asrwt>0</asrwt>
<pdfrwt beam="1">  1       21 0.86415496E-02 0.51158680E+01</pdfrwt>
<pdfrwt beam="2">  1       21 0.23191497E-03 0.51158680E+01</pdfrwt>
<totfact> 0.90445275E+08</totfact>
</mgrwt>
</event>
<event>
 4    1  0.3931501E+006  0.9032021E+01  0.7546771E-02  0.2134660E+00
         21   -1    0    0  501  502  0.00000000000E+00  0.00000000000E+00  0.20844742708E+03  0.20844742708E+03  0.00000000000E+00 0. -1.
         21   -1    0    0  502  503 -0.00000000000E+00 -0.00000000000E+00 -0.39960574775E+00  0.39960574775E+00  0.00000000000E+00 0. -1.
          5    1    1    2  501    0  0.72254267195E+01 -0.26982608654E+01  0.11902666505E+03  0.11936885856E+03  0.47000000000E+01 0. -1.
         -5    1    1    2    0  503 -0.72254267195E+01  0.26982608654E+01  0.89021156288E+02  0.89478174265E+02  0.47000000000E+01 0. -1.
<mgrwt>
<rscale>  2 0.90320210E+01</rscale>
<asrwt>0</asrwt>
<pdfrwt beam="1">  1       21 0.32068748E-01 0.90320210E+01</pdfrwt>
<pdfrwt beam="2">  1       21 0.61477974E-04 0.90320210E+01</pdfrwt>
<totfact> 0.99858409E+08</totfact>
</mgrwt>
</event>
<event>
 4    1  0.3931501E+006  0.5149340E+01  0.7546771E-02  0.2541324E+00
         21   -1    0    0  503  502  0.00000000000E+00  0.00000000000E+00  0.60963826935E+02  0.60963826935E+02  0.00000000000E+00 0. -1.
         21   -1    0    0  501  503 -0.00000000000E+00 -0.00000000000E+00 -0.47144266480E+00  0.47144266480E+00  0.00000000000E+00 0. -1.
          5    1    1    2  501    0  0.15165998391E+00  0.20982613068E+01  0.21698942128E+02  0.22301564760E+02  0.47000000000E+01 0. -1.
         -5    1    1    2    0  502 -0.15165998391E+00 -0.20982613068E+01  0.38793442143E+02  0.39133704840E+02  0.47000000000E+01 0. -1.
<mgrwt>
<rscale>  2 0.51493399E+01</rscale>
<asrwt>0</asrwt>
<pdfrwt beam="1">  1       21 0.93790441E-02 0.51493399E+01</pdfrwt>
<pdfrwt beam="2">  1       21 0.72529689E-04 0.51493399E+01</pdfrwt>
<totfact> 0.38077166E+09</totfact>
</mgrwt>
</event>
<event>
 4    1  0.3931501E+006  0.5004520E+01  0.7546771E-02  0.2566353E+00
         21   -1    0    0  503  502  0.00000000000E+00  0.00000000000E+00  0.58182328677E+02  0.58182328677E+02  0.00000000000E+00 0. -1.
         21   -1    0    0  501  503 -0.00000000000E+00 -0.00000000000E+00 -0.10000197006E+01  0.10000197006E+01  0.00000000000E+00 0. -1.
          5    1    1    2  501    0  0.99579836562E+00  0.14012871746E+01  0.62591767023E+01  0.80138950031E+01  0.47000000000E+01 0. -1.
         -5    1    1    2    0  502 -0.99579836562E+00 -0.14012871746E+01  0.50923132274E+02  0.51168453375E+02  0.47000000000E+01 0. -1.
<mgrwt>
<rscale>  2 0.50045200E+01</rscale>
<asrwt>0</asrwt>
<pdfrwt beam="1">  1       21 0.89511249E-02 0.50045200E+01</pdfrwt>
<pdfrwt beam="2">  1       21 0.15384923E-03 0.50045200E+01</pdfrwt>
<totfact> 0.14595535E+09</totfact>
</mgrwt>
</event>
<event>
 4    1  0.3931501E+006  0.5807374E+01  0.7546771E-02  0.2441189E+00
         21   -1    0    0  503  502  0.00000000000E+00  0.00000000000E+00  0.63529062975E+01  0.63529062975E+01  0.00000000000E+00 0. -1.
         21   -1    0    0  501  503 -0.00000000000E+00 -0.00000000000E+00 -0.93146444944E+01  0.93146444944E+01  0.00000000000E+00 0.  1.
          5    1    1    2  501    0  0.34110571632E+01  0.16939202257E-01 -0.66182419184E+01  0.88049261211E+01  0.47000000000E+01 0.  1.
         -5    1    1    2    0  502 -0.34110571632E+01 -0.16939202257E-01  0.36565037215E+01  0.68626246708E+01  0.47000000000E+01 0. -1.
<mgrwt>
<rscale>  2 0.58073744E+01</rscale>
<asrwt>0</asrwt>
<pdfrwt beam="1">  1       21 0.97737020E-03 0.58073744E+01</pdfrwt>
<pdfrwt beam="2">  1       21 0.14330222E-02 0.58073744E+01</pdfrwt>
<totfact> 0.19029029E+09</totfact>
</mgrwt>
</event>
<event>
 4    1  0.3931501E+006  0.8547571E+01  0.7546771E-02  0.2168487E+00
         21   -1    0    0  501  502  0.00000000000E+00  0.00000000000E+00  0.29581544367E+00  0.29581544367E+00  0.00000000000E+00 0.  1.
         21   -1    0    0  502  503 -0.00000000000E+00 -0.00000000000E+00 -0.87558165894E+03  0.87558165894E+03  0.00000000000E+00 0.  1.
          5    1    1    2  501    0 -0.14818361955E+01  0.69839189976E+01 -0.66575990574E+02  0.67122451415E+02  0.47000000000E+01 0.  1.
         -5    1    1    2    0  503  0.14818361955E+01 -0.69839189976E+01 -0.80870985293E+03  0.80875502297E+03  0.47000000000E+01 0.  1.
<mgrwt>
<rscale>  2 0.85475706E+01</rscale>
<asrwt>0</asrwt>
<pdfrwt beam="1">  1       21 0.45510683E-04 0.85475706E+01</pdfrwt>
<pdfrwt beam="2">  1       21 0.13470305E+00 0.85475706E+01</pdfrwt>
<totfact> 0.90130709E+07</totfact>
</mgrwt>
</event>
<event>
 4    1  0.3931501E+006  0.6399101E+01  0.7546771E-02  0.2366204E+00
         21   -1    0    0  501  502  0.00000000000E+00  0.00000000000E+00  0.99533691547E+02  0.99533691547E+02  0.00000000000E+00 0. -1.
         21   -1    0    0  502  503 -0.00000000000E+00 -0.00000000000E+00 -0.17965992433E+01  0.17965992433E+01  0.00000000000E+00 0. -1.
          5    1    1    2  501    0  0.34857633844E+01  0.25899709560E+01  0.93356177365E+02  0.93575233626E+02  0.47000000000E+01 0. -1.
         -5    1    1    2    0  503 -0.34857633844E+01 -0.25899709560E+01  0.43809149388E+01  0.77550571646E+01  0.47000000000E+01 0. -1.
<mgrwt>
<rscale>  2 0.63991012E+01</rscale>
<asrwt>0</asrwt>
<pdfrwt beam="1">  1       21 0.15312871E-01 0.63991012E+01</pdfrwt>
<pdfrwt beam="2">  1       21 0.27639996E-03 0.63991012E+01</pdfrwt>
<totfact> 0.35115227E+08</totfact>
</mgrwt>
</event>
<event>
 4    1  0.3931501E+006  0.4875007E+01  0.7546771E-02  0.2589817E+00
         21   -1    0    0  501  502  0.00000000000E+00  0.00000000000E+00  0.17527253628E+01  0.17527253628E+01  0.00000000000E+00 0.  1.
         21   -1    0    0  502  503 -0.00000000000E+00 -0.00000000000E+00 -0.15666220761E+02  0.15666220761E+02  0.00000000000E+00 0.  1.
          5    1    1    2  501    0 -0.10856869388E+01  0.70496383825E+00 -0.37627386218E+01  0.61582377413E+01  0.47000000000E+01 0.  1.
         -5    1    1    2    0  503  0.10856869388E+01 -0.70496383825E+00 -0.10150756777E+02  0.11260708383E+02  0.47000000000E+01 0.  1.
<mgrwt>
<rscale>  2 0.48750067E+01</rscale>
<asrwt>0</asrwt>
<pdfrwt beam="1">  1       21 0.26965006E-03 0.48750067E+01</pdfrwt>
<pdfrwt beam="2">  1       21 0.24101878E-02 0.48750067E+01</pdfrwt>
<totfact> 0.45285236E+09</totfact>
</mgrwt>
</event>
<event>
 4    1  0.3931501E+006  0.4757399E+01  0.7546771E-02  0.2612078E+00
         21   -1    0    0  501  502  0.00000000000E+00  0.00000000000E+00  0.39684838402E+01  0.39684838402E+01  0.00000000000E+00 0. -1.
         21   -1    0    0  502  503 -0.00000000000E+00 -0.00000000000E+00 -0.12204734730E+02  0.12204734730E+02  0.00000000000E+00 0. -1.
          5    1    1    2  501    0 -0.34249156884E+00 -0.65233932556E+00  0.17840484160E+01  0.50809128925E+01  0.47000000000E+01 0. -1.
         -5    1    1    2    0  503  0.34249156884E+00  0.65233932556E+00 -0.10020299306E+02  0.11092305678E+02  0.47000000000E+01 0. -1.
<mgrwt>
<rscale>  2 0.47573992E+01</rscale>
<asrwt>0</asrwt>
<pdfrwt beam="1">  1       21 0.61053597E-03 0.47573992E+01</pdfrwt>
<pdfrwt beam="2">  1       21 0.18776515E-02 0.47573992E+01</pdfrwt>
<totfact> 0.20626945E+09</totfact>
</mgrwt>
</event>
<event>
 4    1  0.3931501E+006  0.6544605E+01  0.7546771E-02  0.2349509E+00
         21   -1    0    0  503  502  0.00000000000E+00  0.00000000000E+00  0.15197429148E+01  0.15197429148E+01  0.00000000000E+00 0.  1.
         21   -1    0    0  501  503 -0.00000000000E+00 -0.00000000000E+00 -0.82900816590E+02  0.82900816590E+02  0.00000000000E+00 0. -1.
          5    1    1    2  501    0 -0.21290490801E+01  0.40260403505E+01 -0.74983164251E+02  0.75268232156E+02  0.47000000000E+01 0. -1.
         -5    1    1    2    0  502  0.21290490801E+01 -0.40260403505E+01 -0.63979094247E+01  0.91523273486E+01  0.47000000000E+01 0.  1.
<mgrwt>
<rscale>  2 0.65446047E+01</rscale>
<asrwt>0</asrwt>
<pdfrwt beam="1">  1       21 0.23380656E-03 0.65446047E+01</pdfrwt>
<pdfrwt beam="2">  1       21 0.12753974E-01 0.65446047E+01</pdfrwt>
<totfact> 0.59930821E+08</totfact>
</mgrwt>
</event>
<event>
 4    1  0.3931501E+006  0.7304380E+01  0.7546771E-02  0.2271359E+00
         21   -1    0    0  501  502  0.00000000000E+00  0.00000000000E+00  0.23078509209E+00  0.23078509209E+00  0.00000000000E+00 0. -1.
         21   -1    0    0  502  503 -0.00000000000E+00 -0.00000000000E+00 -0.42219988447E+03  0.42219988447E+03  0.00000000000E+00 0.  1.
          5    1    1    2  501    0 -0.18343259671E+01 -0.52819704661E+01 -0.35305391105E+03  0.35312946361E+03  0.47000000000E+01 0.  1.
         -5    1    1    2    0  503  0.18343259671E+01  0.52819704661E+01 -0.68915188331E+02  0.69301205953E+02  0.47000000000E+01 0. -1.
<mgrwt>
<rscale>  2 0.73043798E+01</rscale>
<asrwt>0</asrwt>
<pdfrwt beam="1">  1       21 0.35505421E-04 0.73043798E+01</pdfrwt>
<pdfrwt beam="2">  1       21 0.64953788E-01 0.73043798E+01</pdfrwt>
<totfact> 0.51414252E+08</totfact>
</mgrwt>
</event>
<event>
 4    1  0.3931501E+006  0.1144441E+02  0.7546771E-02  0.2001044E+00
         21   -1    0    0  501  502  0.00000000000E+00  0.00000000000E+00  0.14712233703E+04  0.14712233703E+04  0.00000000000E+00 0.  1.
         21   -1    0    0  502  503 -0.00000000000E+00 -0.00000000000E+00 -0.95415512428E-01  0.95415512428E-01  0.00000000000E+00 0. -1.
          5    1    1    2  501    0 -0.64948055950E+01  0.81671327974E+01  0.92596119586E+03  0.92603191672E+03  0.47000000000E+01 0. -1.
         -5    1    1    2    0  503  0.64948055950E+01 -0.81671327974E+01  0.54516675896E+03  0.54528686912E+03  0.47000000000E+01 0.  1.
<mgrwt>
<rscale>  2 0.11444412E+02</rscale>
<asrwt>0</asrwt>
<pdfrwt beam="1">  1       21 0.22632389E+00 0.11444412E+02</pdfrwt>
<pdfrwt beam="2">  1       21 0.14680488E-04 0.11444412E+02</pdfrwt>
<totfact> 0.14083568E+08</totfact>
</mgrwt>
</event>
<event>
 4    1  0.3931501E+006  0.7578096E+01  0.7546771E-02  0.2246380E+00
         21   -1    0    0  503  502  0.00000000000E+00  0.00000000000E+00  0.22932457253E+02  0.22932457253E+02  0.00000000000E+00 0. -1.
         21   -1    0    0  501  503 -0.00000000000E+00 -0.00000000000E+00 -0.27244414525E+01  0.27244414525E+01  0.00000000000E+00 0.  1.
          5    1    1    2  501    0  0.59284599346E+01 -0.43692380167E+00  0.64566237260E+01  0.99556782564E+01  0.47000000000E+01 0.  1.
         -5    1    1    2    0  502 -0.59284599346E+01  0.43692380167E+00  0.13751392075E+02  0.15701220449E+02  0.47000000000E+01 0. -1.
<mgrwt>
<rscale>  2 0.75780960E+01</rscale>
<asrwt>0</asrwt>
<pdfrwt beam="1">  1       21 0.35280702E-02 0.75780960E+01</pdfrwt>
<pdfrwt beam="2">  1       21 0.41914485E-03 0.75780960E+01</pdfrwt>
<totfact> 0.20952079E+09</totfact>
</mgrwt>
</event>
<event>
 4    1  0.3931501E+006  0.2138687E+02  0.7546771E-02  0.1719077E+00
         21   -1    0    0  503  502  0.00000000000E+00  0.00000000000E+00  0.44195439572E+01  0.44195439572E+01  0.00000000000E+00 0.  1.
         21   -1    0    0  501  503 -0.00000000000E+00 -0.00000000000E+00 -0.14891544394E+03  0.14891544394E+03  0.00000000000E+00 0. -1.
          5    1    1    2  501    0 -0.10848809839E+02  0.17821657726E+02 -0.11458980058E+03  0.11656852301E+03  0.47000000000E+01 0. -1.
         -5    1    1    2    0  502  0.10848809839E+02 -0.17821657726E+02 -0.29906099401E+02  0.36766464889E+02  0.47000000000E+01 0.  1.
<mgrwt>
<rscale>  2 0.21386869E+02</rscale>
<asrwt>0</asrwt>
<pdfrwt beam="1">  1       21 0.67992990E-03 0.21386869E+02</pdfrwt>
<pdfrwt beam="2">  1       21 0.22910066E-01 0.21386869E+02</pdfrwt>
<totfact> 0.84661272E+07</totfact>
</mgrwt>
</event>
<event>
 4    1  0.3931501E+006  0.1765606E+02  0.7546771E-02  0.1796405E+00
         21   -1    0    0  503  502  0.00000000000E+00  0.00000000000E+00  0.21031262599E+02  0.21031262599E+02  0.00000000000E+00 0.  1.
         21   -1    0    0  501  503 -0.00000000000E+00 -0.00000000000E+00 -0.28843499932E+02  0.28843499932E+02  0.00000000000E+00 0. -1.
          5    1    1    2  501    0 -0.16218124052E+02  0.51593636702E+01 -0.21292766236E+02  0.27660775029E+02  0.47000000000E+01 0. -1.
         -5    1    1    2    0  502  0.16218124052E+02 -0.51593636702E+01  0.13480528903E+02  0.22213987502E+02  0.47000000000E+01 0.  1.
<mgrwt>
<rscale>  2 0.17656064E+02</rscale>
<asrwt>0</asrwt>
<pdfrwt beam="1">  1       21 0.32355789E-02 0.17656064E+02</pdfrwt>
<pdfrwt beam="2">  1       21 0.44374615E-02 0.17656064E+02</pdfrwt>
<totfact> 0.11331939E+08</totfact>
</mgrwt>
</event>
<event>
 4    1  0.3931501E+006  0.5585188E+01  0.7546771E-02  0.2472756E+00
         21   -1    0    0  503  502  0.00000000000E+00  0.00000000000E+00  0.62970801110E+00  0.62970801110E+00  0.00000000000E+00 0.  1.
         21   -1    0    0  501  503 -0.00000000000E+00 -0.00000000000E+00 -0.59017241655E+02  0.59017241655E+02  0.00000000000E+00 0.  1.
          5    1    1    2  501    0 -0.20920485058E+01  0.21743182544E+01 -0.41146328508E+02  0.41523664054E+02  0.47000000000E+01 0.  1.
         -5    1    1    2    0  502  0.20920485058E+01 -0.21743182544E+01 -0.17241205136E+02  0.18123285612E+02  0.47000000000E+01 0.  1.
<mgrwt>
<rscale>  2 0.55851882E+01</rscale>
<asrwt>0</asrwt>
<pdfrwt beam="1">  1       21 0.96878149E-04 0.55851882E+01</pdfrwt>
<pdfrwt beam="2">  1       21 0.90795763E-02 0.55851882E+01</pdfrwt>
<totfact> 0.29374609E+09</totfact>
</mgrwt>
</event>
<event>
 4    1  0.3931501E+006  0.5875602E+01  0.7546771E-02  0.2431901E+00
         21   -1    0    0  501  502  0.00000000000E+00  0.00000000000E+00  0.72632148084E+01  0.72632148084E+01  0.00000000000E+00 0. -1.
         21   -1    0    0  502  503 -0.00000000000E+00 -0.00000000000E+00 -0.96773702709E+01  0.96773702709E+01  0.00000000000E+00 0. -1.
          5    1    1    2  501    0  0.21394433757E+01 -0.28027623856E+01  0.48350684215E+01  0.76092431679E+01  0.47000000000E+01 0. -1.
         -5    1    1    2    0  503 -0.21394433757E+01  0.28027623856E+01 -0.72492238839E+01  0.93313419114E+01  0.47000000000E+01 0. -1.
<mgrwt>
<rscale>  2 0.58756017E+01</rscale>
<asrwt>0</asrwt>
<pdfrwt beam="1">  1       21 0.11174177E-02 0.58756017E+01</pdfrwt>
<pdfrwt beam="2">  1       21 0.14888262E-02 0.58756017E+01</pdfrwt>
<totfact> 0.15073124E+09</totfact>
</mgrwt>
</event>
<event>
 4    1  0.3931501E+006  0.5294894E+01  0.7546771E-02  0.2517356E+00
         21   -1    0    0  501  502  0.00000000000E+00  0.00000000000E+00  0.22649972441E+01  0.22649972441E+01  0.00000000000E+00 0.  1.
         21   -1    0    0  502  503 -0.00000000000E+00 -0.00000000000E+00 -0.21649666120E+02  0.21649666120E+02  0.00000000000E+00 0.  1.
          5    1    1    2  501    0 -0.70619089466E+00 -0.23339233606E+01 -0.18672331791E+01  0.56144869381E+01  0.47000000000E+01 0.  1.
         -5    1    1    2    0  503  0.70619089466E+00  0.23339233606E+01 -0.17517435697E+02  0.18300176426E+02  0.47000000000E+01 0.  1.
<mgrwt>
<rscale>  2 0.52948941E+01</rscale>
<asrwt>0</asrwt>
<pdfrwt beam="1">  1       21 0.34846112E-03 0.52948941E+01</pdfrwt>
<pdfrwt beam="2">  1       21 0.33307178E-02 0.52948941E+01</pdfrwt>
<totfact> 0.21852658E+09</totfact>
</mgrwt>
</event>
<event>
 4    1  0.3931501E+006  0.1290530E+02  0.7546771E-02  0.1939649E+00
         21   -1    0    0  501  502  0.00000000000E+00  0.00000000000E+00  0.33810839335E+00  0.33810839335E+00  0.00000000000E+00 0.  1.
         21   -1    0    0  502  503 -0.00000000000E+00 -0.00000000000E+00 -0.49944168425E+03  0.49944168425E+03  0.00000000000E+00 0. -1.
          5    1    1    2  501    0  0.54565527001E+01  0.10709007842E+02 -0.22027037052E+03  0.22064809753E+03  0.47000000000E+01 0. -1.
         -5    1    1    2    0  503 -0.54565527001E+01 -0.10709007842E+02 -0.27883320534E+03  0.27913169511E+03  0.47000000000E+01 0.  1.
<mgrwt>
<rscale>  2 0.12905302E+02</rscale>
<asrwt>0</asrwt>
<pdfrwt beam="1">  1       21 0.52016498E-04 0.12905302E+02</pdfrwt>
<pdfrwt beam="2">  1       21 0.76837446E-01 0.12905302E+02</pdfrwt>
<totfact> 0.28966020E+08</totfact>
</mgrwt>
</event>
<event>
 4    1  0.3931501E+006  0.7620533E+01  0.7546771E-02  0.2242638E+00
         21   -1    0    0  501  502  0.00000000000E+00  0.00000000000E+00  0.92465996817E+02  0.92465996817E+02  0.00000000000E+00 0. -1.
         21   -1    0    0  502  503 -0.00000000000E+00 -0.00000000000E+00 -0.75133898013E+00  0.75133898013E+00  0.00000000000E+00 0.  1.
          5    1    1    2  501    0  0.25787635419E+00  0.59929974808E+01  0.64738335825E+02  0.65185310035E+02  0.47000000000E+01 0. -1.
         -5    1    1    2    0  503 -0.25787635419E+00 -0.59929974808E+01  0.26976322012E+02  0.28032025762E+02  0.47000000000E+01 0.  1.
<mgrwt>
<rscale>  2 0.76205327E+01</rscale>
<asrwt>0</asrwt>
<pdfrwt beam="1">  1       21 0.14225529E-01 0.76205327E+01</pdfrwt>
<pdfrwt beam="2">  1       21 0.11559069E-03 0.76205327E+01</pdfrwt>
<totfact> 0.14691116E+09</totfact>
</mgrwt>
</event>
<event>
 4    1  0.3931501E+006  0.7049556E+01  0.7546771E-02  0.2296027E+00
         21   -1    0    0  503  502  0.00000000000E+00  0.00000000000E+00  0.80632084798E+02  0.80632084798E+02  0.00000000000E+00 0.  1.
         21   -1    0    0  501  503 -0.00000000000E+00 -0.00000000000E+00 -0.73121031696E+00  0.73121031696E+00  0.00000000000E+00 0. -1.
          5    1    1    2  501    0  0.40011568193E+01  0.34054347315E+01  0.23825653845E+02  0.24846690378E+02  0.47000000000E+01 0. -1.
         -5    1    1    2    0  502 -0.40011568193E+01 -0.34054347315E+01  0.56075220636E+02  0.56516604737E+02  0.47000000000E+01 0.  1.
<mgrwt>
<rscale>  2 0.70495561E+01</rscale>
<asrwt>0</asrwt>
<pdfrwt beam="1">  1       21 0.12404929E-01 0.70495561E+01</pdfrwt>
<pdfrwt beam="2">  1       21 0.11249396E-03 0.70495561E+01</pdfrwt>
<totfact> 0.17922695E+09</totfact>
</mgrwt>
</event>
<event>
 4    1  0.3931501E+006  0.9173928E+01  0.7546771E-02  0.2125292E+00
         21   -1    0    0  501  502  0.00000000000E+00  0.00000000000E+00  0.15860382700E+03  0.15860382700E+03  0.00000000000E+00 0. -1.
         21   -1    0    0  502  503 -0.00000000000E+00 -0.00000000000E+00 -0.71370971245E+00  0.71370971245E+00  0.00000000000E+00 0. -1.
          5    1    1    2  501    0 -0.78536269573E+01 -0.62569776461E+00  0.11928965514E+03  0.11964189391E+03  0.47000000000E+01 0. -1.
         -5    1    1    2    0  503  0.78536269573E+01  0.62569776461E+00  0.38600462150E+02  0.39675642808E+02  0.47000000000E+01 0. -1.
<mgrwt>
<rscale>  2 0.91739280E+01</rscale>
<asrwt>0</asrwt>
<pdfrwt beam="1">  1       21 0.24400561E-01 0.91739280E+01</pdfrwt>
<pdfrwt beam="2">  1       21 0.10980162E-03 0.91739280E+01</pdfrwt>
<totfact> 0.72836205E+08</totfact>
</mgrwt>
</event>
<event>
 4    1  0.3931501E+006  0.1258993E+02  0.7546771E-02  0.1951971E+00
         21   -1    0    0  503  502  0.00000000000E+00  0.00000000000E+00  0.52559949213E+02  0.52559949213E+02  0.00000000000E+00 0.  1.
         21   -1    0    0  501  503 -0.00000000000E+00 -0.00000000000E+00 -0.30157370044E+01  0.30157370044E+01  0.00000000000E+00 0. -1.
          5    1    1    2  501    0  0.20798121500E+01  0.11493075510E+02  0.24825286040E+02  0.27835251574E+02  0.47000000000E+01 0.  1.
         -5    1    1    2    0  502 -0.20798121500E+01 -0.11493075510E+02  0.24718926169E+02  0.27740434643E+02  0.47000000000E+01 0.  1.
<mgrwt>
<rscale>  2 0.12589933E+02</rscale>
<asrwt>0</asrwt>
<pdfrwt beam="1">  1       21 0.80861454E-02 0.12589933E+02</pdfrwt>
<pdfrwt beam="2">  1       21 0.46395958E-03 0.12589933E+02</pdfrwt>
<totfact> 0.68892604E+08</totfact>
</mgrwt>
</event>
<event>
 4    1  0.3931501E+006  0.5701629E+01  0.7546771E-02  0.2455954E+00
         21   -1    0    0  503  502  0.00000000000E+00  0.00000000000E+00  0.15095568397E+02  0.15095568397E+02  0.00000000000E+00 0. -1.
         21   -1    0    0  501  503 -0.00000000000E+00 -0.00000000000E+00 -0.26259755938E+01  0.26259755938E+01  0.00000000000E+00 0. -1.
          5    1    1    2  501    0  0.36135636147E+00 -0.32074902383E+01  0.24763546417E+01  0.62161808500E+01  0.47000000000E+01 0. -1.
         -5    1    1    2    0  502 -0.36135636147E+00  0.32074902383E+01  0.99932381614E+01  0.11505363141E+02  0.47000000000E+01 0. -1.
<mgrwt>
<rscale>  2 0.57016289E+01</rscale>
<asrwt>0</asrwt>
<pdfrwt beam="1">  1       21 0.23223951E-02 0.57016289E+01</pdfrwt>
<pdfrwt beam="2">  1       21 0.40399625E-03 0.57016289E+01</pdfrwt>
<totfact> 0.32142199E+09</totfact>
</mgrwt>
</event>
<event>
 4    1  0.3931501E+006  0.5045734E+01  0.7546771E-02  0.2559104E+00
         21   -1    0    0  501  502  0.00000000000E+00  0.00000000000E+00  0.91655120424E-01  0.91655120424E-01  0.00000000000E+00 0. -1.
         21   -1    0    0  502  503 -0.00000000000E+00 -0.00000000000E+00 -0.28539877746E+03  0.28539877746E+03  0.00000000000E+00 0. -1.
          5    1    1    2  501    0 -0.42362172106E+00 -0.17860503611E+01 -0.11932207998E+03  0.11942871598E+03  0.47000000000E+01 0.  1.
         -5    1    1    2    0  503  0.42362172106E+00  0.17860503611E+01 -0.16598504236E+03  0.16606171660E+03  0.47000000000E+01 0.  1.
<mgrwt>
<rscale>  2 0.50457340E+01</rscale>
<asrwt>0</asrwt>
<pdfrwt beam="1">  1       21 0.14100990E-04 0.50457340E+01</pdfrwt>
<pdfrwt beam="2">  1       21 0.43906874E-01 0.50457340E+01</pdfrwt>
<totfact> 0.27430730E+09</totfact>
</mgrwt>
</event>
<event>
 4    1  0.3931501E+006  0.7729938E+01  0.7546771E-02  0.2233145E+00
         21   -1    0    0  501  502  0.00000000000E+00  0.00000000000E+00  0.27844564902E+01  0.27844564902E+01  0.00000000000E+00 0.  1.
         21   -1    0    0  502  503 -0.00000000000E+00 -0.00000000000E+00 -0.23711416913E+02  0.23711416913E+02  0.00000000000E+00 0.  1.
          5    1    1    2  501    0 -0.34836483340E+01 -0.50523395145E+01 -0.63804377790E+01  0.10023069716E+02  0.47000000000E+01 0.  1.
         -5    1    1    2    0  503  0.34836483340E+01  0.50523395145E+01 -0.14546522643E+02  0.16472803687E+02  0.47000000000E+01 0.  1.
<mgrwt>
<rscale>  2 0.77299379E+01</rscale>
<asrwt>0</asrwt>
<pdfrwt beam="1">  1       21 0.42837793E-03 0.77299379E+01</pdfrwt>
<pdfrwt beam="2">  1       21 0.36479102E-02 0.77299379E+01</pdfrwt>
<totfact> 0.19621073E+09</totfact>
</mgrwt>
</event>
<event>
 4    1  0.3931501E+006  0.5161766E+01  0.7546771E-02  0.2539233E+00
         21   -1    0    0  503  502  0.00000000000E+00  0.00000000000E+00  0.27401139057E+01  0.27401139057E+01  0.00000000000E+00 0. -1.
         21   -1    0    0  501  503 -0.00000000000E+00 -0.00000000000E+00 -0.73078006865E+02  0.73078006865E+02  0.00000000000E+00 0. -1.
          5    1    1    2  501    0 -0.63422623195E+00  0.20375438939E+01 -0.70465964547E+02  0.70654766206E+02  0.47000000000E+01 0. -1.
         -5    1    1    2    0  502  0.63422623195E+00 -0.20375438939E+01  0.12807158771E+00  0.51633545651E+01  0.47000000000E+01 0. -1.
<mgrwt>
<rscale>  2 0.51617660E+01</rscale>
<asrwt>0</asrwt>
<pdfrwt beam="1">  1       21 0.42155590E-03 0.51617660E+01</pdfrwt>
<pdfrwt beam="2">  1       21 0.11242772E-01 0.51617660E+01</pdfrwt>
<totfact> 0.27115117E+08</totfact>
</mgrwt>
</event>
<event>
 4    1  0.3931501E+006  0.4942889E+01  0.7546771E-02  0.2577386E+00
         21   -1    0    0  503  502  0.00000000000E+00  0.00000000000E+00  0.16636765878E+00  0.16636765878E+00  0.00000000000E+00 0.  1.
         21   -1    0    0  501  503 -0.00000000000E+00 -0.00000000000E+00 -0.15607142318E+03  0.15607142318E+03  0.00000000000E+00 0.  1.
          5    1    1    2  501    0  0.71916852142E+00 -0.13509057332E+01 -0.96934591777E+02  0.97060533857E+02  0.47000000000E+01 0.  1.
         -5    1    1    2    0  502 -0.71916852142E+00  0.13509057332E+01 -0.58970463746E+02  0.59177256984E+02  0.47000000000E+01 0.  1.
<mgrwt>
<rscale>  2 0.49428888E+01</rscale>
<asrwt>0</asrwt>
<pdfrwt beam="1">  1       21 0.25594916E-04 0.49428888E+01</pdfrwt>
<pdfrwt beam="2">  1       21 0.24011090E-01 0.49428888E+01</pdfrwt>
<totfact> 0.33623883E+09</totfact>
</mgrwt>
</event>
<event>
 4    1  0.3931501E+006  0.9797585E+01  0.7546771E-02  0.2086694E+00
         21   -1    0    0  503  502  0.00000000000E+00  0.00000000000E+00  0.21739391201E+02  0.21739391201E+02  0.00000000000E+00 0.  1.
         21   -1    0    0  501  503 -0.00000000000E+00 -0.00000000000E+00 -0.48738948326E+01  0.48738948326E+01  0.00000000000E+00 0. -1.
          5    1    1    2  501    0  0.55072416569E+01  0.66009818096E+01  0.43523907597E+01  0.10720819784E+02  0.47000000000E+01 0. -1.
         -5    1    1    2    0  502 -0.55072416569E+01 -0.66009818096E+01  0.12513105609E+02  0.15892466250E+02  0.47000000000E+01 0.  1.
<mgrwt>
<rscale>  2 0.97975850E+01</rscale>
<asrwt>0</asrwt>
<pdfrwt beam="1">  1       21 0.33445217E-02 0.97975850E+01</pdfrwt>
<pdfrwt beam="2">  1       21 0.74982999E-03 0.97975850E+01</pdfrwt>
<totfact> 0.11781573E+09</totfact>
</mgrwt>
</event>
<event>
 4    1  0.3931501E+006  0.4794943E+01  0.7546771E-02  0.2604869E+00
         21   -1    0    0  503  502  0.00000000000E+00  0.00000000000E+00  0.46936074826E+01  0.46936074826E+01  0.00000000000E+00 0. -1.
         21   -1    0    0  501  503 -0.00000000000E+00 -0.00000000000E+00 -0.56502682142E+01  0.56502682142E+01  0.00000000000E+00 0. -1.
          5    1    1    2  501    0  0.39248154978E+00  0.86454533693E+00 -0.23648891218E+01  0.53464175824E+01  0.47000000000E+01 0. -1.
         -5    1    1    2    0  502 -0.39248154978E+00 -0.86454533693E+00  0.14082283903E+01  0.49974581144E+01  0.47000000000E+01 0. -1.
<mgrwt>
<rscale>  2 0.47949432E+01</rscale>
<asrwt>0</asrwt>
<pdfrwt beam="1">  1       21 0.72209346E-03 0.47949432E+01</pdfrwt>
<pdfrwt beam="2">  1       21 0.86927203E-03 0.47949432E+01</pdfrwt>
<totfact> 0.48442398E+09</totfact>
</mgrwt>
</event>
<event>
 4    1  0.3931501E+006  0.4707154E+01  0.7546771E-02  0.2621883E+00
         21   -1    0    0  503  502  0.00000000000E+00  0.00000000000E+00  0.60356032968E+01  0.60356032968E+01  0.00000000000E+00 0.  1.
         21   -1    0    0  501  503 -0.00000000000E+00 -0.00000000000E+00 -0.38210127744E+01  0.38210127744E+01  0.00000000000E+00 0.  1.
          5    1    1    2  501    0 -0.38534164015E-01  0.25654983298E+00  0.20834711045E+01  0.51476358206E+01  0.47000000000E+01 0. -1.
         -5    1    1    2    0  502  0.38534164015E-01 -0.25654983298E+00  0.13111941782E+00  0.47089802506E+01  0.47000000000E+01 0. -1.
<mgrwt>
<rscale>  2 0.47071544E+01</rscale>
<asrwt>0</asrwt>
<pdfrwt beam="1">  1       21 0.92855435E-03 0.47071544E+01</pdfrwt>
<pdfrwt beam="2">  1       21 0.58784812E-03 0.47071544E+01</pdfrwt>
<totfact> 0.57493509E+09</totfact>
</mgrwt>
</event>
<event>
 4    1  0.3931501E+006  0.5030477E+01  0.7546771E-02  0.2561775E+00
         21   -1    0    0  501  502  0.00000000000E+00  0.00000000000E+00  0.64988731485E+00  0.64988731485E+00  0.00000000000E+00 0.  1.
         21   -1    0    0  502  503 -0.00000000000E+00 -0.00000000000E+00 -0.11135237101E+03  0.11135237101E+03  0.00000000000E+00 0.  1.
          5    1    1    2  501    0 -0.17887879104E+01  0.12625444661E+00 -0.10190857358E+02  0.11364826266E+02  0.47000000000E+01 0.  1.
         -5    1    1    2    0  503  0.17887879104E+01 -0.12625444661E+00 -0.10051162634E+03  0.10063743206E+03  0.47000000000E+01 0.  1.
<mgrwt>
<rscale>  2 0.50304774E+01</rscale>
<asrwt>0</asrwt>
<pdfrwt beam="1">  1       21 0.99982784E-04 0.50304774E+01</pdfrwt>
<pdfrwt beam="2">  1       21 0.17131113E-01 0.50304774E+01</pdfrwt>
<totfact> 0.96210648E+08</totfact>
</mgrwt>
</event>
<event>
 4    1  0.3931501E+006  0.4960276E+01  0.7546771E-02  0.2574249E+00
         21   -1    0    0  501  502  0.00000000000E+00  0.00000000000E+00  0.18245220641E+01  0.18245220641E+01  0.00000000000E+00 0.  1.
         21   -1    0    0  502  503 -0.00000000000E+00 -0.00000000000E+00 -0.46058312857E+02  0.46058312857E+02  0.00000000000E+00 0.  1.
          5    1    1    2  501    0 -0.68230020858E+00  0.14313635029E+01 -0.19831571275E+01  0.53420265110E+01  0.47000000000E+01 0.  1.
         -5    1    1    2    0  503  0.68230020858E+00 -0.14313635029E+01 -0.42250633665E+02  0.42540808410E+02  0.47000000000E+01 0.  1.
<mgrwt>
<rscale>  2 0.49602757E+01</rscale>
<asrwt>0</asrwt>
<pdfrwt beam="1">  1       21 0.28069572E-03 0.49602757E+01</pdfrwt>
<pdfrwt beam="2">  1       21 0.70858939E-02 0.49602757E+01</pdfrwt>
<totfact> 0.91317595E+08</totfact>
</mgrwt>
</event>
<event>
 4    1  0.3931501E+006  0.7365284E+01  0.7546771E-02  0.2265671E+00
         21   -1    0    0  503  502  0.00000000000E+00  0.00000000000E+00  0.26511832442E+03  0.26511832442E+03  0.00000000000E+00 0. -1.
         21   -1    0    0  501  503 -0.00000000000E+00 -0.00000000000E+00 -0.23481547533E+00  0.23481547533E+00  0.00000000000E+00 0.  1.
          5    1    1    2  501    0 -0.37435816047E+01 -0.42594614675E+01  0.18002253354E+03  0.18017313894E+03  0.47000000000E+01 0.  1.
         -5    1    1    2    0  502  0.37435816047E+01  0.42594614675E+01  0.84860975409E+02  0.85180000954E+02  0.47000000000E+01 0. -1.
<mgrwt>
<rscale>  2 0.73652845E+01</rscale>
<asrwt>0</asrwt>
<pdfrwt beam="1">  1       21 0.40787195E-01 0.73652845E+01</pdfrwt>
<pdfrwt beam="2">  1       21 0.36125670E-04 0.73652845E+01</pdfrwt>
<totfact> 0.11867087E+09</totfact>
</mgrwt>
</event>
<event>
 4    1  0.3931501E+006  0.6037880E+01  0.7546771E-02  0.2410519E+00
         21   -1    0    0  503  502  0.00000000000E+00  0.00000000000E+00  0.86458190550E+02  0.86458190550E+02  0.00000000000E+00 0.  1.
         21   -1    0    0  501  503 -0.00000000000E+00 -0.00000000000E+00 -0.58218355872E+00  0.58218355872E+00  0.00000000000E+00 0.  1.
          5    1    1    2  501    0 -0.37880874727E+01 -0.12800190163E+00  0.20085715082E+02  0.20973601063E+02  0.47000000000E+01 0.  1.
         -5    1    1    2    0  502  0.37880874727E+01  0.12800190163E+00  0.65790291909E+02  0.66066773046E+02  0.47000000000E+01 0.  1.
<mgrwt>
<rscale>  2 0.60378797E+01</rscale>
<asrwt>0</asrwt>
<pdfrwt beam="1">  1       21 0.13301250E-01 0.60378797E+01</pdfrwt>
<pdfrwt beam="2">  1       21 0.89566770E-04 0.60378797E+01</pdfrwt>
<totfact> 0.19376067E+09</totfact>
</mgrwt>
</event>
<event>
 4    1  0.3931501E+006  0.9938978E+01  0.7546771E-02  0.2078477E+00
         21   -1    0    0  501  502  0.00000000000E+00  0.00000000000E+00  0.19292895273E+00  0.19292895273E+00  0.00000000000E+00 0.  1.
         21   -1    0    0  502  503 -0.00000000000E+00 -0.00000000000E+00 -0.58816747286E+03  0.58816747286E+03  0.00000000000E+00 0.  1.
          5    1    1    2  501    0 -0.60568133690E+01  0.63252109864E+01 -0.18813659382E+03  0.18839894166E+03  0.47000000000E+01 0.  1.
         -5    1    1    2    0  503  0.60568133690E+01 -0.63252109864E+01 -0.39983795008E+03  0.39996146015E+03  0.47000000000E+01 0.  1.
<mgrwt>
<rscale>  2 0.99389779E+01</rscale>
<asrwt>0</asrwt>
<pdfrwt beam="1">  1       21 0.29681606E-04 0.99389779E+01</pdfrwt>
<pdfrwt beam="2">  1       21 0.90486608E-01 0.99389779E+01</pdfrwt>
<totfact> 0.40065656E+08</totfact>
</mgrwt>
</event>
<event>
 4    1  0.3931501E+006  0.6396684E+01  0.7546771E-02  0.2366487E+00
         21   -1    0    0  501  502  0.00000000000E+00  0.00000000000E+00  0.10712264863E+03  0.10712264863E+03  0.00000000000E+00 0.  1.
         21   -1    0    0  502  503 -0.00000000000E+00 -0.00000000000E+00 -0.39478251152E+00  0.39478251152E+00  0.00000000000E+00 0.  1.
          5    1    1    2  501    0 -0.41676118975E+01  0.12077166406E+01  0.63048898826E+02  0.63372558821E+02  0.47000000000E+01 0.  1.
         -5    1    1    2    0  503  0.41676118975E+01 -0.12077166406E+01  0.43678967291E+02  0.44144872319E+02  0.47000000000E+01 0.  1.
<mgrwt>
<rscale>  2 0.63966842E+01</rscale>
<asrwt>0</asrwt>
<pdfrwt beam="1">  1       21 0.16480384E-01 0.63966842E+01</pdfrwt>
<pdfrwt beam="2">  1       21 0.60735856E-04 0.63966842E+01</pdfrwt>
<totfact> 0.24373734E+09</totfact>
</mgrwt>
</event>
<event>
 4    1  0.3931501E+006  0.1371779E+02  0.7546771E-02  0.1909918E+00
         21   -1    0    0  501  502  0.00000000000E+00  0.00000000000E+00  0.24244457249E+01  0.24244457249E+01  0.00000000000E+00 0.  1.
         21   -1    0    0  502  503 -0.00000000000E+00 -0.00000000000E+00 -0.80644714073E+02  0.80644714073E+02  0.00000000000E+00 0. -1.
          5    1    1    2  501    0  0.57239680654E+00 -0.12874790538E+02 -0.47158156792E+02  0.49112825428E+02  0.47000000000E+01 0.  1.
         -5    1    1    2    0  503 -0.57239680654E+00  0.12874790538E+02 -0.31062111556E+02  0.33956334370E+02  0.47000000000E+01 0. -1.
<mgrwt>
<rscale>  2 0.13717794E+02</rscale>
<asrwt>0</asrwt>
<pdfrwt beam="1">  1       21 0.37299158E-03 0.13717794E+02</pdfrwt>
<pdfrwt beam="2">  1       21 0.12406881E-01 0.13717794E+02</pdfrwt>
<totfact> 0.49213459E+08</totfact>
</mgrwt>
</event>
<event>
 4    1  0.3931501E+006  0.5308014E+01  0.7546771E-02  0.2515251E+00
         21   -1    0    0  503  502  0.00000000000E+00  0.00000000000E+00  0.52660928663E+02  0.52660928663E+02  0.00000000000E+00 0.  1.
         21   -1    0    0  501  503 -0.00000000000E+00 -0.00000000000E+00 -0.89144874464E+00  0.89144874464E+00  0.00000000000E+00 0. -1.
          5    1    1    2  501    0 -0.17052483086E+01 -0.17824521224E+01  0.89537326212E+01  0.10408858497E+02  0.47000000000E+01 0. -1.
         -5    1    1    2    0  502  0.17052483086E+01  0.17824521224E+01  0.42815747297E+02  0.43143518910E+02  0.47000000000E+01 0.  1.
<mgrwt>
<rscale>  2 0.53080135E+01</rscale>
<asrwt>0</asrwt>
<pdfrwt beam="1">  1       21 0.81016789E-02 0.53080135E+01</pdfrwt>
<pdfrwt beam="2">  1       21 0.13714600E-03 0.53080135E+01</pdfrwt>
<totfact> 0.20909050E+09</totfact>
</mgrwt>
</event>
<event>
 4    1  0.3931501E+006  0.4812975E+01  0.7546771E-02  0.2601441E+00
         21   -1    0    0  503  502  0.00000000000E+00  0.00000000000E+00  0.20847423861E+02  0.20847423861E+02  0.00000000000E+00 0.  1.
         21   -1    0    0  501  503 -0.00000000000E+00 -0.00000000000E+00 -0.43814184310E+01  0.43814184310E+01  0.00000000000E+00 0.  1.
          5    1    1    2  501    0  0.39228168397E-01 -0.10359470210E+01 -0.26651104014E+01  0.55015941809E+01  0.47000000000E+01 0.  1.
         -5    1    1    2    0  502 -0.39228168397E-01  0.10359470210E+01  0.19131115831E+02  0.19727248111E+02  0.47000000000E+01 0.  1.
<mgrwt>
<rscale>  2 0.48129747E+01</rscale>
<asrwt>0</asrwt>
<pdfrwt beam="1">  1       21 0.32072959E-02 0.48129747E+01</pdfrwt>
<pdfrwt beam="2">  1       21 0.67406439E-03 0.48129747E+01</pdfrwt>
<totfact> 0.85052524E+08</totfact>
</mgrwt>
</event>
<event>
 4    1  0.3931501E+006  0.6246504E+01  0.7546771E-02  0.2384404E+00
         21   -1    0    0  501  502  0.00000000000E+00  0.00000000000E+00  0.10827922632E+00  0.10827922632E+00  0.00000000000E+00 0.  1.
         21   -1    0    0  502  503 -0.00000000000E+00 -0.00000000000E+00 -0.45775634516E+03  0.45775634516E+03  0.00000000000E+00 0.  1.
          5    1    1    2  501    0  0.19327265587E+01  0.36322695852E+01 -0.12322124159E+03  0.12337946829E+03  0.47000000000E+01 0.  1.
         -5    1    1    2    0  503 -0.19327265587E+01 -0.36322695852E+01 -0.33442682434E+03  0.33448515610E+03  0.47000000000E+01 0.  1.
<mgrwt>
<rscale>  2 0.62465042E+01</rscale>
<asrwt>0</asrwt>
<pdfrwt beam="1">  1       21 0.16658108E-04 0.62465042E+01</pdfrwt>
<pdfrwt beam="2">  1       21 0.70425044E-01 0.62465042E+01</pdfrwt>
<totfact> 0.10987098E+09</totfact>
</mgrwt>
</event>
<event>
 4    1  0.3931501E+006  0.4813062E+01  0.7546771E-02  0.2601424E+00
         21   -1    0    0  503  502  0.00000000000E+00  0.00000000000E+00  0.31518569361E+02  0.31518569361E+02  0.00000000000E+00 0. -1.
         21   -1    0    0  501  503 -0.00000000000E+00 -0.00000000000E+00 -0.90638265151E+00  0.90638265151E+00  0.00000000000E+00 0. -1.
          5    1    1    2  501    0 -0.45579980423E+00 -0.93156414511E+00  0.82559097286E+01  0.95564434109E+01  0.47000000000E+01 0.  1.
         -5    1    1    2    0  502  0.45579980423E+00  0.93156414511E+00  0.22356276980E+02  0.22868508601E+02  0.47000000000E+01 0.  1.
<mgrwt>
<rscale>  2 0.48130619E+01</rscale>
<asrwt>0</asrwt>
<pdfrwt beam="1">  1       21 0.48490098E-02 0.48130619E+01</pdfrwt>
<pdfrwt beam="2">  1       21 0.13944351E-03 0.48130619E+01</pdfrwt>
<totfact> 0.39602971E+09</totfact>
</mgrwt>
</event>
<event>
 4    1  0.3931501E+006  0.5829502E+01  0.7546771E-02  0.2438157E+00
         21   -1    0    0  503  502  0.00000000000E+00  0.00000000000E+00  0.28448512116E+02  0.28448512116E+02  0.00000000000E+00 0. -1.
         21   -1    0    0  501  503 -0.00000000000E+00 -0.00000000000E+00 -0.19425535457E+01  0.19425535457E+01  0.00000000000E+00 0. -1.
          5    1    1    2  501    0 -0.34387068044E+01  0.26150455041E+00  0.38236220616E+01  0.69715977212E+01  0.47000000000E+01 0. -1.
         -5    1    1    2    0  502  0.34387068044E+01 -0.26150455041E+00  0.22682336509E+02  0.23419467941E+02  0.47000000000E+01 0. -1.
<mgrwt>
<rscale>  2 0.58295016E+01</rscale>
<asrwt>0</asrwt>
<pdfrwt beam="1">  1       21 0.43766939E-02 0.58295016E+01</pdfrwt>
<pdfrwt beam="2">  1       21 0.29885441E-03 0.58295016E+01</pdfrwt>
<totfact> 0.19751512E+09</totfact>
</mgrwt>
</event>
<event>
 4    1  0.3931501E+006  0.6364934E+01  0.7546771E-02  0.2370216E+00
         21   -1    0    0  501  502  0.00000000000E+00  0.00000000000E+00  0.20886284689E+04  0.20886284689E+04  0.00000000000E+00 0.  1.
         21   -1    0    0  502  503 -0.00000000000E+00 -0.00000000000E+00 -0.19848816724E-01  0.19848816724E-01  0.00000000000E+00 0.  1.
          5    1    1    2  501    0  0.42603053813E+01  0.52171266304E+00  0.88668135600E+03  0.88670420066E+03  0.47000000000E+01 0.  1.
         -5    1    1    2    0  503 -0.42603053813E+01 -0.52171266304E+00  0.12019272640E+04  0.12019441170E+04  0.47000000000E+01 0.  1.
<mgrwt>
<rscale>  2 0.63649341E+01</rscale>
<asrwt>0</asrwt>
<pdfrwt beam="1">  1       21 0.32115152E+00 0.63649341E+01</pdfrwt>
<pdfrwt beam="2">  1       21 0.30553370E-05 0.63649341E+01</pdfrwt>
<totfact> 0.38613412E+08</totfact>
</mgrwt>
</event>
<event>
 4    1  0.3931501E+006  0.8233604E+01  0.7546771E-02  0.2192092E+00
         21   -1    0    0  501  502  0.00000000000E+00  0.00000000000E+00  0.95987555936E+03  0.95987555936E+03  0.00000000000E+00 0. -1.
         21   -1    0    0  502  503 -0.00000000000E+00 -0.00000000000E+00 -0.92412582764E-01  0.92412582764E-01  0.00000000000E+00 0. -1.
          5    1    1    2  501    0  0.85065240315E+00 -0.67066108859E+01  0.71294476115E+03  0.71299230339E+03  0.47000000000E+01 0. -1.
         -5    1    1    2    0  503 -0.85065240315E+00  0.67066108859E+01  0.24683838563E+03  0.24697566856E+03  0.47000000000E+01 0. -1.
<mgrwt>
<rscale>  2 0.82336043E+01</rscale>
<asrwt>0</asrwt>
<pdfrwt beam="1">  1       21 0.14766518E+00 0.82336043E+01</pdfrwt>
<pdfrwt beam="2">  1       21 0.14218089E-04 0.82336043E+01</pdfrwt>
<totfact> 0.34920351E+08</totfact>
</mgrwt>
</event>
<event>
 4    1  0.3931501E+006  0.8612777E+01  0.7546771E-02  0.2163758E+00
         21   -1    0    0  503  502  0.00000000000E+00  0.00000000000E+00  0.15614310419E+01  0.15614310419E+01  0.00000000000E+00 0. -1.
         21   -1    0    0  501  503 -0.00000000000E+00 -0.00000000000E+00 -0.85889423886E+02  0.85889423886E+02  0.00000000000E+00 0.  1.
          5    1    1    2  501    0  0.35703759295E+01 -0.62723470845E+01 -0.71393856084E+02  0.71911491494E+02  0.47000000000E+01 0.  1.
         -5    1    1    2    0  502 -0.35703759295E+01  0.62723470845E+01 -0.12934136760E+02  0.15539363434E+02  0.47000000000E+01 0. -1.
<mgrwt>
<rscale>  2 0.86127767E+01</rscale>
<asrwt>0</asrwt>
<pdfrwt beam="1">  1       21 0.24022011E-03 0.86127767E+01</pdfrwt>
<pdfrwt beam="2">  1       21 0.13213760E-01 0.86127767E+01</pdfrwt>
<totfact> 0.65208424E+08</totfact>
</mgrwt>
</event>
<event>
 4    1  0.3931501E+006  0.5680943E+01  0.7546771E-02  0.2458896E+00
         21   -1    0    0  503  502  0.00000000000E+00  0.00000000000E+00  0.15089993807E+01  0.15089993807E+01  0.00000000000E+00 0.  1.
         21   -1    0    0  501  503 -0.00000000000E+00 -0.00000000000E+00 -0.21388424600E+02  0.21388424600E+02  0.00000000000E+00 0.  1.
          5    1    1    2  501    0 -0.30987790683E+01 -0.76202221089E+00 -0.10030059092E+02  0.11527150340E+02  0.47000000000E+01 0.  1.
         -5    1    1    2    0  502  0.30987790683E+01  0.76202221089E+00 -0.98493661267E+01  0.11370273641E+02  0.47000000000E+01 0.  1.
<mgrwt>
<rscale>  2 0.56809427E+01</rscale>
<asrwt>0</asrwt>
<pdfrwt beam="1">  1       21 0.23215377E-03 0.56809427E+01</pdfrwt>
<pdfrwt beam="2">  1       21 0.32905266E-02 0.56809427E+01</pdfrwt>
<totfact> 0.41352399E+09</totfact>
</mgrwt>
</event>
<event>
 4    1  0.3931501E+006  0.6877145E+01  0.7546771E-02  0.2313560E+00
         21   -1    0    0  503  502  0.00000000000E+00  0.00000000000E+00  0.11204497702E+03  0.11204497702E+03  0.00000000000E+00 0.  1.
         21   -1    0    0  501  503 -0.00000000000E+00 -0.00000000000E+00 -0.56401417003E+00  0.56401417003E+00  0.00000000000E+00 0.  1.
          5    1    1    2  501    0 -0.26042379528E+01  0.42922098349E+01  0.27498304741E+02  0.28345226833E+02  0.47000000000E+01 0.  1.
         -5    1    1    2    0  502  0.26042379528E+01 -0.42922098349E+01  0.83982658113E+02  0.84263764361E+02  0.47000000000E+01 0.  1.
<mgrwt>
<rscale>  2 0.68771448E+01</rscale>
<asrwt>0</asrwt>
<pdfrwt beam="1">  1       21 0.17237671E-01 0.68771448E+01</pdfrwt>
<pdfrwt beam="2">  1       21 0.86771500E-04 0.68771448E+01</pdfrwt>
<totfact> 0.14819712E+09</totfact>
</mgrwt>
</event>
<event>
 4    1  0.3931501E+006  0.7192317E+01  0.7546771E-02  0.2282031E+00
         21   -1    0    0  501  502  0.00000000000E+00  0.00000000000E+00  0.54774340072E+01  0.54774340072E+01  0.00000000000E+00 0.  1.
         21   -1    0    0  502  503 -0.00000000000E+00 -0.00000000000E+00 -0.21111502616E+02  0.21111502616E+02  0.00000000000E+00 0. -1.
          5    1    1    2  501    0  0.58742434889E+00 -0.54124259012E+01  0.20661873831E+01  0.74832180113E+01  0.47000000000E+01 0.  1.
         -5    1    1    2    0  503 -0.58742434889E+00  0.54124259012E+01 -0.17700255992E+02  0.19105718612E+02  0.47000000000E+01 0. -1.
<mgrwt>
<rscale>  2 0.71923168E+01</rscale>
<asrwt>0</asrwt>
<pdfrwt beam="1">  1       21 0.84268218E-03 0.71923168E+01</pdfrwt>
<pdfrwt beam="2">  1       21 0.32479234E-02 0.71923168E+01</pdfrwt>
<totfact> 0.85106534E+08</totfact>
</mgrwt>
</event>
<event>
 4    1  0.3931501E+006  0.6948840E+01  0.7546771E-02  0.2306183E+00
         21   -1    0    0  503  502  0.00000000000E+00  0.00000000000E+00  0.78905409710E-01  0.78905409710E-01  0.00000000000E+00 0.  1.
         21   -1    0    0  501  503 -0.00000000000E+00 -0.00000000000E+00 -0.97649526323E+03  0.97649526323E+03  0.00000000000E+00 0.  1.
          5    1    1    2  501    0  0.20418266140E+01  0.46933273444E+01 -0.78655010947E+03  0.78658080391E+03  0.47000000000E+01 0.  1.
         -5    1    1    2    0  502 -0.20418266140E+01 -0.46933273444E+01 -0.18986624835E+03  0.18999336473E+03  0.47000000000E+01 0.  1.
<mgrwt>
<rscale>  2 0.69488400E+01</rscale>
<asrwt>0</asrwt>
<pdfrwt beam="1">  1       21 0.12139636E-04 0.69488400E+01</pdfrwt>
<pdfrwt beam="2">  1       21 0.15022580E+00 0.69488400E+01</pdfrwt>
<totfact> 0.38067613E+08</totfact>
</mgrwt>
</event>
<event>
 4    1  0.3931501E+006  0.7588083E+01  0.7546771E-02  0.2245496E+00
         21   -1    0    0  503  502  0.00000000000E+00  0.00000000000E+00  0.39642910434E+00  0.39642910434E+00  0.00000000000E+00 0.  1.
         21   -1    0    0  501  503 -0.00000000000E+00 -0.00000000000E+00 -0.20553382190E+03  0.20553382190E+03  0.00000000000E+00 0.  1.
          5    1    1    2  501    0 -0.42074402059E+01  0.42173977352E+01 -0.15833477022E+03  0.15851649270E+03  0.47000000000E+01 0.  1.
         -5    1    1    2    0  502  0.42074402059E+01 -0.42173977352E+01 -0.46802622573E+02  0.47413758303E+02  0.47000000000E+01 0.  1.
<mgrwt>
<rscale>  2 0.75880825E+01</rscale>
<asrwt>0</asrwt>
<pdfrwt beam="1">  1       21 0.60988912E-04 0.75880825E+01</pdfrwt>
<pdfrwt beam="2">  1       21 0.31620682E-01 0.75880825E+01</pdfrwt>
<totfact> 0.93079086E+08</totfact>
</mgrwt>
</event>
<event>
 4    1  0.3931501E+006  0.6557839E+01  0.7546771E-02  0.2348021E+00
         21   -1    0    0  501  502  0.00000000000E+00  0.00000000000E+00  0.74574901875E+02  0.74574901875E+02  0.00000000000E+00 0. -1.
         21   -1    0    0  502  503 -0.00000000000E+00 -0.00000000000E+00 -0.58456280363E+00  0.58456280363E+00  0.00000000000E+00 0. -1.
          5    1    1    2  501    0  0.26074376499E+01 -0.37571957662E+01  0.32628994117E+02  0.33281473949E+02  0.47000000000E+01 0. -1.
         -5    1    1    2    0  503 -0.26074376499E+01  0.37571957662E+01  0.41361344954E+02  0.41877990730E+02  0.47000000000E+01 0. -1.
<mgrwt>
<rscale>  2 0.65578389E+01</rscale>
<asrwt>0</asrwt>
<pdfrwt beam="1">  1       21 0.11473054E-01 0.65578389E+01</pdfrwt>
<pdfrwt beam="2">  1       21 0.89932798E-04 0.65578389E+01</pdfrwt>
<totfact> 0.25957363E+09</totfact>
</mgrwt>
</event>
<event>
 4    1  0.3931501E+006  0.5958814E+01  0.7546771E-02  0.2420815E+00
         21   -1    0    0  503  502  0.00000000000E+00  0.00000000000E+00  0.31369142869E+02  0.31369142869E+02  0.00000000000E+00 0.  1.
         21   -1    0    0  501  503 -0.00000000000E+00 -0.00000000000E+00 -0.39740125759E+01  0.39740125759E+01  0.00000000000E+00 0.  1.
          5    1    1    2  501    0 -0.36398778803E+01  0.41080081052E+00 -0.12468716756E+01  0.60878696820E+01  0.47000000000E+01 0.  1.
         -5    1    1    2    0  502  0.36398778803E+01 -0.41080081052E+00  0.28642001968E+02  0.29255285762E+02  0.47000000000E+01 0.  1.
<mgrwt>
<rscale>  2 0.59588143E+01</rscale>
<asrwt>0</asrwt>
<pdfrwt beam="1">  1       21 0.48260218E-02 0.59588143E+01</pdfrwt>
<pdfrwt beam="2">  1       21 0.61138657E-03 0.59588143E+01</pdfrwt>
<totfact> 0.64709317E+08</totfact>
</mgrwt>
</event>
<event>
 4    1  0.3931501E+006  0.5179857E+01  0.7546771E-02  0.2536203E+00
         21   -1    0    0  503  502  0.00000000000E+00  0.00000000000E+00  0.60305965006E+02  0.60305965006E+02  0.00000000000E+00 0.  1.
         21   -1    0    0  501  503 -0.00000000000E+00 -0.00000000000E+00 -0.55540621741E+00  0.55540621741E+00  0.00000000000E+00 0. -1.
          5    1    1    2  501    0 -0.17266738362E+01 -0.13264681220E+01  0.16302344237E+02  0.17105477130E+02  0.47000000000E+01 0. -1.
         -5    1    1    2    0  502  0.17266738362E+01  0.13264681220E+01  0.43448214551E+02  0.43755894093E+02  0.47000000000E+01 0.  1.
<mgrwt>
<rscale>  2 0.51798572E+01</rscale>
<asrwt>0</asrwt>
<pdfrwt beam="1">  1       21 0.92778356E-02 0.51798572E+01</pdfrwt>
<pdfrwt beam="2">  1       21 0.85447158E-04 0.51798572E+01</pdfrwt>
<totfact> 0.31312647E+09</totfact>
</mgrwt>
</event>
<event>
 4    1  0.3931501E+006  0.4899460E+01  0.7546771E-02  0.2585305E+00
         21   -1    0    0  501  502  0.00000000000E+00  0.00000000000E+00  0.26937797369E+02  0.26937797369E+02  0.00000000000E+00 0.  1.
         21   -1    0    0  502  503 -0.00000000000E+00 -0.00000000000E+00 -0.10462076227E+01  0.10462076227E+01  0.00000000000E+00 0.  1.
          5    1    1    2  501    0 -0.70930672460E+00  0.11881036957E+01  0.18333017047E+02  0.18976412213E+02  0.47000000000E+01 0.  1.
         -5    1    1    2    0  503  0.70930672460E+00 -0.11881036957E+01  0.75585726998E+01  0.90075927794E+01  0.47000000000E+01 0.  1.
<mgrwt>
<rscale>  2 0.48994598E+01</rscale>
<asrwt>0</asrwt>
<pdfrwt beam="1">  1       21 0.41442760E-02 0.48994598E+01</pdfrwt>
<pdfrwt beam="2">  1       21 0.16095504E-03 0.48994598E+01</pdfrwt>
<totfact> 0.41855715E+09</totfact>
</mgrwt>
</event>
<event>
 4    1  0.3931501E+006  0.8660943E+01  0.7546771E-02  0.2160301E+00
         21   -1    0    0  503  502  0.00000000000E+00  0.00000000000E+00  0.18793550916E+02  0.18793550916E+02  0.00000000000E+00 0. -1.
         21   -1    0    0  501  503 -0.00000000000E+00 -0.00000000000E+00 -0.40844939474E+01  0.40844939474E+01  0.00000000000E+00 0.  1.
          5    1    1    2  501    0 -0.25413454555E+01  0.68164143561E+01  0.56272608188E+01  0.10328504525E+02  0.47000000000E+01 0.  1.
         -5    1    1    2    0  502  0.25413454555E+01 -0.68164143561E+01  0.90817961494E+01  0.12549540338E+02  0.47000000000E+01 0. -1.
<mgrwt>
<rscale>  2 0.86609434E+01</rscale>
<asrwt>0</asrwt>
<pdfrwt beam="1">  1       21 0.28913155E-02 0.86609434E+01</pdfrwt>
<pdfrwt beam="2">  1       21 0.62838369E-03 0.86609434E+01</pdfrwt>
<totfact> 0.17442693E+09</totfact>
</mgrwt>
</event>
<event>
 4    1  0.3931501E+006  0.7468210E+01  0.7546771E-02  0.2256229E+00
         21   -1    0    0  503  502  0.00000000000E+00  0.00000000000E+00  0.15416083684E+03  0.15416083684E+03  0.00000000000E+00 0. -1.
         21   -1    0    0  501  503 -0.00000000000E+00 -0.00000000000E+00 -0.13081936870E+01  0.13081936870E+01  0.00000000000E+00 0.  1.
          5    1    1    2  501    0 -0.57116294186E+01  0.10302693651E+01  0.10308945323E+02  0.12729827935E+02  0.47000000000E+01 0.  1.
         -5    1    1    2    0  502  0.57116294186E+01 -0.10302693651E+01  0.14254369783E+03  0.14273920259E+03  0.47000000000E+01 0. -1.
<mgrwt>
<rscale>  2 0.74682103E+01</rscale>
<asrwt>0</asrwt>
<pdfrwt beam="1">  1       21 0.23717037E-01 0.74682103E+01</pdfrwt>
<pdfrwt beam="2">  1       21 0.20126069E-03 0.74682103E+01</pdfrwt>
<totfact> 0.29448288E+08</totfact>
</mgrwt>
</event>
<event>
 4    1  0.3931501E+006  0.9306562E+01  0.7546771E-02  0.2116742E+00
         21   -1    0    0  503  502  0.00000000000E+00  0.00000000000E+00  0.17782295078E+03  0.17782295078E+03  0.00000000000E+00 0.  1.
         21   -1    0    0  501  503 -0.00000000000E+00 -0.00000000000E+00 -0.85732135287E+00  0.85732135287E+00  0.00000000000E+00 0. -1.
          5    1    1    2  501    0 -0.33807093376E+01  0.72864878339E+01  0.29771267492E+02  0.31191993663E+02  0.47000000000E+01 0. -1.
         -5    1    1    2    0  502  0.33807093376E+01 -0.72864878339E+01  0.14719436194E+03  0.14748827847E+03  0.47000000000E+01 0.  1.
<mgrwt>
<rscale>  2 0.93065622E+01</rscale>
<asrwt>0</asrwt>
<pdfrwt beam="1">  1       21 0.27357348E-01 0.93065622E+01</pdfrwt>
<pdfrwt beam="2">  1       21 0.13189573E-03 0.93065622E+01</pdfrwt>
<totfact> 0.46908716E+08</totfact>
</mgrwt>
</event>
<event>
 4    1  0.3931501E+006  0.4862952E+01  0.7546771E-02  0.2592056E+00
         21   -1    0    0  501  502  0.00000000000E+00  0.00000000000E+00  0.80241383738E+01  0.80241383738E+01  0.00000000000E+00 0. -1.
         21   -1    0    0  502  503 -0.00000000000E+00 -0.00000000000E+00 -0.31923912860E+01  0.31923912860E+01  0.00000000000E+00 0. -1.
          5    1    1    2  501    0 -0.12447407610E+01  0.94446314014E-01  0.39703052020E+01  0.62778677165E+01  0.47000000000E+01 0. -1.
         -5    1    1    2    0  503  0.12447407610E+01 -0.94446314014E-01  0.86144188581E+00  0.49386619434E+01  0.47000000000E+01 0. -1.
<mgrwt>
<rscale>  2 0.48629517E+01</rscale>
<asrwt>0</asrwt>
<pdfrwt beam="1">  1       21 0.12344828E-02 0.48629517E+01</pdfrwt>
<pdfrwt beam="2">  1       21 0.49113712E-03 0.48629517E+01</pdfrwt>
<totfact> 0.51289891E+09</totfact>
</mgrwt>
</event>
<event>
 4    1  0.3931501E+006  0.1048468E+02  0.7546771E-02  0.2048410E+00
         21   -1    0    0  503  502  0.00000000000E+00  0.00000000000E+00  0.84968940660E+02  0.84968940660E+02  0.00000000000E+00 0.  1.
         21   -1    0    0  501  503 -0.00000000000E+00 -0.00000000000E+00 -0.14593337939E+01  0.14593337939E+01  0.00000000000E+00 0.  1.
          5    1    1    2  501    0 -0.51563208969E+01  0.78262871752E+01  0.56311397442E+02  0.57279157623E+02  0.47000000000E+01 0.  1.
         -5    1    1    2    0  502  0.51563208969E+01 -0.78262871752E+01  0.27198209424E+02  0.29149116830E+02  0.47000000000E+01 0.  1.
<mgrwt>
<rscale>  2 0.10484675E+02</rscale>
<asrwt>0</asrwt>
<pdfrwt beam="1">  1       21 0.13072141E-01 0.10484675E+02</pdfrwt>
<pdfrwt beam="2">  1       21 0.22451296E-03 0.10484675E+02</pdfrwt>
<totfact> 0.81516278E+08</totfact>
</mgrwt>
</event>
<event>
 4    1  0.3931501E+006  0.5034021E+01  0.7546771E-02  0.2561154E+00
         21   -1    0    0  501  502  0.00000000000E+00  0.00000000000E+00  0.16876238367E+01  0.16876238367E+01  0.00000000000E+00 0. -1.
         21   -1    0    0  502  503 -0.00000000000E+00 -0.00000000000E+00 -0.32116822624E+02  0.32116822624E+02  0.00000000000E+00 0. -1.
          5    1    1    2  501    0 -0.97499248359E+00 -0.15168249513E+01 -0.28811095080E+01  0.58001862274E+01  0.47000000000E+01 0. -1.
         -5    1    1    2    0  503  0.97499248359E+00  0.15168249513E+01 -0.27548089279E+02  0.28004260233E+02  0.47000000000E+01 0. -1.
<mgrwt>
<rscale>  2 0.50340211E+01</rscale>
<asrwt>0</asrwt>
<pdfrwt beam="1">  1       21 0.25963444E-03 0.50340211E+01</pdfrwt>
<pdfrwt beam="2">  1       21 0.49410496E-02 0.50340211E+01</pdfrwt>
<totfact> 0.17503116E+09</totfact>
</mgrwt>
</event>
<event>
 4    1  0.3931501E+006  0.6862446E+01  0.7546771E-02  0.2315089E+00
         21   -1    0    0  501  502  0.00000000000E+00  0.00000000000E+00  0.27411328948E+03  0.27411328948E+03  0.00000000000E+00 0. -1.
         21   -1    0    0  502  503 -0.00000000000E+00 -0.00000000000E+00 -0.17182132445E+00  0.17182132445E+00  0.00000000000E+00 0.  1.
          5    1    1    2  501    0  0.48485463139E+01 -0.12226048964E+01  0.13843162040E+03  0.13860161142E+03  0.47000000000E+01 0. -1.
         -5    1    1    2    0  503 -0.48485463139E+01  0.12226048964E+01  0.13550984776E+03  0.13568349938E+03  0.47000000000E+01 0.  1.
<mgrwt>
<rscale>  2 0.68624459E+01</rscale>
<asrwt>0</asrwt>
<pdfrwt beam="1">  1       21 0.42170925E-01 0.68624459E+01</pdfrwt>
<pdfrwt beam="2">  1       21 0.26434269E-04 0.68624459E+01</pdfrwt>
<totfact> 0.16230712E+09</totfact>
</mgrwt>
</event>
<event>
 4    1  0.3931501E+006  0.6389183E+01  0.7546771E-02  0.2367365E+00
         21   -1    0    0  501  502  0.00000000000E+00  0.00000000000E+00  0.62928355388E+01  0.62928355388E+01  0.00000000000E+00 0. -1.
         21   -1    0    0  502  503 -0.00000000000E+00 -0.00000000000E+00 -0.79178348928E+01  0.79178348928E+01  0.00000000000E+00 0. -1.
          5    1    1    2  501    0  0.39969980085E+01 -0.16600187878E+01  0.22079761001E+01  0.67599418573E+01  0.47000000000E+01 0. -1.
         -5    1    1    2    0  503 -0.39969980085E+01  0.16600187878E+01 -0.38329754541E+01  0.74507285742E+01  0.47000000000E+01 0. -1.
<mgrwt>
<rscale>  2 0.63891827E+01</rscale>
<asrwt>0</asrwt>
<pdfrwt beam="1">  1       21 0.96812855E-03 0.63891827E+01</pdfrwt>
<pdfrwt beam="2">  1       21 0.12181284E-02 0.63891827E+01</pdfrwt>
<totfact> 0.26391028E+09</totfact>
</mgrwt>
</event>
<event>
 4    1  0.3931501E+006  0.5317335E+01  0.7546771E-02  0.2513761E+00
         21   -1    0    0  501  502  0.00000000000E+00  0.00000000000E+00  0.10807122470E+01  0.10807122470E+01  0.00000000000E+00 0.  1.
         21   -1    0    0  502  503 -0.00000000000E+00 -0.00000000000E+00 -0.31341645562E+02  0.31341645562E+02  0.00000000000E+00 0.  1.
          5    1    1    2  501    0 -0.12439361782E+00  0.24836626011E+01 -0.85404595676E+01  0.10060492200E+02  0.47000000000E+01 0.  1.
         -5    1    1    2    0  503  0.12439361782E+00 -0.24836626011E+01 -0.21720473748E+02  0.22361865609E+02  0.47000000000E+01 0.  1.
<mgrwt>
<rscale>  2 0.53173352E+01</rscale>
<asrwt>0</asrwt>
<pdfrwt beam="1">  1       21 0.16626342E-03 0.53173352E+01</pdfrwt>
<pdfrwt beam="2">  1       21 0.48217918E-02 0.53173352E+01</pdfrwt>
<totfact> 0.34928466E+09</totfact>
</mgrwt>
</event>
<event>
 4    1  0.3931501E+006  0.2447653E+02  0.7546771E-02  0.1668637E+00
         21   -1    0    0  503  502  0.00000000000E+00  0.00000000000E+00  0.34786482345E+02  0.34786482345E+02  0.00000000000E+00 0. -1.
         21   -1    0    0  501  503 -0.00000000000E+00 -0.00000000000E+00 -0.19432421055E+02  0.19432421055E+02  0.00000000000E+00 0.  1.
          5    1    1    2  501    0  0.23755984871E+02 -0.35585889961E+01 -0.14656466806E+01  0.24520368941E+02  0.47000000000E+01 0. -1.
         -5    1    1    2    0  502 -0.23755984871E+02  0.35585889961E+01  0.16819707971E+02  0.29698534460E+02  0.47000000000E+01 0.  1.
<mgrwt>
<rscale>  2 0.24476527E+02</rscale>
<asrwt>0</asrwt>
<pdfrwt beam="1">  1       21 0.53517665E-02 0.24476527E+02</pdfrwt>
<pdfrwt beam="2">  1       21 0.29896032E-02 0.24476527E+02</pdfrwt>
<totfact> 0.10526886E+08</totfact>
</mgrwt>
</event>
<event>
 4    1  0.3931501E+006  0.4715969E+01  0.7546771E-02  0.2620150E+00
         21   -1    0    0  503  502  0.00000000000E+00  0.00000000000E+00  0.10944807872E+04  0.10944807872E+04  0.00000000000E+00 0.  1.
         21   -1    0    0  501  503 -0.00000000000E+00 -0.00000000000E+00 -0.72036436279E-01  0.72036436279E-01  0.00000000000E+00 0.  1.
          5    1    1    2  501    0 -0.36551361402E+00  0.12946689763E+00  0.83498124736E+02  0.83631197507E+02  0.47000000000E+01 0.  1.
         -5    1    1    2    0  502  0.36551361402E+00 -0.12946689763E+00  0.10109106260E+04  0.10109216261E+04  0.47000000000E+01 0.  1.
<mgrwt>
<rscale>  2 0.47159688E+01</rscale>
<asrwt>0</asrwt>
<pdfrwt beam="1">  1       21 0.16836834E+00 0.47159688E+01</pdfrwt>
<pdfrwt beam="2">  1       21 0.11083405E-04 0.47159688E+01</pdfrwt>
<totfact> 0.26326281E+08</totfact>
</mgrwt>
</event>
<event>
 4    1  0.3931501E+006  0.5109793E+01  0.7546771E-02  0.2548038E+00
         21   -1    0    0  501  502  0.00000000000E+00  0.00000000000E+00  0.13294892818E+02  0.13294892818E+02  0.00000000000E+00 0.  1.
         21   -1    0    0  502  503 -0.00000000000E+00 -0.00000000000E+00 -0.44464833616E+01  0.44464833616E+01  0.00000000000E+00 0.  1.
          5    1    1    2  501    0  0.18805681193E+01 -0.69530526952E+00  0.11052470802E+02  0.12176497719E+02  0.47000000000E+01 0.  1.
         -5    1    1    2    0  503 -0.18805681193E+01  0.69530526952E+00 -0.22040613454E+01  0.55648784608E+01  0.47000000000E+01 0.  1.
<mgrwt>
<rscale>  2 0.51097931E+01</rscale>
<asrwt>0</asrwt>
<pdfrwt beam="1">  1       21 0.20453681E-02 0.51097931E+01</pdfrwt>
<pdfrwt beam="2">  1       21 0.68407437E-03 0.51097931E+01</pdfrwt>
<totfact> 0.16782158E+09</totfact>
</mgrwt>
</event>
<event>
 4    1  0.3931501E+006  0.5019014E+01  0.7546771E-02  0.2563792E+00
         21   -1    0    0  501  502  0.00000000000E+00  0.00000000000E+00  0.11576202208E+04  0.11576202208E+04  0.00000000000E+00 0.  1.
         21   -1    0    0  502  503 -0.00000000000E+00 -0.00000000000E+00 -0.29250704125E-01  0.29250704125E-01  0.00000000000E+00 0.  1.
          5    1    1    2  501    0 -0.17302640345E+01  0.32663733385E+00  0.87169791354E+03  0.87171236253E+03  0.47000000000E+01 0.  1.
         -5    1    1    2    0  503  0.17302640345E+01 -0.32663733385E+00  0.28589305654E+03  0.28593710897E+03  0.47000000000E+01 0.  1.
<mgrwt>
<rscale>  2 0.50190144E+01</rscale>
<asrwt>0</asrwt>
<pdfrwt beam="1">  1       21 0.17805873E+00 0.50190144E+01</pdfrwt>
<pdfrwt beam="2">  1       21 0.45010355E-05 0.50190144E+01</pdfrwt>
<totfact> 0.81464520E+08</totfact>
</mgrwt>
</event>
<event>
 4    1  0.3931501E+006  0.5674260E+01  0.7546771E-02  0.2459851E+00
         21   -1    0    0  503  502  0.00000000000E+00  0.00000000000E+00  0.13154487510E+03  0.13154487510E+03  0.00000000000E+00 0. -1.
         21   -1    0    0  501  503 -0.00000000000E+00 -0.00000000000E+00 -0.48040850810E+00  0.48040850810E+00  0.00000000000E+00 0.  1.
          5    1    1    2  501    0  0.27392223531E+01  0.16136549271E+01  0.19299238082E+02  0.20116108268E+02  0.47000000000E+01 0.  1.
         -5    1    1    2    0  502 -0.27392223531E+01 -0.16136549271E+01  0.11176522851E+03  0.11190917534E+03  0.47000000000E+01 0. -1.
<mgrwt>
<rscale>  2 0.56742595E+01</rscale>
<asrwt>0</asrwt>
<pdfrwt beam="1">  1       21 0.20237644E-01 0.56742595E+01</pdfrwt>
<pdfrwt beam="2">  1       21 0.73909106E-04 0.56742595E+01</pdfrwt>
<totfact> 0.12243337E+09</totfact>
</mgrwt>
</event>
<event>
 4    1  0.3931501E+006  0.5398984E+01  0.7546771E-02  0.2500895E+00
         21   -1    0    0  501  502  0.00000000000E+00  0.00000000000E+00  0.54018144741E+02  0.54018144741E+02  0.00000000000E+00 0.  1.
         21   -1    0    0  502  503 -0.00000000000E+00 -0.00000000000E+00 -0.77909091527E+00  0.77909091527E+00  0.00000000000E+00 0. -1.
          5    1    1    2  501    0  0.23887028394E+01 -0.11632391252E+01  0.41809782456E+02  0.42156932236E+02  0.47000000000E+01 0.  1.
         -5    1    1    2    0  503 -0.23887028394E+01  0.11632391252E+01  0.11429271370E+02  0.12640303420E+02  0.47000000000E+01 0. -1.
<mgrwt>
<rscale>  2 0.53989838E+01</rscale>
<asrwt>0</asrwt>
<pdfrwt beam="1">  1       21 0.83104808E-02 0.53989838E+01</pdfrwt>
<pdfrwt beam="2">  1       21 0.11986018E-03 0.53989838E+01</pdfrwt>
<totfact> 0.24492208E+09</totfact>
</mgrwt>
</event>
<event>
 4    1  0.3931501E+006  0.4795974E+01  0.7546771E-02  0.2604672E+00
         21   -1    0    0  503  502  0.00000000000E+00  0.00000000000E+00  0.43705922280E+00  0.43705922280E+00  0.00000000000E+00 0.  1.
         21   -1    0    0  501  503 -0.00000000000E+00 -0.00000000000E+00 -0.89366259356E+02  0.89366259356E+02  0.00000000000E+00 0.  1.
          5    1    1    2  501    0  0.73989889876E+00  0.60325251831E+00 -0.73254320082E+02  0.73411148844E+02  0.47000000000E+01 0.  1.
         -5    1    1    2    0  502 -0.73989889876E+00 -0.60325251831E+00 -0.15674880051E+02  0.16392169734E+02  0.47000000000E+01 0.  1.
<mgrwt>
<rscale>  2 0.47959737E+01</rscale>
<asrwt>0</asrwt>
<pdfrwt beam="1">  1       21 0.67239825E-04 0.47959737E+01</pdfrwt>
<pdfrwt beam="2">  1       21 0.13748667E-01 0.47959737E+01</pdfrwt>
<totfact> 0.21901395E+09</totfact>
</mgrwt>
</event>
<event>
 4    1  0.3931501E+006  0.5241538E+01  0.7546771E-02  0.2526010E+00
         21   -1    0    0  501  502  0.00000000000E+00  0.00000000000E+00  0.39196621706E+03  0.39196621706E+03  0.00000000000E+00 0. -1.
         21   -1    0    0  502  503 -0.00000000000E+00 -0.00000000000E+00 -0.74709553312E-01  0.74709553312E-01  0.00000000000E+00 0. -1.
          5    1    1    2  501    0  0.23165171459E+01 -0.13217236390E+00  0.24467798373E+03  0.24473411990E+03  0.47000000000E+01 0. -1.
         -5    1    1    2    0  503 -0.23165171459E+01  0.13217236390E+00  0.14721352378E+03  0.14730680672E+03  0.47000000000E+01 0. -1.
<mgrwt>
<rscale>  2 0.52415381E+01</rscale>
<asrwt>0</asrwt>
<pdfrwt beam="1">  1       21 0.60300848E-01 0.52415381E+01</pdfrwt>
<pdfrwt beam="2">  1       21 0.11494091E-04 0.52415381E+01</pdfrwt>
<totfact> 0.21067636E+09</totfact>
</mgrwt>
</event>
<event>
 4    1  0.3931501E+006  0.7784219E+01  0.7546771E-02  0.2228515E+00
         21   -1    0    0  503  502  0.00000000000E+00  0.00000000000E+00  0.26478493823E+03  0.26478493823E+03  0.00000000000E+00 0.  1.
         21   -1    0    0  501  503 -0.00000000000E+00 -0.00000000000E+00 -0.87870239240E+00  0.87870239240E+00  0.00000000000E+00 0.  1.
          5    1    1    2  501    0  0.20452847274E+01  0.58584026378E+01  0.17720256167E+02  0.19354626055E+02  0.47000000000E+01 0.  1.
         -5    1    1    2    0  502 -0.20452847274E+01 -0.58584026378E+01  0.24618597967E+03  0.24630901457E+03  0.47000000000E+01 0.  1.
<mgrwt>
<rscale>  2 0.77842194E+01</rscale>
<asrwt>0</asrwt>
<pdfrwt beam="1">  1       21 0.40736081E-01 0.77842194E+01</pdfrwt>
<pdfrwt beam="2">  1       21 0.13518519E-03 0.77842194E+01</pdfrwt>
<totfact> 0.20529503E+08</totfact>
</mgrwt>
</event>
<event>
 4    1  0.3931501E+006  0.5427634E+01  0.7546771E-02  0.2496459E+00
         21   -1    0    0  501  502  0.00000000000E+00  0.00000000000E+00  0.62947049184E+01  0.62947049184E+01  0.00000000000E+00 0. -1.
         21   -1    0    0  502  503 -0.00000000000E+00 -0.00000000000E+00 -0.53662736117E+01  0.53662736117E+01  0.00000000000E+00 0. -1.
          5    1    1    2  501    0  0.66730094096E+00  0.26313345733E+01  0.25492709994E+01  0.59964985459E+01  0.47000000000E+01 0. -1.
         -5    1    1    2    0  503 -0.66730094096E+00 -0.26313345733E+01 -0.16208396927E+01  0.56644799842E+01  0.47000000000E+01 0. -1.
<mgrwt>
<rscale>  2 0.54276341E+01</rscale>
<asrwt>0</asrwt>
<pdfrwt beam="1">  1       21 0.96841615E-03 0.54276341E+01</pdfrwt>
<pdfrwt beam="2">  1       21 0.82558055E-03 0.54276341E+01</pdfrwt>
<totfact> 0.39387299E+09</totfact>
</mgrwt>
</event>
<event>
 4    1  0.3931501E+006  0.5195430E+01  0.7546771E-02  0.2533610E+00
         21   -1    0    0  503  502  0.00000000000E+00  0.00000000000E+00  0.10806948212E+02  0.10806948212E+02  0.00000000000E+00 0.  1.
         21   -1    0    0  501  503 -0.00000000000E+00 -0.00000000000E+00 -0.39391719394E+01  0.39391719394E+01  0.00000000000E+00 0. -1.
          5    1    1    2  501    0  0.11507635866E+01  0.18916236252E+01 -0.10262534738E+01  0.52958184414E+01  0.47000000000E+01 0. -1.
         -5    1    1    2    0  502 -0.11507635866E+01 -0.18916236252E+01  0.78940297459E+01  0.94503017095E+01  0.47000000000E+01 0.  1.
<mgrwt>
<rscale>  2 0.51954304E+01</rscale>
<asrwt>0</asrwt>
<pdfrwt beam="1">  1       21 0.16626074E-02 0.51954304E+01</pdfrwt>
<pdfrwt beam="2">  1       21 0.60602646E-03 0.51954304E+01</pdfrwt>
<totfact> 0.27064115E+09</totfact>
</mgrwt>
</event>
<event>
 4    1  0.3931501E+006  0.4755547E+01  0.7546771E-02  0.2612436E+00
         21   -1    0    0  503  502  0.00000000000E+00  0.00000000000E+00  0.46336883555E+02  0.46336883555E+02  0.00000000000E+00 0.  1.
         21   -1    0    0  501  503 -0.00000000000E+00 -0.00000000000E+00 -0.67460331643E+00  0.67460331643E+00  0.00000000000E+00 0. -1.
          5    1    1    2  501    0  0.38942275571E+00 -0.61121300611E+00  0.10470575904E+02  0.11499921356E+02  0.47000000000E+01 0. -1.
         -5    1    1    2    0  502 -0.38942275571E+00  0.61121300611E+00  0.35191704335E+02  0.35511565516E+02  0.47000000000E+01 0.  1.
<mgrwt>
<rscale>  2 0.47555474E+01</rscale>
<asrwt>0</asrwt>
<pdfrwt beam="1">  1       21 0.71287488E-02 0.47555474E+01</pdfrwt>
<pdfrwt beam="2">  1       21 0.10378516E-03 0.47555474E+01</pdfrwt>
<totfact> 0.32897146E+09</totfact>
</mgrwt>
</event>
<event>
 4    1  0.3931501E+006  0.4907056E+01  0.7546771E-02  0.2583911E+00
         21   -1    0    0  503  502  0.00000000000E+00  0.00000000000E+00  0.44380383899E+02  0.44380383899E+02  0.00000000000E+00 0.  1.
         21   -1    0    0  501  503 -0.00000000000E+00 -0.00000000000E+00 -0.70151348039E+00  0.70151348039E+00  0.00000000000E+00 0. -1.
          5    1    1    2  501    0  0.32752907040E-01 -0.14100097437E+01  0.11109831390E+02  0.12145268780E+02  0.47000000000E+01 0. -1.
         -5    1    1    2    0  502 -0.32752907040E-01  0.14100097437E+01  0.32569039029E+02  0.32936628599E+02  0.47000000000E+01 0.  1.
<mgrwt>
<rscale>  2 0.49070562E+01</rscale>
<asrwt>0</asrwt>
<pdfrwt beam="1">  1       21 0.68277492E-02 0.49070562E+01</pdfrwt>
<pdfrwt beam="2">  1       21 0.10792519E-03 0.49070562E+01</pdfrwt>
<totfact> 0.34390897E+09</totfact>
</mgrwt>
</event>
<event>
 4    1  0.3931501E+006  0.2218402E+02  0.7546771E-02  0.1705089E+00
         21   -1    0    0  503  502  0.00000000000E+00  0.00000000000E+00  0.74143738771E+00  0.74143738771E+00  0.00000000000E+00 0. -1.
         21   -1    0    0  501  503 -0.00000000000E+00 -0.00000000000E+00 -0.78446217203E+03  0.78446217203E+03  0.00000000000E+00 0.  1.
          5    1    1    2  501    0 -0.12575612070E+02  0.17660536492E+02 -0.54586655721E+03  0.54631715043E+03  0.47000000000E+01 0.  1.
         -5    1    1    2    0  502  0.12575612070E+02 -0.17660536492E+02 -0.23785417742E+03  0.23888645898E+03  0.47000000000E+01 0. -1.
<mgrwt>
<rscale>  2 0.22184016E+02</rscale>
<asrwt>0</asrwt>
<pdfrwt beam="1">  1       21 0.11406751E-03 0.22184016E+02</pdfrwt>
<pdfrwt beam="2">  1       21 0.12068625E+00 0.22184016E+02</pdfrwt>
<totfact> 0.43024363E+07</totfact>
</mgrwt>
</event>
<event>
 4    1  0.3931501E+006  0.4845698E+01  0.7546771E-02  0.2595277E+00
         21   -1    0    0  503  502  0.00000000000E+00  0.00000000000E+00  0.66423070261E+00  0.66423070261E+00  0.00000000000E+00 0. -1.
         21   -1    0    0  501  503 -0.00000000000E+00 -0.00000000000E+00 -0.13906395614E+03  0.13906395614E+03  0.00000000000E+00 0. -1.
          5    1    1    2  501    0  0.12495260798E+00  0.11726782673E+01 -0.12953420829E+03  0.12962481207E+03  0.47000000000E+01 0. -1.
         -5    1    1    2    0  502 -0.12495260798E+00 -0.11726782673E+01 -0.88655171534E+01  0.10103374776E+02  0.47000000000E+01 0. -1.
<mgrwt>
<rscale>  2 0.48456978E+01</rscale>
<asrwt>0</asrwt>
<pdfrwt beam="1">  1       21 0.10218936E-03 0.48456978E+01</pdfrwt>
<pdfrwt beam="2">  1       21 0.21394450E-01 0.48456978E+01</pdfrwt>
<totfact> 0.63570894E+08</totfact>
</mgrwt>
</event>
<event>
 4    1  0.3931501E+006  0.4988373E+01  0.7546771E-02  0.2569221E+00
         21   -1    0    0  503  502  0.00000000000E+00  0.00000000000E+00  0.21748083187E+01  0.21748083187E+01  0.00000000000E+00 0. -1.
         21   -1    0    0  501  503 -0.00000000000E+00 -0.00000000000E+00 -0.28934272564E+02  0.28934272564E+02  0.00000000000E+00 0. -1.
          5    1    1    2  501    0 -0.10195853752E+01 -0.13245025087E+01 -0.25473891995E+02  0.25957716282E+02  0.47000000000E+01 0. -1.
         -5    1    1    2    0  502  0.10195853752E+01  0.13245025087E+01 -0.12855722502E+01  0.51513646001E+01  0.47000000000E+01 0. -1.
<mgrwt>
<rscale>  2 0.49883726E+01</rscale>
<asrwt>0</asrwt>
<pdfrwt beam="1">  1       21 0.33458591E-03 0.49883726E+01</pdfrwt>
<pdfrwt beam="2">  1       21 0.44514264E-02 0.49883726E+01</pdfrwt>
<totfact> 0.14316470E+09</totfact>
</mgrwt>
</event>
<event>
 4    1  0.3931501E+006  0.1507403E+02  0.7546771E-02  0.1865818E+00
         21   -1    0    0  503  502  0.00000000000E+00  0.00000000000E+00  0.94818647973E+01  0.94818647973E+01  0.00000000000E+00 0. -1.
         21   -1    0    0  501  503 -0.00000000000E+00 -0.00000000000E+00 -0.24163756034E+02  0.24163756034E+02  0.00000000000E+00 0.  1.
          5    1    1    2  501    0 -0.14265429462E+02  0.12782218836E+01 -0.58125663015E+01  0.16155873728E+02  0.47000000000E+01 0. -1.
         -5    1    1    2    0  502  0.14265429462E+02 -0.12782218836E+01 -0.88693249353E+01  0.17489747103E+02  0.47000000000E+01 0.  1.
<mgrwt>
<rscale>  2 0.15074028E+02</rscale>
<asrwt>0</asrwt>
<pdfrwt beam="1">  1       21 0.14587484E-02 0.15074028E+02</pdfrwt>
<pdfrwt beam="2">  1       21 0.37175009E-02 0.15074028E+02</pdfrwt>
<totfact> 0.47077173E+08</totfact>
</mgrwt>
</event>
<event>
 4    1  0.3931501E+006  0.7908181E+01  0.7546771E-02  0.2218135E+00
         21   -1    0    0  503  502  0.00000000000E+00  0.00000000000E+00  0.16639671729E+03  0.16639671729E+03  0.00000000000E+00 0. -1.
         21   -1    0    0  501  503 -0.00000000000E+00 -0.00000000000E+00 -0.49294691714E+00  0.49294691714E+00  0.00000000000E+00 0.  1.
          5    1    1    2  501    0  0.29280125535E+01 -0.56458894952E+01  0.42281160504E+02  0.43014368056E+02  0.47000000000E+01 0. -1.
         -5    1    1    2    0  502 -0.29280125535E+01  0.56458894952E+01  0.12362260987E+03  0.12387529615E+03  0.47000000000E+01 0. -1.
<mgrwt>
<rscale>  2 0.79081809E+01</rscale>
<asrwt>0</asrwt>
<pdfrwt beam="1">  1       21 0.25599450E-01 0.79081809E+01</pdfrwt>
<pdfrwt beam="2">  1       21 0.75838120E-04 0.79081809E+01</pdfrwt>
<totfact> 0.10195730E+09</totfact>
</mgrwt>
</event>
<event>
 4    1  0.3931501E+006  0.5004730E+01  0.7546771E-02  0.2566315E+00
         21   -1    0    0  503  502  0.00000000000E+00  0.00000000000E+00  0.69575852042E+01  0.69575852042E+01  0.00000000000E+00 0. -1.
         21   -1    0    0  501  503 -0.00000000000E+00 -0.00000000000E+00 -0.83858153997E+01  0.83858153997E+01  0.00000000000E+00 0. -1.
          5    1    1    2  501    0 -0.16924467978E+01  0.30486555968E+00 -0.65096946297E+01  0.82111779511E+01  0.47000000000E+01 0. -1.
         -5    1    1    2    0  502  0.16924467978E+01 -0.30486555968E+00  0.50814644342E+01  0.71322226528E+01  0.47000000000E+01 0. -1.
<mgrwt>
<rscale>  2 0.50047297E+01</rscale>
<asrwt>0</asrwt>
<pdfrwt beam="1">  1       21 0.10703977E-02 0.50047297E+01</pdfrwt>
<pdfrwt beam="2">  1       21 0.12901254E-02 0.50047297E+01</pdfrwt>
<totfact> 0.16907909E+09</totfact>
</mgrwt>
</event>
<event>
 4    1  0.3931501E+006  0.4802548E+01  0.7546771E-02  0.2603420E+00
         21   -1    0    0  501  502  0.00000000000E+00  0.00000000000E+00  0.28439331488E+00  0.28439331488E+00  0.00000000000E+00 0. -1.
         21   -1    0    0  502  503 -0.00000000000E+00 -0.00000000000E+00 -0.94103039979E+02  0.94103039979E+02  0.00000000000E+00 0. -1.
          5    1    1    2  501    0 -0.87889749202E+00  0.44944954433E+00 -0.29366683542E+02  0.29756790283E+02  0.47000000000E+01 0. -1.
         -5    1    1    2    0  503  0.87889749202E+00 -0.44944954433E+00 -0.64451963122E+02  0.64630643011E+02  0.47000000000E+01 0. -1.
<mgrwt>
<rscale>  2 0.48025478E+01</rscale>
<asrwt>0</asrwt>
<pdfrwt beam="1">  1       21 0.43752737E-04 0.48025478E+01</pdfrwt>
<pdfrwt beam="2">  1       21 0.14477418E-01 0.48025478E+01</pdfrwt>
<totfact> 0.35740113E+09</totfact>
</mgrwt>
</event>
<event>
 4    1  0.3931501E+006  0.5736652E+01  0.7546771E-02  0.2451013E+00
         21   -1    0    0  501  502  0.00000000000E+00  0.00000000000E+00  0.55498336419E+03  0.55498336419E+03  0.00000000000E+00 0. -1.
         21   -1    0    0  502  503 -0.00000000000E+00 -0.00000000000E+00 -0.13740984699E+00  0.13740984699E+00  0.00000000000E+00 0.  1.
          5    1    1    2  501    0  0.95301128265E+00 -0.31481656754E+01  0.48669353958E+03  0.48672734734E+03  0.47000000000E+01 0. -1.
         -5    1    1    2    0  503 -0.95301128265E+00  0.31481656754E+01  0.68152414766E+02  0.68393426702E+02  0.47000000000E+01 0.  1.
<mgrwt>
<rscale>  2 0.57366521E+01</rscale>
<asrwt>0</asrwt>
<pdfrwt beam="1">  1       21 0.85380261E-01 0.57366521E+01</pdfrwt>
<pdfrwt beam="2">  1       21 0.21140421E-04 0.57366521E+01</pdfrwt>
<totfact> 0.51959791E+08</totfact>
</mgrwt>
</event>
<event>
 4    1  0.3931501E+006  0.1331877E+02  0.7546771E-02  0.1924174E+00
         21   -1    0    0  503  502  0.00000000000E+00  0.00000000000E+00  0.38115889670E+00  0.38115889670E+00  0.00000000000E+00 0. -1.
         21   -1    0    0  501  503 -0.00000000000E+00 -0.00000000000E+00 -0.72632930223E+03  0.72632930223E+03  0.00000000000E+00 0.  1.
          5    1    1    2  501    0 -0.10882029830E+02  0.60729765333E+01 -0.58076001458E+03  0.58091271646E+03  0.47000000000E+01 0.  1.
         -5    1    1    2    0  502  0.10882029830E+02 -0.60729765333E+01 -0.14518812876E+03  0.14579774467E+03  0.47000000000E+01 0.  1.
<mgrwt>
<rscale>  2 0.13318769E+02</rscale>
<asrwt>0</asrwt>
<pdfrwt beam="1">  1       21 0.58639812E-04 0.13318769E+02</pdfrwt>
<pdfrwt beam="2">  1       21 0.11174300E+00 0.13318769E+02</pdfrwt>
<totfact> 0.11323039E+08</totfact>
</mgrwt>
</event>
<event>
 4    1  0.3931501E+006  0.5718592E+01  0.7546771E-02  0.2453554E+00
         21   -1    0    0  501  502  0.00000000000E+00  0.00000000000E+00  0.98153793781E+01  0.98153793781E+01  0.00000000000E+00 0.  1.
         21   -1    0    0  502  503 -0.00000000000E+00 -0.00000000000E+00 -0.58637475283E+01  0.58637475283E+01  0.00000000000E+00 0.  1.
          5    1    1    2  501    0 -0.25787623430E+01  0.19905468966E+01  0.71273519805E+01  0.91379121479E+01  0.47000000000E+01 0.  1.
         -5    1    1    2    0  503  0.25787623430E+01 -0.19905468966E+01 -0.31757201307E+01  0.65412147586E+01  0.47000000000E+01 0.  1.
<mgrwt>
<rscale>  2 0.57185918E+01</rscale>
<asrwt>0</asrwt>
<pdfrwt beam="1">  1       21 0.15100584E-02 0.57185918E+01</pdfrwt>
<pdfrwt beam="2">  1       21 0.90211501E-03 0.57185918E+01</pdfrwt>
<totfact> 0.19504316E+09</totfact>
</mgrwt>
</event>
<event>
 4    1  0.3931501E+006  0.6565646E+01  0.7546771E-02  0.2347146E+00
         21   -1    0    0  501  502  0.00000000000E+00  0.00000000000E+00  0.14279379085E+01  0.14279379085E+01  0.00000000000E+00 0.  1.
         21   -1    0    0  502  503 -0.00000000000E+00 -0.00000000000E+00 -0.46387678139E+02  0.46387678139E+02  0.00000000000E+00 0. -1.
          5    1    1    2  501    0 -0.39337279063E+01 -0.23544612265E+01 -0.83518539258E+01  0.10623613646E+02  0.47000000000E+01 0.  1.
         -5    1    1    2    0  503  0.39337279063E+01  0.23544612265E+01 -0.36607886305E+02  0.37192002401E+02  0.47000000000E+01 0. -1.
<mgrwt>
<rscale>  2 0.65656457E+01</rscale>
<asrwt>0</asrwt>
<pdfrwt beam="1">  1       21 0.21968282E-03 0.65656457E+01</pdfrwt>
<pdfrwt beam="2">  1       21 0.71365639E-02 0.65656457E+01</pdfrwt>
<totfact> 0.16013886E+09</totfact>
</mgrwt>
</event>
<event>
 4    1  0.3931501E+006  0.5859590E+01  0.7546771E-02  0.2434064E+00
         21   -1    0    0  503  502  0.00000000000E+00  0.00000000000E+00  0.19320736984E+03  0.19320736984E+03  0.00000000000E+00 0. -1.
         21   -1    0    0  501  503 -0.00000000000E+00 -0.00000000000E+00 -0.62077804821E+00  0.62077804821E+00  0.00000000000E+00 0.  1.
          5    1    1    2  501    0  0.25745141422E+01  0.23699514603E+01  0.14417767512E+02  0.15562994989E+02  0.47000000000E+01 0.  1.
         -5    1    1    2    0  502 -0.25745141422E+01 -0.23699514603E+01  0.17816882428E+03  0.17826515290E+03  0.47000000000E+01 0. -1.
<mgrwt>
<rscale>  2 0.58595898E+01</rscale>
<asrwt>0</asrwt>
<pdfrwt beam="1">  1       21 0.29724163E-01 0.58595898E+01</pdfrwt>
<pdfrwt beam="2">  1       21 0.95504469E-04 0.58595898E+01</pdfrwt>
<totfact> 0.47360116E+08</totfact>
</mgrwt>
</event>
<event>
 4    1  0.3931501E+006  0.6757795E+01  0.7546771E-02  0.2326127E+00
         21   -1    0    0  501  502  0.00000000000E+00  0.00000000000E+00  0.10779687710E+04  0.10779687710E+04  0.00000000000E+00 0. -1.
         21   -1    0    0  502  503 -0.00000000000E+00 -0.00000000000E+00 -0.54168215270E-01  0.54168215270E-01  0.00000000000E+00 0.  1.
          5    1    1    2  501    0 -0.34676095884E+01 -0.33990401928E+01  0.79056967305E+03  0.79059855536E+03  0.47000000000E+01 0. -1.
         -5    1    1    2    0  503  0.34676095884E+01  0.33990401928E+01  0.28734492975E+03  0.28742438387E+03  0.47000000000E+01 0.  1.
<mgrwt>
<rscale>  2 0.67577948E+01</rscale>
<asrwt>0</asrwt>
<pdfrwt beam="1">  1       21 0.16582417E+00 0.67577948E+01</pdfrwt>
<pdfrwt beam="2">  1       21 0.83344349E-05 0.67577948E+01</pdfrwt>
<totfact> 0.49950778E+08</totfact>
</mgrwt>
</event>
<event>
 4    1  0.3931501E+006  0.1587346E+02  0.7546771E-02  0.1842528E+00
         21   -1    0    0  501  502  0.00000000000E+00  0.00000000000E+00  0.21261895284E+01  0.21261895284E+01  0.00000000000E+00 0. -1.
         21   -1    0    0  502  503 -0.00000000000E+00 -0.00000000000E+00 -0.12001716388E+03  0.12001716388E+03  0.00000000000E+00 0.  1.
          5    1    1    2  501    0 -0.38770020217E+01  0.14657613844E+02 -0.52093204319E+02  0.54457953731E+02  0.47000000000E+01 0. -1.
         -5    1    1    2    0  503  0.38770020217E+01 -0.14657613844E+02 -0.65797770029E+02  0.67685399674E+02  0.47000000000E+01 0. -1.
<mgrwt>
<rscale>  2 0.15873462E+02</rscale>
<asrwt>0</asrwt>
<pdfrwt beam="1">  1       21 0.32710609E-03 0.15873462E+02</pdfrwt>
<pdfrwt beam="2">  1       21 0.18464178E-01 0.15873462E+02</pdfrwt>
<totfact> 0.32495765E+08</totfact>
</mgrwt>
</event>
<event>
 4    1  0.3931501E+006  0.5329535E+01  0.7546771E-02  0.2511817E+00
         21   -1    0    0  501  502  0.00000000000E+00  0.00000000000E+00  0.28534203986E+00  0.28534203986E+00  0.00000000000E+00 0.  1.
         21   -1    0    0  502  503 -0.00000000000E+00 -0.00000000000E+00 -0.39022151091E+03  0.39022151091E+03  0.00000000000E+00 0.  1.
          5    1    1    2  501    0 -0.22050156322E+01  0.12049292439E+01 -0.26448979913E+02  0.26980594635E+02  0.47000000000E+01 0.  1.
         -5    1    1    2    0  503  0.22050156322E+01 -0.12049292439E+01 -0.36348718895E+03  0.36352625831E+03  0.47000000000E+01 0.  1.
<mgrwt>
<rscale>  2 0.53295355E+01</rscale>
<asrwt>0</asrwt>
<pdfrwt beam="1">  1       21 0.43898926E-04 0.53295355E+01</pdfrwt>
<pdfrwt beam="2">  1       21 0.60033873E-01 0.53295355E+01</pdfrwt>
<totfact> 0.36365257E+08</totfact>
</mgrwt>
</event>
<event>
 4    1  0.3931501E+006  0.5680569E+01  0.7546771E-02  0.2458949E+00
         21   -1    0    0  503  502  0.00000000000E+00  0.00000000000E+00  0.34516571590E+00  0.34516571590E+00  0.00000000000E+00 0.  1.
         21   -1    0    0  501  503 -0.00000000000E+00 -0.00000000000E+00 -0.10271961382E+03  0.10271961382E+03  0.00000000000E+00 0.  1.
          5    1    1    2  501    0 -0.15496386852E+01 -0.27888147767E+01 -0.66635903236E+02  0.66877593168E+02  0.47000000000E+01 0.  1.
         -5    1    1    2    0  502  0.15496386852E+01  0.27888147767E+01 -0.35738544870E+02  0.36187186369E+02  0.47000000000E+01 0.  1.
<mgrwt>
<rscale>  2 0.56805693E+01</rscale>
<asrwt>0</asrwt>
<pdfrwt beam="1">  1       21 0.53102333E-04 0.56805693E+01</pdfrwt>
<pdfrwt beam="2">  1       21 0.15803043E-01 0.56805693E+01</pdfrwt>
<totfact> 0.28249252E+09</totfact>
</mgrwt>
</event>
<event>
 4    1  0.3931501E+006  0.7759910E+01  0.7546771E-02  0.2230582E+00
         21   -1    0    0  503  502  0.00000000000E+00  0.00000000000E+00  0.12746065977E+02  0.12746065977E+02  0.00000000000E+00 0. -1.
         21   -1    0    0  501  503 -0.00000000000E+00 -0.00000000000E+00 -0.11660198105E+02  0.11660198105E+02  0.00000000000E+00 0.  1.
          5    1    1    2  501    0 -0.20028108854E+01  0.58407999970E+01 -0.88688035408E+01  0.11784391045E+02  0.47000000000E+01 0.  1.
         -5    1    1    2    0  502  0.20028108854E+01 -0.58407999970E+01  0.99546714126E+01  0.12621873038E+02  0.47000000000E+01 0. -1.
<mgrwt>
<rscale>  2 0.77599095E+01</rscale>
<asrwt>0</asrwt>
<pdfrwt beam="1">  1       21 0.19609332E-02 0.77599095E+01</pdfrwt>
<pdfrwt beam="2">  1       21 0.17938766E-02 0.77599095E+01</pdfrwt>
<totfact> 0.63491208E+08</totfact>
</mgrwt>
</event>
<event>
 4    1  0.3931501E+006  0.7518010E+01  0.7546771E-02  0.2251736E+00
         21   -1    0    0  501  502  0.00000000000E+00  0.00000000000E+00  0.89090093593E+02  0.89090093593E+02  0.00000000000E+00 0.  1.
         21   -1    0    0  502  503 -0.00000000000E+00 -0.00000000000E+00 -0.15668718886E+01  0.15668718886E+01  0.00000000000E+00 0. -1.
          5    1    1    2  501    0  0.53738179720E+01 -0.23563856464E+01  0.78729371628E+02  0.79087511213E+02  0.47000000000E+01 0.  1.
         -5    1    1    2    0  503 -0.53738179720E+01  0.23563856464E+01  0.87938500764E+01  0.11569454269E+02  0.47000000000E+01 0. -1.
<mgrwt>
<rscale>  2 0.75180099E+01</rscale>
<asrwt>0</asrwt>
<pdfrwt beam="1">  1       21 0.13706164E-01 0.75180099E+01</pdfrwt>
<pdfrwt beam="2">  1       21 0.24105728E-03 0.75180099E+01</pdfrwt>
<totfact> 0.56283468E+08</totfact>
</mgrwt>
</event>
<event>
 4    1  0.3931501E+006  0.4891610E+01  0.7546771E-02  0.2586749E+00
         21   -1    0    0  503  502  0.00000000000E+00  0.00000000000E+00  0.18581917289E+00  0.18581917289E+00  0.00000000000E+00 0. -1.
         21   -1    0    0  501  503 -0.00000000000E+00 -0.00000000000E+00 -0.22946418543E+03  0.22946418543E+03  0.00000000000E+00 0. -1.
          5    1    1    2  501    0 -0.12245244090E+01  0.58171019527E+00 -0.19070372020E+03  0.19076644554E+03  0.47000000000E+01 0. -1.
         -5    1    1    2    0  502  0.12245244090E+01 -0.58171019527E+00 -0.38574646065E+02  0.38883559068E+02  0.47000000000E+01 0. -1.
<mgrwt>
<rscale>  2 0.48916098E+01</rscale>
<asrwt>0</asrwt>
<pdfrwt beam="1">  1       21 0.28587428E-04 0.48916098E+01</pdfrwt>
<pdfrwt beam="2">  1       21 0.35302352E-01 0.48916098E+01</pdfrwt>
<totfact> 0.15221839E+09</totfact>
</mgrwt>
</event>
<event>
 4    1  0.3931501E+006  0.5613022E+01  0.7546771E-02  0.2468686E+00
         21   -1    0    0  501  502  0.00000000000E+00  0.00000000000E+00  0.26794571927E-01  0.26794571927E-01  0.00000000000E+00 0.  1.
         21   -1    0    0  502  503 -0.00000000000E+00 -0.00000000000E+00 -0.12402516735E+04  0.12402516735E+04  0.00000000000E+00 0.  1.
          5    1    1    2  501    0 -0.83971598025E+00 -0.29514216199E+01 -0.76144144493E+03  0.76146213305E+03  0.47000000000E+01 0.  1.
         -5    1    1    2    0  503  0.83971598025E+00  0.29514216199E+01 -0.47878343400E+03  0.47881633502E+03  0.47000000000E+01 0.  1.
<mgrwt>
<rscale>  2 0.56130217E+01</rscale>
<asrwt>0</asrwt>
<pdfrwt beam="1">  1       21 0.41224252E-05 0.56130217E+01</pdfrwt>
<pdfrwt beam="2">  1       21 0.19079946E+00 0.56130217E+01</pdfrwt>
<totfact> 0.84886996E+08</totfact>
</mgrwt>
</event>
<event>
 4    1  0.3931501E+006  0.4732141E+01  0.7546771E-02  0.2616984E+00
         21   -1    0    0  503  502  0.00000000000E+00  0.00000000000E+00  0.23250194083E+03  0.23250194083E+03  0.00000000000E+00 0. -1.
         21   -1    0    0  501  503 -0.00000000000E+00 -0.00000000000E+00 -0.96316620255E-01  0.96316620255E-01  0.00000000000E+00 0. -1.
          5    1    1    2  501    0 -0.93050997768E-01  0.54268120937E+00  0.11682442669E+03  0.11692022850E+03  0.47000000000E+01 0. -1.
         -5    1    1    2    0  502  0.93050997768E-01 -0.54268120937E+00  0.11558119752E+03  0.11567802895E+03  0.47000000000E+01 0. -1.
<mgrwt>
<rscale>  2 0.47321413E+01</rscale>
<asrwt>0</asrwt>
<pdfrwt beam="1">  1       21 0.35769080E-01 0.47321413E+01</pdfrwt>
<pdfrwt beam="2">  1       21 0.14818128E-04 0.47321413E+01</pdfrwt>
<totfact> 0.34401762E+09</totfact>
</mgrwt>
</event>
<event>
 4    1  0.3931501E+006  0.6848820E+01  0.7546771E-02  0.2316510E+00
         21   -1    0    0  501  502  0.00000000000E+00  0.00000000000E+00  0.17466000246E+02  0.17466000246E+02  0.00000000000E+00 0. -1.
         21   -1    0    0  502  503 -0.00000000000E+00 -0.00000000000E+00 -0.28116422435E+01  0.28116422435E+01  0.00000000000E+00 0.  1.
          5    1    1    2  501    0 -0.25405693323E+01  0.42850719106E+01  0.94740238305E+01  0.11690314853E+02  0.47000000000E+01 0. -1.
         -5    1    1    2    0  503  0.25405693323E+01 -0.42850719106E+01  0.51803341720E+01  0.85873276370E+01  0.47000000000E+01 0.  1.
<mgrwt>
<rscale>  2 0.68488199E+01</rscale>
<asrwt>0</asrwt>
<pdfrwt beam="1">  1       21 0.26870769E-02 0.68488199E+01</pdfrwt>
<pdfrwt beam="2">  1       21 0.43256035E-03 0.68488199E+01</pdfrwt>
<totfact> 0.27705860E+09</totfact>
</mgrwt>
</event>
<event>
 4    1  0.3931501E+006  0.5032041E+01  0.7546771E-02  0.2561501E+00
         21   -1    0    0  503  502  0.00000000000E+00  0.00000000000E+00  0.15663022021E+03  0.15663022021E+03  0.00000000000E+00 0.  1.
         21   -1    0    0  501  503 -0.00000000000E+00 -0.00000000000E+00 -0.16444493212E+00  0.16444493212E+00  0.00000000000E+00 0.  1.
          5    1    1    2  501    0  0.25377545793E+00  0.17796166172E+01  0.88428222729E+02  0.88571282097E+02  0.47000000000E+01 0.  1.
         -5    1    1    2    0  502 -0.25377545793E+00 -0.17796166172E+01  0.68037552548E+02  0.68223383044E+02  0.47000000000E+01 0.  1.
<mgrwt>
<rscale>  2 0.50320411E+01</rscale>
<asrwt>0</asrwt>
<pdfrwt beam="1">  1       21 0.24096838E-01 0.50320411E+01</pdfrwt>
<pdfrwt beam="2">  1       21 0.25299346E-04 0.50320411E+01</pdfrwt>
<totfact> 0.34532231E+09</totfact>
</mgrwt>
</event>
<event>
 4    1  0.3931501E+006  0.1170396E+02  0.7546771E-02  0.1989279E+00
         21   -1    0    0  503  502  0.00000000000E+00  0.00000000000E+00  0.56232255611E+03  0.56232255611E+03  0.00000000000E+00 0. -1.
         21   -1    0    0  501  503 -0.00000000000E+00 -0.00000000000E+00 -0.29140357872E+00  0.29140357872E+00  0.00000000000E+00 0.  1.
          5    1    1    2  501    0 -0.11622474764E+01  0.10655603325E+02  0.16708093578E+03  0.16749036331E+03  0.47000000000E+01 0.  1.
         -5    1    1    2    0  502  0.11622474764E+01 -0.10655603325E+02  0.39495021675E+03  0.39512359638E+03  0.47000000000E+01 0. -1.
<mgrwt>
<rscale>  2 0.11703961E+02</rscale>
<asrwt>0</asrwt>
<pdfrwt beam="1">  1       21 0.86510294E-01 0.11703961E+02</pdfrwt>
<pdfrwt beam="2">  1       21 0.44831770E-04 0.11703961E+02</pdfrwt>
<totfact> 0.26843028E+08</totfact>
</mgrwt>
</event>
<event>
 4    1  0.3931501E+006  0.1115431E+02  0.7546771E-02  0.2014692E+00
         21   -1    0    0  501  502  0.00000000000E+00  0.00000000000E+00  0.39123325249E+02  0.39123325249E+02  0.00000000000E+00 0. -1.
         21   -1    0    0  502  503 -0.00000000000E+00 -0.00000000000E+00 -0.54267066891E+01  0.54267066891E+01  0.00000000000E+00 0. -1.
          5    1    1    2  501    0 -0.17863993145E+01 -0.99567770344E+01  0.31180318747E+02  0.33115417989E+02  0.47000000000E+01 0. -1.
         -5    1    1    2    0  503  0.17863993145E+01  0.99567770344E+01  0.25162998131E+01  0.11434613949E+02  0.47000000000E+01 0. -1.
<mgrwt>
<rscale>  2 0.11154310E+02</rscale>
<asrwt>0</asrwt>
<pdfrwt beam="1">  1       21 0.60189729E-02 0.11154310E+02</pdfrwt>
<pdfrwt beam="2">  1       21 0.83487798E-03 0.11154310E+02</pdfrwt>
<totfact> 0.44143324E+08</totfact>
</mgrwt>
</event>
<event>
 4    1  0.3931501E+006  0.6453505E+01  0.7546771E-02  0.2359889E+00
         21   -1    0    0  503  502  0.00000000000E+00  0.00000000000E+00  0.13709498590E+02  0.13709498590E+02  0.00000000000E+00 0. -1.
         21   -1    0    0  501  503 -0.00000000000E+00 -0.00000000000E+00 -0.32525143158E+01  0.32525143158E+01  0.00000000000E+00 0.  1.
          5    1    1    2  501    0 -0.26718057927E+01 -0.35240858380E+01  0.30498114084E+01  0.71378622020E+01  0.47000000000E+01 0. -1.
         -5    1    1    2    0  502  0.26718057927E+01  0.35240858380E+01  0.74071728654E+01  0.98241507035E+01  0.47000000000E+01 0. -1.
<mgrwt>
<rscale>  2 0.64535050E+01</rscale>
<asrwt>0</asrwt>
<pdfrwt beam="1">  1       21 0.21091536E-02 0.64535050E+01</pdfrwt>
<pdfrwt beam="2">  1       21 0.50038682E-03 0.64535050E+01</pdfrwt>
<totfact> 0.30623178E+09</totfact>
</mgrwt>
</event>
<event>
 4    1  0.3931501E+006  0.6037749E+01  0.7546771E-02  0.2410536E+00
         21   -1    0    0  501  502  0.00000000000E+00  0.00000000000E+00  0.94359714828E+01  0.94359714828E+01  0.00000000000E+00 0. -1.
         21   -1    0    0  502  503 -0.00000000000E+00 -0.00000000000E+00 -0.49933951480E+01  0.49933951480E+01  0.00000000000E+00 0.  1.
          5    1    1    2  501    0  0.11859254560E+01  0.35997217961E+01  0.56534527348E+01  0.82713931125E+01  0.47000000000E+01 0. -1.
         -5    1    1    2    0  503 -0.11859254560E+01 -0.35997217961E+01 -0.12108764000E+01  0.61579735183E+01  0.47000000000E+01 0.  1.
<mgrwt>
<rscale>  2 0.60377493E+01</rscale>
<asrwt>0</asrwt>
<pdfrwt beam="1">  1       21 0.14516879E-02 0.60377493E+01</pdfrwt>
<pdfrwt beam="2">  1       21 0.76821464E-03 0.60377493E+01</pdfrwt>
<totfact> 0.27115854E+09</totfact>
</mgrwt>
</event>
<event>
 4    1  0.3931501E+006  0.1153809E+02  0.7546771E-02  0.1996750E+00
         21   -1    0    0  501  502  0.00000000000E+00  0.00000000000E+00  0.95004277796E+00  0.95004277796E+00  0.00000000000E+00 0.  1.
         21   -1    0    0  502  503 -0.00000000000E+00 -0.00000000000E+00 -0.30546021144E+03  0.30546021144E+03  0.00000000000E+00 0. -1.
          5    1    1    2  501    0  0.91032631300E+01  0.53073691781E+01 -0.39541891965E+02  0.41190882333E+02  0.47000000000E+01 0.  1.
         -5    1    1    2    0  503 -0.91032631300E+01 -0.53073691781E+01 -0.26496827670E+03  0.26521937189E+03  0.47000000000E+01 0. -1.
<mgrwt>
<rscale>  2 0.11538092E+02</rscale>
<asrwt>0</asrwt>
<pdfrwt beam="1">  1       21 0.14616033E-03 0.11538092E+02</pdfrwt>
<pdfrwt beam="2">  1       21 0.46993911E-01 0.11538092E+02</pdfrwt>
<totfact> 0.17122720E+08</totfact>
</mgrwt>
</event>
<event>
 4    1  0.3931501E+006  0.6422651E+01  0.7546771E-02  0.2363460E+00
         21   -1    0    0  501  502  0.00000000000E+00  0.00000000000E+00  0.19014533572E+03  0.19014533572E+03  0.00000000000E+00 0. -1.
         21   -1    0    0  502  503 -0.00000000000E+00 -0.00000000000E+00 -0.57278202964E+00  0.57278202964E+00  0.00000000000E+00 0.  1.
          5    1    1    2  501    0  0.32581930399E+01  0.29231182313E+01  0.16994768036E+03  0.17006899924E+03  0.47000000000E+01 0. -1.
         -5    1    1    2    0  503 -0.32581930399E+01 -0.29231182313E+01  0.19624873333E+02  0.20649118514E+02  0.47000000000E+01 0.  1.
<mgrwt>
<rscale>  2 0.64226507E+01</rscale>
<asrwt>0</asrwt>
<pdfrwt beam="1">  1       21 0.29253078E-01 0.64226507E+01</pdfrwt>
<pdfrwt beam="2">  1       21 0.88120464E-04 0.64226507E+01</pdfrwt>
<totfact> 0.57872487E+08</totfact>
</mgrwt>
</event>
<event>
 4    1  0.3931501E+006  0.6110436E+01  0.7546771E-02  0.2401268E+00
         21   -1    0    0  503  502  0.00000000000E+00  0.00000000000E+00  0.47384820639E+01  0.47384820639E+01  0.00000000000E+00 0. -1.
         21   -1    0    0  501  503 -0.00000000000E+00 -0.00000000000E+00 -0.89811350380E+01  0.89811350380E+01  0.00000000000E+00 0. -1.
          5    1    1    2  501    0 -0.32383417554E+01  0.21818737505E+01 -0.45237076599E+01  0.76027206565E+01  0.47000000000E+01 0. -1.
         -5    1    1    2    0  502  0.32383417554E+01 -0.21818737505E+01  0.28105468578E+00  0.61168964454E+01  0.47000000000E+01 0. -1.
<mgrwt>
<rscale>  2 0.61104362E+01</rscale>
<asrwt>0</asrwt>
<pdfrwt beam="1">  1       21 0.72899724E-03 0.61104362E+01</pdfrwt>
<pdfrwt beam="2">  1       21 0.13817131E-02 0.61104362E+01</pdfrwt>
<totfact> 0.31643912E+09</totfact>
</mgrwt>
</event>
<event>
 4    1  0.3931501E+006  0.7191678E+01  0.7546771E-02  0.2282093E+00
         21   -1    0    0  501  502  0.00000000000E+00  0.00000000000E+00  0.13906401672E+01  0.13906401672E+01  0.00000000000E+00 0. -1.
         21   -1    0    0  502  503 -0.00000000000E+00 -0.00000000000E+00 -0.87210692235E+02  0.87210692235E+02  0.00000000000E+00 0.  1.
          5    1    1    2  501    0  0.36102343726E+01  0.40738725854E+01 -0.93599900925E+01  0.11803797889E+02  0.47000000000E+01 0. -1.
         -5    1    1    2    0  503 -0.36102343726E+01 -0.40738725854E+01 -0.76460061976E+02  0.76797534514E+02  0.47000000000E+01 0.  1.
<mgrwt>
<rscale>  2 0.71916778E+01</rscale>
<asrwt>0</asrwt>
<pdfrwt beam="1">  1       21 0.21394457E-03 0.71916778E+01</pdfrwt>
<pdfrwt beam="2">  1       21 0.13417034E-01 0.71916778E+01</pdfrwt>
<totfact> 0.66673100E+08</totfact>
</mgrwt>
</event>
<event>
 4    1  0.3931501E+006  0.5350141E+01  0.7546771E-02  0.2508551E+00
         21   -1    0    0  501  502  0.00000000000E+00  0.00000000000E+00  0.38682528214E+03  0.38682528214E+03  0.00000000000E+00 0. -1.
         21   -1    0    0  502  503 -0.00000000000E+00 -0.00000000000E+00 -0.11077180171E+00  0.11077180171E+00  0.00000000000E+00 0. -1.
          5    1    1    2  501    0  0.21927856844E+01 -0.13136594137E+01  0.30482988338E+03  0.30487683055E+03  0.47000000000E+01 0. -1.
         -5    1    1    2    0  503 -0.21927856844E+01  0.13136594137E+01  0.81884626967E+02  0.82059223392E+02  0.47000000000E+01 0. -1.
<mgrwt>
<rscale>  2 0.53501411E+01</rscale>
<asrwt>0</asrwt>
<pdfrwt beam="1">  1       21 0.59510501E-01 0.53501411E+01</pdfrwt>
<pdfrwt beam="2">  1       21 0.17042125E-04 0.53501411E+01</pdfrwt>
<totfact> 0.13019659E+09</totfact>
</mgrwt>
</event>
<event>
 4    1  0.3931501E+006  0.7514833E+01  0.7546771E-02  0.2252022E+00
         21   -1    0    0  503  502  0.00000000000E+00  0.00000000000E+00  0.83209383812E+03  0.83209383812E+03  0.00000000000E+00 0. -1.
         21   -1    0    0  501  503 -0.00000000000E+00 -0.00000000000E+00 -0.17050182972E+00  0.17050182972E+00  0.00000000000E+00 0.  1.
          5    1    1    2  501    0 -0.46675154368E+01  0.35492271694E+01  0.93103627978E+02  0.93406414429E+02  0.47000000000E+01 0.  1.
         -5    1    1    2    0  502  0.46675154368E+01 -0.35492271694E+01  0.73881970832E+03  0.73885792552E+03  0.47000000000E+01 0. -1.
<mgrwt>
<rscale>  2 0.75148329E+01</rscale>
<asrwt>0</asrwt>
<pdfrwt beam="1">  1       21 0.12801118E+00 0.75148329E+01</pdfrwt>
<pdfrwt beam="2">  1       21 0.26231717E-04 0.75148329E+01</pdfrwt>
<totfact> 0.19938828E+08</totfact>
</mgrwt>
</event>
<event>
 4    1  0.3931501E+006  0.5440105E+01  0.7546771E-02  0.2494541E+00
         21   -1    0    0  503  502  0.00000000000E+00  0.00000000000E+00  0.78194837148E+02  0.78194837148E+02  0.00000000000E+00 0. -1.
         21   -1    0    0  501  503 -0.00000000000E+00 -0.00000000000E+00 -0.62990628423E+00  0.62990628423E+00  0.00000000000E+00 0. -1.
          5    1    1    2  501    0  0.22370715315E+01  0.15812175972E+01  0.13882150481E+02  0.14910024819E+02  0.47000000000E+01 0.  1.
         -5    1    1    2    0  502 -0.22370715315E+01 -0.15812175972E+01  0.63682780383E+02  0.63914718613E+02  0.47000000000E+01 0.  1.
<mgrwt>
<rscale>  2 0.54401046E+01</rscale>
<asrwt>0</asrwt>
<pdfrwt beam="1">  1       21 0.12029967E-01 0.54401046E+01</pdfrwt>
<pdfrwt beam="2">  1       21 0.96908721E-04 0.54401046E+01</pdfrwt>
<totfact> 0.18654786E+09</totfact>
</mgrwt>
</event>
<event>
 4    1  0.3931501E+006  0.5350740E+01  0.7546771E-02  0.2508457E+00
         21   -1    0    0  501  502  0.00000000000E+00  0.00000000000E+00  0.35709411251E+02  0.35709411251E+02  0.00000000000E+00 0. -1.
         21   -1    0    0  502  503 -0.00000000000E+00 -0.00000000000E+00 -0.19801748423E+01  0.19801748423E+01  0.00000000000E+00 0. -1.
          5    1    1    2  501    0 -0.50136294906E+00 -0.25077991291E+01  0.31402076420E+02  0.31854682933E+02  0.47000000000E+01 0. -1.
         -5    1    1    2    0  503  0.50136294906E+00  0.25077991291E+01  0.23271599890E+01  0.58349031606E+01  0.47000000000E+01 0. -1.
<mgrwt>
<rscale>  2 0.53507403E+01</rscale>
<asrwt>0</asrwt>
<pdfrwt beam="1">  1       21 0.54937551E-02 0.53507403E+01</pdfrwt>
<pdfrwt beam="2">  1       21 0.30464231E-03 0.53507403E+01</pdfrwt>
<totfact> 0.12768999E+09</totfact>
</mgrwt>
</event>
<event>
 4    1  0.3931501E+006  0.6777567E+01  0.7546771E-02  0.2324020E+00
         21   -1    0    0  503  502  0.00000000000E+00  0.00000000000E+00  0.48242217802E+01  0.48242217802E+01  0.00000000000E+00 0. -1.
         21   -1    0    0  501  503 -0.00000000000E+00 -0.00000000000E+00 -0.22303307104E+02  0.22303307104E+02  0.00000000000E+00 0.  1.
          5    1    1    2  501    0  0.19247898239E+01  0.44878280993E+01 -0.19007549273E+02  0.20179750897E+02  0.47000000000E+01 0.  1.
         -5    1    1    2    0  502 -0.19247898239E+01 -0.44878280993E+01  0.15284639490E+01  0.69477779871E+01  0.47000000000E+01 0. -1.
<mgrwt>
<rscale>  2 0.67775672E+01</rscale>
<asrwt>0</asrwt>
<pdfrwt beam="1">  1       21 0.74218794E-03 0.67775672E+01</pdfrwt>
<pdfrwt beam="2">  1       21 0.34312781E-02 0.67775672E+01</pdfrwt>
<totfact> 0.90013529E+08</totfact>
</mgrwt>
</event>
<event>
 4    1  0.3931501E+006  0.5628857E+01  0.7546771E-02  0.2466386E+00
         21   -1    0    0  501  502  0.00000000000E+00  0.00000000000E+00  0.97729145651E+01  0.97729145651E+01  0.00000000000E+00 0.  1.
         21   -1    0    0  502  503 -0.00000000000E+00 -0.00000000000E+00 -0.69190306020E+02  0.69190306020E+02  0.00000000000E+00 0.  1.
          5    1    1    2  501    0 -0.21413830354E+01  0.22379710116E+01  0.88368297765E+01  0.10477289537E+02  0.47000000000E+01 0.  1.
         -5    1    1    2    0  503  0.21413830354E+01 -0.22379710116E+01 -0.68254221231E+02  0.68485931047E+02  0.47000000000E+01 0.  1.
<mgrwt>
<rscale>  2 0.56288574E+01</rscale>
<asrwt>0</asrwt>
<pdfrwt beam="1">  1       21 0.15035253E-02 0.56288574E+01</pdfrwt>
<pdfrwt beam="2">  1       21 0.10644662E-01 0.56288574E+01</pdfrwt>
<totfact> 0.53316515E+07</totfact>
</mgrwt>
</event>
<event>
 4    1  0.3931501E+006  0.4938242E+01  0.7546771E-02  0.2578228E+00
         21   -1    0    0  503  502  0.00000000000E+00  0.00000000000E+00  0.15719319591E+02  0.15719319591E+02  0.00000000000E+00 0.  1.
         21   -1    0    0  501  503 -0.00000000000E+00 -0.00000000000E+00 -0.21867148188E+01  0.21867148188E+01  0.00000000000E+00 0.  1.
          5    1    1    2  501    0 -0.87778450121E+00 -0.12352028716E+01  0.19403447335E+01  0.53057675646E+01  0.47000000000E+01 0.  1.
         -5    1    1    2    0  502  0.87778450121E+00  0.12352028716E+01  0.11592260039E+02  0.12600266846E+02  0.47000000000E+01 0.  1.
<mgrwt>
<rscale>  2 0.49382418E+01</rscale>
<asrwt>0</asrwt>
<pdfrwt beam="1">  1       21 0.24183568E-02 0.49382418E+01</pdfrwt>
<pdfrwt beam="2">  1       21 0.33641767E-03 0.49382418E+01</pdfrwt>
<totfact> 0.33841422E+09</totfact>
</mgrwt>
</event>
<event>
 4    1  0.3931501E+006  0.6255015E+01  0.7546771E-02  0.2383369E+00
         21   -1    0    0  503  502  0.00000000000E+00  0.00000000000E+00  0.20198714679E+02  0.20198714679E+02  0.00000000000E+00 0.  1.
         21   -1    0    0  501  503 -0.00000000000E+00 -0.00000000000E+00 -0.19374514435E+01  0.19374514435E+01  0.00000000000E+00 0. -1.
          5    1    1    2  501    0 -0.30758694785E+01  0.27521334247E+01  0.92967689598E+01  0.11205138309E+02  0.47000000000E+01 0. -1.
         -5    1    1    2    0  502  0.30758694785E+01 -0.27521334247E+01  0.89644942760E+01  0.10931027814E+02  0.47000000000E+01 0.  1.
<mgrwt>
<rscale>  2 0.62550149E+01</rscale>
<asrwt>0</asrwt>
<pdfrwt beam="1">  1       21 0.31074944E-02 0.62550149E+01</pdfrwt>
<pdfrwt beam="2">  1       21 0.29806947E-03 0.62550149E+01</pdfrwt>
<totfact> 0.34807978E+09</totfact>
</mgrwt>
</event>
<event>
 4    1  0.3931501E+006  0.5911060E+01  0.7546771E-02  0.2427145E+00
         21   -1    0    0  503  502  0.00000000000E+00  0.00000000000E+00  0.62523551542E+03  0.62523551542E+03  0.00000000000E+00 0. -1.
         21   -1    0    0  501  503 -0.00000000000E+00 -0.00000000000E+00 -0.82369257659E-01  0.82369257659E-01  0.00000000000E+00 0.  1.
          5    1    1    2  501    0 -0.35844640200E+01 -0.47419321967E-01  0.13528390272E+03  0.13541297931E+03  0.47000000000E+01 0.  1.
         -5    1    1    2    0  502  0.35844640200E+01  0.47419321967E-01  0.48986924344E+03  0.48990490537E+03  0.47000000000E+01 0. -1.
<mgrwt>
<rscale>  2 0.59110600E+01</rscale>
<asrwt>0</asrwt>
<pdfrwt beam="1">  1       21 0.96186279E-01 0.59110600E+01</pdfrwt>
<pdfrwt beam="2">  1       21 0.12672694E-04 0.59110600E+01</pdfrwt>
<totfact> 0.82760578E+08</totfact>
</mgrwt>
</event>
<event>
 4    1  0.3931501E+006  0.5532521E+01  0.7546771E-02  0.2480552E+00
         21   -1    0    0  503  502  0.00000000000E+00  0.00000000000E+00  0.71676714373E+01  0.71676714373E+01  0.00000000000E+00 0. -1.
         21   -1    0    0  501  503 -0.00000000000E+00 -0.00000000000E+00 -0.54026374054E+01  0.54026374054E+01  0.00000000000E+00 0.  1.
          5    1    1    2  501    0 -0.29162939495E+01 -0.11837838409E+00 -0.19947678966E+01  0.58811463851E+01  0.47000000000E+01 0.  1.
         -5    1    1    2    0  502  0.29162939495E+01  0.11837838409E+00  0.37598019285E+01  0.66891624576E+01  0.47000000000E+01 0. -1.
<mgrwt>
<rscale>  2 0.55325206E+01</rscale>
<asrwt>0</asrwt>
<pdfrwt beam="1">  1       21 0.11027187E-02 0.55325206E+01</pdfrwt>
<pdfrwt beam="2">  1       21 0.83117499E-03 0.55325206E+01</pdfrwt>
<totfact> 0.33108063E+09</totfact>
</mgrwt>
</event>
<event>
 4    1  0.3931501E+006  0.4730700E+01  0.7546771E-02  0.2617266E+00
         21   -1    0    0  501  502  0.00000000000E+00  0.00000000000E+00  0.18479062394E+02  0.18479062394E+02  0.00000000000E+00 0. -1.
         21   -1    0    0  502  503 -0.00000000000E+00 -0.00000000000E+00 -0.39993105583E+01  0.39993105583E+01  0.00000000000E+00 0. -1.
          5    1    1    2  501    0 -0.53687751808E+00 -0.35782944141E-01  0.16624288560E+02  0.17284284423E+02  0.47000000000E+01 0. -1.
         -5    1    1    2    0  503  0.53687751808E+00  0.35782944141E-01 -0.21445367243E+01  0.51940885293E+01  0.47000000000E+01 0. -1.
<mgrwt>
<rscale>  2 0.47306995E+01</rscale>
<asrwt>0</asrwt>
<pdfrwt beam="1">  1       21 0.28429326E-02 0.47306995E+01</pdfrwt>
<pdfrwt beam="2">  1       21 0.61527856E-03 0.47306995E+01</pdfrwt>
<totfact> 0.11268125E+09</totfact>
</mgrwt>
</event>
<event>
 4    1  0.3931501E+006  0.5291535E+01  0.7546771E-02  0.2517897E+00
         21   -1    0    0  501  502  0.00000000000E+00  0.00000000000E+00  0.56811513817E+00  0.56811513817E+00  0.00000000000E+00 0.  1.
         21   -1    0    0  502  503 -0.00000000000E+00 -0.00000000000E+00 -0.16761293052E+03  0.16761293052E+03  0.00000000000E+00 0.  1.
          5    1    1    2  501    0 -0.41710727910E+00 -0.23950717657E+01 -0.12868796006E+02  0.13914246580E+02  0.47000000000E+01 0.  1.
         -5    1    1    2    0  503  0.41710727910E+00  0.23950717657E+01 -0.15417601938E+03  0.15426679908E+03  0.47000000000E+01 0.  1.
<mgrwt>
<rscale>  2 0.52915354E+01</rscale>
<asrwt>0</asrwt>
<pdfrwt beam="1">  1       21 0.87402472E-04 0.52915354E+01</pdfrwt>
<pdfrwt beam="2">  1       21 0.25786562E-01 0.52915354E+01</pdfrwt>
<totfact> 0.62389668E+08</totfact>
</mgrwt>
</event>
<event>
 4    1  0.3931501E+006  0.8419400E+01  0.7546771E-02  0.2177953E+00
         21   -1    0    0  501  502  0.00000000000E+00  0.00000000000E+00  0.21456581631E+01  0.21456581631E+01  0.00000000000E+00 0.  1.
         21   -1    0    0  502  503 -0.00000000000E+00 -0.00000000000E+00 -0.10352779989E+03  0.10352779989E+03  0.00000000000E+00 0. -1.
          5    1    1    2  501    0  0.69114444762E+01 -0.10140174493E+01 -0.70923867417E+01  0.11008553303E+02  0.47000000000E+01 0.  1.
         -5    1    1    2    0  503 -0.69114444762E+01  0.10140174493E+01 -0.94289754984E+02  0.94664904749E+02  0.47000000000E+01 0. -1.
<mgrwt>
<rscale>  2 0.84194000E+01</rscale>
<asrwt>0</asrwt>
<pdfrwt beam="1">  1       21 0.33010127E-03 0.84194000E+01</pdfrwt>
<pdfrwt beam="2">  1       21 0.15927353E-01 0.84194000E+01</pdfrwt>
<totfact> 0.30538660E+08</totfact>
</mgrwt>
</event>
<event>
 4    1  0.3931501E+006  0.5511862E+01  0.7546771E-02  0.2483644E+00
         21   -1    0    0  501  502  0.00000000000E+00  0.00000000000E+00  0.43101193783E+03  0.43101193783E+03  0.00000000000E+00 0.  1.
         21   -1    0    0  502  503 -0.00000000000E+00 -0.00000000000E+00 -0.70530614064E-01  0.70530614064E-01  0.00000000000E+00 0.  1.
          5    1    1    2  501    0 -0.22666554886E+01  0.17756399879E+01  0.22084680695E+03  0.22091557837E+03  0.47000000000E+01 0.  1.
         -5    1    1    2    0  503  0.22666554886E+01 -0.17756399879E+01  0.21009460027E+03  0.21016689008E+03  0.47000000000E+01 0.  1.
<mgrwt>
<rscale>  2 0.55118622E+01</rscale>
<asrwt>0</asrwt>
<pdfrwt beam="1">  1       21 0.66307420E-01 0.55118622E+01</pdfrwt>
<pdfrwt beam="2">  1       21 0.10851209E-04 0.55118622E+01</pdfrwt>
<totfact> 0.19857748E+09</totfact>
</mgrwt>
</event>
<event>
 4    1  0.3931501E+006  0.5457453E+01  0.7546771E-02  0.2491884E+00
         21   -1    0    0  503  502  0.00000000000E+00  0.00000000000E+00  0.26839488727E+01  0.26839488727E+01  0.00000000000E+00 0. -1.
         21   -1    0    0  501  503 -0.00000000000E+00 -0.00000000000E+00 -0.45863628173E+02  0.45863628173E+02  0.00000000000E+00 0. -1.
          5    1    1    2  501    0 -0.27023053813E+01  0.62556833684E+00 -0.42723981811E+02  0.43071132002E+02  0.47000000000E+01 0. -1.
         -5    1    1    2    0  502  0.27023053813E+01 -0.62556833684E+00 -0.45569748929E+00  0.54764450440E+01  0.47000000000E+01 0. -1.
<mgrwt>
<rscale>  2 0.54574527E+01</rscale>
<asrwt>0</asrwt>
<pdfrwt beam="1">  1       21 0.41291522E-03 0.54574527E+01</pdfrwt>
<pdfrwt beam="2">  1       21 0.70559426E-02 0.54574527E+01</pdfrwt>
<totfact> 0.59067422E+08</totfact>
</mgrwt>
</event>
<event>
 4    1  0.3931501E+006  0.5744792E+01  0.7546771E-02  0.2449872E+00
         21   -1    0    0  503  502  0.00000000000E+00  0.00000000000E+00  0.27875769711E+02  0.27875769711E+02  0.00000000000E+00 0. -1.
         21   -1    0    0  501  503 -0.00000000000E+00 -0.00000000000E+00 -0.11848518531E+01  0.11848518531E+01  0.00000000000E+00 0.  1.
          5    1    1    2  501    0 -0.85428165413E+00  0.31910554135E+01  0.12937581350E+02  0.14155692953E+02  0.47000000000E+01 0.  1.
         -5    1    1    2    0  502  0.85428165413E+00 -0.31910554135E+01  0.13753336508E+02  0.14904928611E+02  0.47000000000E+01 0. -1.
<mgrwt>
<rscale>  2 0.57447917E+01</rscale>
<asrwt>0</asrwt>
<pdfrwt beam="1">  1       21 0.42885795E-02 0.57447917E+01</pdfrwt>
<pdfrwt beam="2">  1       21 0.18228492E-03 0.57447917E+01</pdfrwt>
<totfact> 0.39402712E+09</totfact>
</mgrwt>
</event>
<event>
 4    1  0.3931501E+006  0.5864084E+01  0.7546771E-02  0.2433456E+00
         21   -1    0    0  503  502  0.00000000000E+00  0.00000000000E+00  0.86796855710E+02  0.86796855710E+02  0.00000000000E+00 0. -1.
         21   -1    0    0  501  503 -0.00000000000E+00 -0.00000000000E+00 -0.31802503582E+01  0.31802503582E+01  0.00000000000E+00 0.  1.
          5    1    1    2  501    0  0.30646831542E+01  0.17044646037E+01 -0.28482532662E+00  0.58709971800E+01  0.47000000000E+01 0.  1.
         -5    1    1    2    0  502 -0.30646831542E+01 -0.17044646037E+01  0.83901430678E+02  0.84106108888E+02  0.47000000000E+01 0. -1.
<mgrwt>
<rscale>  2 0.58640841E+01</rscale>
<asrwt>0</asrwt>
<pdfrwt beam="1">  1       21 0.13353361E-01 0.58640841E+01</pdfrwt>
<pdfrwt beam="2">  1       21 0.48926935E-03 0.58640841E+01</pdfrwt>
<totfact> 0.18628255E+08</totfact>
</mgrwt>
</event>
<event>
 4    1  0.3931501E+006  0.5073206E+01  0.7546771E-02  0.2554329E+00
         21   -1    0    0  503  502  0.00000000000E+00  0.00000000000E+00  0.11240527934E+00  0.11240527934E+00  0.00000000000E+00 0. -1.
         21   -1    0    0  501  503 -0.00000000000E+00 -0.00000000000E+00 -0.24547581549E+03  0.24547581549E+03  0.00000000000E+00 0. -1.
          5    1    1    2  501    0 -0.16775854444E+01 -0.91275593912E+00 -0.90840164552E+02  0.90981717461E+02  0.47000000000E+01 0. -1.
         -5    1    1    2    0  502  0.16775854444E+01  0.91275593912E+00 -0.15452324566E+03  0.15460650331E+03  0.47000000000E+01 0. -1.
<mgrwt>
<rscale>  2 0.50732057E+01</rscale>
<asrwt>0</asrwt>
<pdfrwt beam="1">  1       21 0.17293257E-04 0.50732057E+01</pdfrwt>
<pdfrwt beam="2">  1       21 0.37765211E-01 0.50732057E+01</pdfrwt>
<totfact> 0.27288540E+09</totfact>
</mgrwt>
</event>
<event>
 4    1  0.3931501E+006  0.7176673E+01  0.7546771E-02  0.2283543E+00
         21   -1    0    0  501  502  0.00000000000E+00  0.00000000000E+00  0.15666983361E+01  0.15666983361E+01  0.00000000000E+00 0. -1.
         21   -1    0    0  502  503 -0.00000000000E+00 -0.00000000000E+00 -0.35073617705E+02  0.35073617705E+02  0.00000000000E+00 0. -1.
          5    1    1    2  501    0 -0.23254635998E+01 -0.48996792082E+01 -0.12166237714E+02  0.14125224862E+02  0.47000000000E+01 0. -1.
         -5    1    1    2    0  503  0.23254635998E+01  0.48996792082E+01 -0.21340681655E+02  0.22515091179E+02  0.47000000000E+01 0. -1.
<mgrwt>
<rscale>  2 0.71766731E+01</rscale>
<asrwt>0</asrwt>
<pdfrwt beam="1">  1       21 0.24103054E-03 0.71766731E+01</pdfrwt>
<pdfrwt beam="2">  1       21 0.53959406E-02 0.71766731E+01</pdfrwt>
<totfact> 0.23012897E+09</totfact>
</mgrwt>
</event>
<event>
 4    1  0.3931501E+006  0.7951795E+01  0.7546771E-02  0.2214545E+00
         21   -1    0    0  501  502  0.00000000000E+00  0.00000000000E+00  0.46148872925E+02  0.46148872925E+02  0.00000000000E+00 0. -1.
         21   -1    0    0  502  503 -0.00000000000E+00 -0.00000000000E+00 -0.13701668355E+01  0.13701668355E+01  0.00000000000E+00 0. -1.
          5    1    1    2  501    0  0.47581289220E+01 -0.43013080402E+01  0.22315346248E+02  0.23689780917E+02  0.47000000000E+01 0. -1.
         -5    1    1    2    0  503 -0.47581289220E+01  0.43013080402E+01  0.22463359841E+02  0.23829258844E+02  0.47000000000E+01 0. -1.
<mgrwt>
<rscale>  2 0.79517949E+01</rscale>
<asrwt>0</asrwt>
<pdfrwt beam="1">  1       21 0.70998254E-02 0.79517949E+01</pdfrwt>
<pdfrwt beam="2">  1       21 0.21079493E-03 0.79517949E+01</pdfrwt>
<totfact> 0.19670178E+09</totfact>
</mgrwt>
</event>
<event>
 4    1  0.3931501E+006  0.1317002E+02  0.7546771E-02  0.1929656E+00
         21   -1    0    0  503  502  0.00000000000E+00  0.00000000000E+00  0.33746223337E+01  0.33746223337E+01  0.00000000000E+00 0. -1.
         21   -1    0    0  501  503 -0.00000000000E+00 -0.00000000000E+00 -0.51788402443E+02  0.51788402443E+02  0.00000000000E+00 0.  1.
          5    1    1    2  501    0  0.74724150100E+01  0.97735582376E+01 -0.26601094019E+02  0.29682783389E+02  0.47000000000E+01 0.  1.
         -5    1    1    2    0  502 -0.74724150100E+01 -0.97735582376E+01 -0.21812686091E+02  0.25480241388E+02  0.47000000000E+01 0. -1.
<mgrwt>
<rscale>  2 0.13170020E+02</rscale>
<asrwt>0</asrwt>
<pdfrwt beam="1">  1       21 0.51917268E-03 0.13170020E+02</pdfrwt>
<pdfrwt beam="2">  1       21 0.79674464E-02 0.13170020E+02</pdfrwt>
<totfact> 0.61277289E+08</totfact>
</mgrwt>
</event>
<event>
 4    1  0.3931501E+006  0.4810159E+01  0.7546771E-02  0.2601975E+00
         21   -1    0    0  501  502  0.00000000000E+00  0.00000000000E+00  0.80306583284E+02  0.80306583284E+02  0.00000000000E+00 0. -1.
         21   -1    0    0  502  503 -0.00000000000E+00 -0.00000000000E+00 -0.33840446422E+00  0.33840446422E+00  0.00000000000E+00 0. -1.
          5    1    1    2  501    0 -0.82113594251E+00 -0.61103394766E+00  0.24440092066E+02  0.24908948731E+02  0.47000000000E+01 0. -1.
         -5    1    1    2    0  503  0.82113594251E+00  0.61103394766E+00  0.55528086754E+02  0.55736039016E+02  0.47000000000E+01 0. -1.
<mgrwt>
<rscale>  2 0.48101587E+01</rscale>
<asrwt>0</asrwt>
<pdfrwt beam="1">  1       21 0.12354844E-01 0.48101587E+01</pdfrwt>
<pdfrwt beam="2">  1       21 0.52062289E-04 0.48101587E+01</pdfrwt>
<totfact> 0.36290679E+09</totfact>
</mgrwt>
</event>
<event>
 4    1  0.3931501E+006  0.5785790E+01  0.7546771E-02  0.2444166E+00
         21   -1    0    0  501  502  0.00000000000E+00  0.00000000000E+00  0.41621715638E+02  0.41621715638E+02  0.00000000000E+00 0. -1.
         21   -1    0    0  502  503 -0.00000000000E+00 -0.00000000000E+00 -0.16002804818E+01  0.16002804818E+01  0.00000000000E+00 0. -1.
          5    1    1    2  501    0 -0.18813724533E+01  0.28010365637E+01  0.35252451926E+02  0.35724091800E+02  0.47000000000E+01 0. -1.
         -5    1    1    2    0  503  0.18813724533E+01 -0.28010365637E+01  0.47689832303E+01  0.74979043199E+01  0.47000000000E+01 0. -1.
<mgrwt>
<rscale>  2 0.57857902E+01</rscale>
<asrwt>0</asrwt>
<pdfrwt beam="1">  1       21 0.64033401E-02 0.57857902E+01</pdfrwt>
<pdfrwt beam="2">  1       21 0.24619703E-03 0.57857902E+01</pdfrwt>
<totfact> 0.14552225E+09</totfact>
</mgrwt>
</event>
<event>
 4    1  0.3931501E+006  0.8050859E+01  0.7546771E-02  0.2206508E+00
         21   -1    0    0  501  502  0.00000000000E+00  0.00000000000E+00  0.32039034890E+02  0.32039034890E+02  0.00000000000E+00 0.  1.
         21   -1    0    0  502  503 -0.00000000000E+00 -0.00000000000E+00 -0.70076806717E+01  0.70076806717E+01  0.00000000000E+00 0.  1.
          5    1    1    2  501    0 -0.19761599960E+01 -0.62306603593E+01  0.28981527706E+02  0.30078984109E+02  0.47000000000E+01 0.  1.
         -5    1    1    2    0  503  0.19761599960E+01  0.62306603593E+01 -0.39501734872E+01  0.89677314535E+01  0.47000000000E+01 0.  1.
<mgrwt>
<rscale>  2 0.80508594E+01</rscale>
<asrwt>0</asrwt>
<pdfrwt beam="1">  1       21 0.49290822E-02 0.80508594E+01</pdfrwt>
<pdfrwt beam="2">  1       21 0.10781047E-02 0.80508594E+01</pdfrwt>
<totfact> 0.34600212E+08</totfact>
</mgrwt>
</event>
<event>
 4    1  0.3931501E+006  0.4933086E+01  0.7546771E-02  0.2579163E+00
         21   -1    0    0  503  502  0.00000000000E+00  0.00000000000E+00  0.95019027359E+01  0.95019027359E+01  0.00000000000E+00 0.  1.
         21   -1    0    0  501  503 -0.00000000000E+00 -0.00000000000E+00 -0.26831051578E+01  0.26831051578E+01  0.00000000000E+00 0.  1.
          5    1    1    2  501    0 -0.13455134954E+01 -0.65949159201E+00  0.21102356139E+01  0.53654850734E+01  0.47000000000E+01 0.  1.
         -5    1    1    2    0  502  0.13455134954E+01  0.65949159201E+00  0.47085619641E+01  0.68195228203E+01  0.47000000000E+01 0.  1.
<mgrwt>
<rscale>  2 0.49330858E+01</rscale>
<asrwt>0</asrwt>
<pdfrwt beam="1">  1       21 0.14618312E-02 0.49330858E+01</pdfrwt>
<pdfrwt beam="2">  1       21 0.41278541E-03 0.49330858E+01</pdfrwt>
<totfact> 0.52132284E+09</totfact>
</mgrwt>
</event>
<event>
 4    1  0.3931501E+006  0.5286316E+01  0.7546771E-02  0.2518737E+00
         21   -1    0    0  503  502  0.00000000000E+00  0.00000000000E+00  0.41036497573E+01  0.41036497573E+01  0.00000000000E+00 0. -1.
         21   -1    0    0  501  503 -0.00000000000E+00 -0.00000000000E+00 -0.10629642940E+02  0.10629642940E+02  0.00000000000E+00 0. -1.
          5    1    1    2  501    0  0.22874256691E+01  0.78918803540E+00 -0.76790249457E+01  0.93226904949E+01  0.47000000000E+01 0. -1.
         -5    1    1    2    0  502 -0.22874256691E+01 -0.78918803540E+00  0.11530317630E+01  0.54106022025E+01  0.47000000000E+01 0. -1.
<mgrwt>
<rscale>  2 0.52863157E+01</rscale>
<asrwt>0</asrwt>
<pdfrwt beam="1">  1       21 0.63133074E-03 0.52863157E+01</pdfrwt>
<pdfrwt beam="2">  1       21 0.16353297E-02 0.52863157E+01</pdfrwt>
<totfact> 0.26636095E+09</totfact>
</mgrwt>
</event>
<event>
 4    1  0.3931501E+006  0.4999357E+01  0.7546771E-02  0.2567268E+00
         21   -1    0    0  503  502  0.00000000000E+00  0.00000000000E+00  0.48336639119E-01  0.48336639119E-01  0.00000000000E+00 0.  1.
         21   -1    0    0  501  503 -0.00000000000E+00 -0.00000000000E+00 -0.52632484796E+03  0.52632484796E+03  0.00000000000E+00 0.  1.
          5    1    1    2  501    0  0.29626589947E+00  0.16780348912E+01 -0.22824437035E+03  0.22829911557E+03  0.47000000000E+01 0.  1.
         -5    1    1    2    0  502 -0.29626589947E+00 -0.16780348912E+01 -0.29803214096E+03  0.29807406902E+03  0.47000000000E+01 0.  1.
<mgrwt>
<rscale>  2 0.49993574E+01</rscale>
<asrwt>0</asrwt>
<pdfrwt beam="1">  1       21 0.74366713E-05 0.49993574E+01</pdfrwt>
<pdfrwt beam="2">  1       21 0.80970165E-01 0.49993574E+01</pdfrwt>
<totfact> 0.20774507E+09</totfact>
</mgrwt>
</event>
<event>
 4    1  0.3931501E+006  0.5111808E+01  0.7546771E-02  0.2547693E+00
         21   -1    0    0  501  502  0.00000000000E+00  0.00000000000E+00  0.10463035834E+04  0.10463035834E+04  0.00000000000E+00 0. -1.
         21   -1    0    0  502  503 -0.00000000000E+00 -0.00000000000E+00 -0.35571195240E-01  0.35571195240E-01  0.00000000000E+00 0. -1.
          5    1    1    2  501    0 -0.13276354970E+00  0.20057306247E+01  0.80868579515E+03  0.80870195119E+03  0.47000000000E+01 0. -1.
         -5    1    1    2    0  503  0.13276354970E+00 -0.20057306247E+01  0.23758221706E+03  0.23763720341E+03  0.47000000000E+01 0. -1.
<mgrwt>
<rscale>  2 0.51118080E+01</rscale>
<asrwt>0</asrwt>
<pdfrwt beam="1">  1       21 0.16094514E+00 0.51118080E+01</pdfrwt>
<pdfrwt beam="2">  1       21 0.54733296E-05 0.51118080E+01</pdfrwt>
<totfact> 0.78607346E+08</totfact>
</mgrwt>
</event>
<event>
 4    1  0.3931501E+006  0.1444302E+02  0.7546771E-02  0.1885557E+00
         21   -1    0    0  501  502  0.00000000000E+00  0.00000000000E+00  0.74174643348E+01  0.74174643348E+01  0.00000000000E+00 0.  1.
         21   -1    0    0  502  503 -0.00000000000E+00 -0.00000000000E+00 -0.13551870021E+03  0.13551870021E+03  0.00000000000E+00 0. -1.
          5    1    1    2  501    0 -0.13435653505E+02 -0.24482476580E+01 -0.42879063973E+00  0.14449379333E+02  0.47000000000E+01 0.  1.
         -5    1    1    2    0  503  0.13435653505E+02  0.24482476580E+01 -0.12767244524E+03  0.12848678522E+03  0.47000000000E+01 0. -1.
<mgrwt>
<rscale>  2 0.14443016E+02</rscale>
<asrwt>0</asrwt>
<pdfrwt beam="1">  1       21 0.11411484E-02 0.14443016E+02</pdfrwt>
<pdfrwt beam="2">  1       21 0.20849030E-01 0.14443016E+02</pdfrwt>
<totfact> 0.41214768E+07</totfact>
</mgrwt>
</event>
<event>
 4    1  0.3931501E+006  0.6101265E+01  0.7546771E-02  0.2402427E+00
         21   -1    0    0  503  502  0.00000000000E+00  0.00000000000E+00  0.32303104529E+03  0.32303104529E+03  0.00000000000E+00 0. -1.
         21   -1    0    0  501  503 -0.00000000000E+00 -0.00000000000E+00 -0.51746761075E+00  0.51746761075E+00  0.00000000000E+00 0. -1.
          5    1    1    2  501    0 -0.15532940968E+01 -0.35668907070E+01  0.18628760431E+02  0.19602452577E+02  0.47000000000E+01 0. -1.
         -5    1    1    2    0  502  0.15532940968E+01  0.35668907070E+01  0.30388481724E+03  0.30394606032E+03  0.47000000000E+01 0. -1.
<mgrwt>
<rscale>  2 0.61012648E+01</rscale>
<asrwt>0</asrwt>
<pdfrwt beam="1">  1       21 0.49696923E-01 0.61012648E+01</pdfrwt>
<pdfrwt beam="2">  1       21 0.79610660E-04 0.61012648E+01</pdfrwt>
<totfact> 0.25463378E+08</totfact>
</mgrwt>
</event>
<event>
 4    1  0.3931501E+006  0.5481094E+01  0.7546771E-02  0.2488287E+00
         21   -1    0    0  501  502  0.00000000000E+00  0.00000000000E+00  0.70307359112E+00  0.70307359112E+00  0.00000000000E+00 0. -1.
         21   -1    0    0  502  503 -0.00000000000E+00 -0.00000000000E+00 -0.42915598219E+02  0.42915598219E+02  0.00000000000E+00 0. -1.
          5    1    1    2  501    0  0.27349179717E+01  0.68747064587E+00 -0.22540185206E+02  0.23197033029E+02  0.47000000000E+01 0. -1.
         -5    1    1    2    0  503 -0.27349179717E+01 -0.68747064587E+00 -0.19672339421E+02  0.20421638781E+02  0.47000000000E+01 0. -1.
<mgrwt>
<rscale>  2 0.54810941E+01</rscale>
<asrwt>0</asrwt>
<pdfrwt beam="1">  1       21 0.10816517E-03 0.54810941E+01</pdfrwt>
<pdfrwt beam="2">  1       21 0.66023998E-02 0.54810941E+01</pdfrwt>
<totfact> 0.40230660E+09</totfact>
</mgrwt>
</event>
<event>
 4    1  0.3931501E+006  0.6717791E+01  0.7546771E-02  0.2330421E+00
         21   -1    0    0  503  502  0.00000000000E+00  0.00000000000E+00  0.12035237652E+02  0.12035237652E+02  0.00000000000E+00 0. -1.
         21   -1    0    0  501  503 -0.00000000000E+00 -0.00000000000E+00 -0.63010221194E+01  0.63010221194E+01  0.00000000000E+00 0. -1.
          5    1    1    2  501    0  0.45034005222E+01  0.16607521245E+01 -0.29667603424E+01  0.73437307148E+01  0.47000000000E+01 0. -1.
         -5    1    1    2    0  502 -0.45034005222E+01 -0.16607521245E+01  0.87009758748E+01  0.10992529056E+02  0.47000000000E+01 0. -1.
<mgrwt>
<rscale>  2 0.67177908E+01</rscale>
<asrwt>0</asrwt>
<pdfrwt beam="1">  1       21 0.18515750E-02 0.67177908E+01</pdfrwt>
<pdfrwt beam="2">  1       21 0.96938802E-03 0.67177908E+01</pdfrwt>
<totfact> 0.15056759E+09</totfact>
</mgrwt>
</event>
<event>
 4    1  0.3931501E+006  0.4822693E+01  0.7546771E-02  0.2599603E+00
         21   -1    0    0  503  502  0.00000000000E+00  0.00000000000E+00  0.14906142889E+03  0.14906142889E+03  0.00000000000E+00 0. -1.
         21   -1    0    0  501  503 -0.00000000000E+00 -0.00000000000E+00 -0.15638294581E+00  0.15638294581E+00  0.00000000000E+00 0. -1.
          5    1    1    2  501    0 -0.87445212898E+00 -0.63537367374E+00  0.77986474186E+02  0.78135449843E+02  0.47000000000E+01 0.  1.
         -5    1    1    2    0  502  0.87445212898E+00  0.63537367374E+00  0.70918571756E+02  0.71082361991E+02  0.47000000000E+01 0.  1.
<mgrwt>
<rscale>  2 0.48226928E+01</rscale>
<asrwt>0</asrwt>
<pdfrwt beam="1">  1       21 0.22932414E-01 0.48226928E+01</pdfrwt>
<pdfrwt beam="2">  1       21 0.24059034E-04 0.48226928E+01</pdfrwt>
<totfact> 0.38368403E+09</totfact>
</mgrwt>
</event>
<event>
 4    1  0.3931501E+006  0.4868174E+01  0.7546771E-02  0.2591085E+00
         21   -1    0    0  501  502  0.00000000000E+00  0.00000000000E+00  0.26476832216E+04  0.26476832216E+04  0.00000000000E+00 0. -1.
         21   -1    0    0  502  503 -0.00000000000E+00 -0.00000000000E+00 -0.10292743905E-01  0.10292743905E-01  0.00000000000E+00 0. -1.
          5    1    1    2  501    0  0.35092640130E+00  0.12190036283E+01  0.18018331410E+04  0.18018397174E+04  0.47000000000E+01 0. -1.
         -5    1    1    2    0  503 -0.35092640130E+00 -0.12190036283E+01  0.84583978788E+03  0.84585379699E+03  0.47000000000E+01 0. -1.
<mgrwt>
<rscale>  2 0.48681741E+01</rscale>
<asrwt>0</asrwt>
<pdfrwt beam="1">  1       21 0.40679110E+00 0.48681741E+01</pdfrwt>
<pdfrwt beam="2">  1       21 0.15856197E-05 0.48681741E+01</pdfrwt>
<totfact> 0.40051745E+08</totfact>
</mgrwt>
</event>
<event>
 4    1  0.3931501E+006  0.8067468E+01  0.7546771E-02  0.2205177E+00
         21   -1    0    0  501  502  0.00000000000E+00  0.00000000000E+00  0.30541963741E+00  0.30541963741E+00  0.00000000000E+00 0.  1.
         21   -1    0    0  502  503 -0.00000000000E+00 -0.00000000000E+00 -0.60407661439E+03  0.60407661439E+03  0.00000000000E+00 0. -1.
          5    1    1    2  501    0 -0.44525788889E+01  0.48133749464E+01 -0.58770156131E+02  0.59321288664E+02  0.47000000000E+01 0.  1.
         -5    1    1    2    0  503  0.44525788889E+01 -0.48133749464E+01 -0.54500103862E+03  0.54506074536E+03  0.47000000000E+01 0. -1.
<mgrwt>
<rscale>  2 0.80674678E+01</rscale>
<asrwt>0</asrwt>
<pdfrwt beam="1">  1       21 0.46987621E-04 0.80674678E+01</pdfrwt>
<pdfrwt beam="2">  1       21 0.92934895E-01 0.80674678E+01</pdfrwt>
<totfact> 0.18373817E+08</totfact>
</mgrwt>
</event>
<event>
 4    1  0.3931501E+006  0.7138527E+01  0.7546771E-02  0.2287251E+00
         21   -1    0    0  501  502  0.00000000000E+00  0.00000000000E+00  0.18491967303E+02  0.18491967303E+02  0.00000000000E+00 0. -1.
         21   -1    0    0  502  503 -0.00000000000E+00 -0.00000000000E+00 -0.39885113403E+01  0.39885113403E+01  0.00000000000E+00 0. -1.
          5    1    1    2  501    0 -0.52605222389E+01 -0.10933780147E+01  0.13500807054E+02  0.15271881377E+02  0.47000000000E+01 0. -1.
         -5    1    1    2    0  503  0.52605222389E+01  0.10933780147E+01  0.10026489093E+01  0.72085972660E+01  0.47000000000E+01 0. -1.
<mgrwt>
<rscale>  2 0.71385271E+01</rscale>
<asrwt>0</asrwt>
<pdfrwt beam="1">  1       21 0.28449180E-02 0.71385271E+01</pdfrwt>
<pdfrwt beam="2">  1       21 0.61361714E-03 0.71385271E+01</pdfrwt>
<totfact> 0.16114085E+09</totfact>
</mgrwt>
</event>
<event>
 4    1  0.3931501E+006  0.5096518E+01  0.7546771E-02  0.2550311E+00
         21   -1    0    0  501  502  0.00000000000E+00  0.00000000000E+00  0.86316263713E+01  0.86316263713E+01  0.00000000000E+00 0. -1.
         21   -1    0    0  502  503 -0.00000000000E+00 -0.00000000000E+00 -0.97805534117E+01  0.97805534117E+01  0.00000000000E+00 0. -1.
          5    1    1    2  501    0 -0.17737888748E+01  0.85916909308E+00  0.70855663446E+01  0.87281011066E+01  0.47000000000E+01 0. -1.
         -5    1    1    2    0  503  0.17737888748E+01 -0.85916909308E+00 -0.82344933850E+01  0.96840786764E+01  0.47000000000E+01 0. -1.
<mgrwt>
<rscale>  2 0.50965183E+01</rscale>
<asrwt>0</asrwt>
<pdfrwt beam="1">  1       21 0.13279425E-02 0.50965183E+01</pdfrwt>
<pdfrwt beam="2">  1       21 0.15047005E-02 0.50965183E+01</pdfrwt>
<totfact> 0.10246750E+09</totfact>
</mgrwt>
</event>
<event>
 4    1  0.3931501E+006  0.1379197E+02  0.7546771E-02  0.1907338E+00
         21   -1    0    0  501  502  0.00000000000E+00  0.00000000000E+00  0.11834328606E+03  0.11834328606E+03  0.00000000000E+00 0. -1.
         21   -1    0    0  502  503 -0.00000000000E+00 -0.00000000000E+00 -0.16908033682E+01  0.16908033682E+01  0.00000000000E+00 0.  1.
          5    1    1    2  501    0  0.10142917893E+02  0.80777342183E+01  0.44992220044E+02  0.47058670168E+02  0.47000000000E+01 0.  1.
         -5    1    1    2    0  503 -0.10142917893E+02 -0.80777342183E+01  0.71660262652E+02  0.72975419265E+02  0.47000000000E+01 0. -1.
<mgrwt>
<rscale>  2 0.13791975E+02</rscale>
<asrwt>0</asrwt>
<pdfrwt beam="1">  1       21 0.18206653E-01 0.13791975E+02</pdfrwt>
<pdfrwt beam="2">  1       21 0.26012369E-03 0.13791975E+02</pdfrwt>
<totfact> 0.43666811E+08</totfact>
</mgrwt>
</event>
<event>
 4    1  0.3931501E+006  0.6716033E+01  0.7546771E-02  0.2330611E+00
         21   -1    0    0  501  502  0.00000000000E+00  0.00000000000E+00  0.23213876072E+02  0.23213876072E+02  0.00000000000E+00 0.  1.
         21   -1    0    0  502  503 -0.00000000000E+00 -0.00000000000E+00 -0.21070325606E+01  0.21070325606E+01  0.00000000000E+00 0. -1.
          5    1    1    2  501    0 -0.18608469375E+01  0.44218038552E+01  0.70212002198E+01  0.97160873393E+01  0.47000000000E+01 0.  1.
         -5    1    1    2    0  503  0.18608469375E+01 -0.44218038552E+01  0.14085643292E+02  0.15604821294E+02  0.47000000000E+01 0.  1.
<mgrwt>
<rscale>  2 0.67160331E+01</rscale>
<asrwt>0</asrwt>
<pdfrwt beam="1">  1       21 0.35713654E-02 0.67160331E+01</pdfrwt>
<pdfrwt beam="2">  1       21 0.32415887E-03 0.67160331E+01</pdfrwt>
<totfact> 0.26828763E+09</totfact>
</mgrwt>
</event>
<event>
 4    1  0.3931501E+006  0.1269459E+02  0.7546771E-02  0.1947830E+00
         21   -1    0    0  501  502  0.00000000000E+00  0.00000000000E+00  0.15187363799E+01  0.15187363799E+01  0.00000000000E+00 0. -1.
         21   -1    0    0  502  503 -0.00000000000E+00 -0.00000000000E+00 -0.10812585047E+03  0.10812585047E+03  0.00000000000E+00 0.  1.
          5    1    1    2  501    0  0.54345334946E+01 -0.10465587503E+02 -0.45817504377E+02  0.47543626107E+02  0.47000000000E+01 0. -1.
         -5    1    1    2    0  503 -0.54345334946E+01  0.10465587503E+02 -0.60789609710E+02  0.62100960740E+02  0.47000000000E+01 0.  1.
<mgrwt>
<rscale>  2 0.12694592E+02</rscale>
<asrwt>0</asrwt>
<pdfrwt beam="1">  1       21 0.23365174E-03 0.12694592E+02</pdfrwt>
<pdfrwt beam="2">  1       21 0.16634747E-01 0.12694592E+02</pdfrwt>
<totfact> 0.57027402E+08</totfact>
</mgrwt>
</event>
<event>
 4    1  0.3931501E+006  0.6287495E+01  0.7546771E-02  0.2379443E+00
         21   -1    0    0  503  502  0.00000000000E+00  0.00000000000E+00  0.12083630217E+03  0.12083630217E+03  0.00000000000E+00 0. -1.
         21   -1    0    0  501  503 -0.00000000000E+00 -0.00000000000E+00 -0.33872462714E+02  0.33872462714E+02  0.00000000000E+00 0.  1.
          5    1    1    2  501    0  0.25872335970E+01  0.32785377130E+01 -0.33497991494E+02  0.34082957931E+02  0.47000000000E+01 0.  1.
         -5    1    1    2    0  502 -0.25872335970E+01 -0.32785377130E+01  0.12046183095E+03  0.12062580695E+03  0.47000000000E+01 0. -1.
<mgrwt>
<rscale>  2 0.62874945E+01</rscale>
<asrwt>0</asrwt>
<pdfrwt beam="1">  1       21 0.18590200E-01 0.62874945E+01</pdfrwt>
<pdfrwt beam="2">  1       21 0.52111482E-02 0.62874945E+01</pdfrwt>
<totfact> 0.38761854E+06</totfact>
</mgrwt>
</event>
<event>
 4    1  0.3931501E+006  0.1232239E+02  0.7546771E-02  0.1962802E+00
         21   -1    0    0  503  502  0.00000000000E+00  0.00000000000E+00  0.86824949883E+01  0.86824949883E+01  0.00000000000E+00 0. -1.
         21   -1    0    0  501  503 -0.00000000000E+00 -0.00000000000E+00 -0.17505097637E+02  0.17505097637E+02  0.00000000000E+00 0.  1.
          5    1    1    2  501    0 -0.10594909600E+02 -0.41832027545E+01 -0.40046060151E+01  0.12956780621E+02  0.47000000000E+01 0.  1.
         -5    1    1    2    0  502  0.10594909600E+02  0.41832027545E+01 -0.48179966336E+01  0.13230812004E+02  0.47000000000E+01 0. -1.
<mgrwt>
<rscale>  2 0.12322390E+02</rscale>
<asrwt>0</asrwt>
<pdfrwt beam="1">  1       21 0.13357685E-02 0.12322390E+02</pdfrwt>
<pdfrwt beam="2">  1       21 0.26930919E-02 0.12322390E+02</pdfrwt>
<totfact> 0.79858127E+08</totfact>
</mgrwt>
</event>
<event>
 4    1  0.3931501E+006  0.6907892E+01  0.7546771E-02  0.2310381E+00
         21   -1    0    0  503  502  0.00000000000E+00  0.00000000000E+00  0.48872911530E+02  0.48872911530E+02  0.00000000000E+00 0. -1.
         21   -1    0    0  501  503 -0.00000000000E+00 -0.00000000000E+00 -0.10538048016E+01  0.10538048016E+01  0.00000000000E+00 0. -1.
          5    1    1    2  501    0  0.18456894458E+01  0.47140636864E+01  0.17143457533E+02  0.18482886737E+02  0.47000000000E+01 0. -1.
         -5    1    1    2    0  502 -0.18456894458E+01 -0.47140636864E+01  0.30675649196E+02  0.31443829594E+02  0.47000000000E+01 0. -1.
<mgrwt>
<rscale>  2 0.69078916E+01</rscale>
<asrwt>0</asrwt>
<pdfrwt beam="1">  1       21 0.75189077E-02 0.69078916E+01</pdfrwt>
<pdfrwt beam="2">  1       21 0.16212385E-03 0.69078916E+01</pdfrwt>
<totfact> 0.23305720E+09</totfact>
</mgrwt>
</event>
<event>
 4    1  0.3931501E+006  0.6373973E+01  0.7546771E-02  0.2369151E+00
         21   -1    0    0  501  502  0.00000000000E+00  0.00000000000E+00  0.28853463870E+00  0.28853463870E+00  0.00000000000E+00 0.  1.
         21   -1    0    0  502  503 -0.00000000000E+00 -0.00000000000E+00 -0.14200377069E+03  0.14200377069E+03  0.00000000000E+00 0.  1.
          5    1    1    2  501    0 -0.17077049010E+01  0.39523756709E+01 -0.64324624973E+02  0.64639654295E+02  0.47000000000E+01 0.  1.
         -5    1    1    2    0  503  0.17077049010E+01 -0.39523756709E+01 -0.77390611076E+02  0.77652651032E+02  0.47000000000E+01 0.  1.
<mgrwt>
<rscale>  2 0.63739728E+01</rscale>
<asrwt>0</asrwt>
<pdfrwt beam="1">  1       21 0.44389909E-04 0.63739728E+01</pdfrwt>
<pdfrwt beam="2">  1       21 0.21846751E-01 0.63739728E+01</pdfrwt>
<totfact> 0.23469861E+09</totfact>
</mgrwt>
</event>
<event>
 4    1  0.3931501E+006  0.4922043E+01  0.7546771E-02  0.2581172E+00
         21   -1    0    0  501  502  0.00000000000E+00  0.00000000000E+00  0.75135139100E+02  0.75135139100E+02  0.00000000000E+00 0.  1.
         21   -1    0    0  502  503 -0.00000000000E+00 -0.00000000000E+00 -0.41541760634E+00  0.41541760634E+00  0.00000000000E+00 0.  1.
          5    1    1    2  501    0 -0.14363979996E+01  0.27068153604E+00  0.55231174225E+02  0.55450059639E+02  0.47000000000E+01 0.  1.
         -5    1    1    2    0  503  0.14363979996E+01 -0.27068153604E+00  0.19488547268E+02  0.20100497067E+02  0.47000000000E+01 0.  1.
<mgrwt>
<rscale>  2 0.49220430E+01</rscale>
<asrwt>0</asrwt>
<pdfrwt beam="1">  1       21 0.11559241E-01 0.49220430E+01</pdfrwt>
<pdfrwt beam="2">  1       21 0.63910461E-04 0.49220430E+01</pdfrwt>
<totfact> 0.31349940E+09</totfact>
</mgrwt>
</event>
<event>
 4    1  0.3931501E+006  0.4988434E+01  0.7546771E-02  0.2569210E+00
         21   -1    0    0  501  502  0.00000000000E+00  0.00000000000E+00  0.55790946088E+00  0.55790946088E+00  0.00000000000E+00 0.  1.
         21   -1    0    0  502  503 -0.00000000000E+00 -0.00000000000E+00 -0.86810050659E+02  0.86810050659E+02  0.00000000000E+00 0.  1.
          5    1    1    2  501    0 -0.52657349309E+00 -0.15865673853E+01 -0.12666110573E+02  0.13613039072E+02  0.47000000000E+01 0.  1.
         -5    1    1    2    0  503  0.52657349309E+00  0.15865673853E+01 -0.73586030625E+02  0.73754921049E+02  0.47000000000E+01 0.  1.
<mgrwt>
<rscale>  2 0.49884342E+01</rscale>
<asrwt>0</asrwt>
<pdfrwt beam="1">  1       21 0.85832234E-04 0.49884342E+01</pdfrwt>
<pdfrwt beam="2">  1       21 0.13355391E-01 0.49884342E+01</pdfrwt>
<totfact> 0.17221582E+09</totfact>
</mgrwt>
</event>
<event>
 4    1  0.3931501E+006  0.5086639E+01  0.7546771E-02  0.2552010E+00
         21   -1    0    0  503  502  0.00000000000E+00  0.00000000000E+00  0.14746628999E+00  0.14746628999E+00  0.00000000000E+00 0.  1.
         21   -1    0    0  501  503 -0.00000000000E+00 -0.00000000000E+00 -0.24746031558E+03  0.24746031558E+03  0.00000000000E+00 0. -1.
          5    1    1    2  501    0 -0.10920047731E+01  0.16097887154E+01 -0.56874369631E+02  0.57101381901E+02  0.47000000000E+01 0.  1.
         -5    1    1    2    0  502  0.10920047731E+01 -0.16097887154E+01 -0.19043847966E+03  0.19050639997E+03  0.47000000000E+01 0. -1.
<mgrwt>
<rscale>  2 0.50866388E+01</rscale>
<asrwt>0</asrwt>
<pdfrwt beam="1">  1       21 0.22687220E-04 0.50866388E+01</pdfrwt>
<pdfrwt beam="2">  1       21 0.38070653E-01 0.50866388E+01</pdfrwt>
<totfact> 0.18830163E+09</totfact>
</mgrwt>
</event>
<event>
 4    1  0.3931501E+006  0.6201204E+01  0.7546771E-02  0.2389950E+00
         21   -1    0    0  501  502  0.00000000000E+00  0.00000000000E+00  0.28691448145E+02  0.28691448145E+02  0.00000000000E+00 0.  1.
         21   -1    0    0  502  503 -0.00000000000E+00 -0.00000000000E+00 -0.18142795887E+01  0.18142795887E+01  0.00000000000E+00 0.  1.
          5    1    1    2  501    0  0.35316590721E+01  0.19728946450E+01  0.21234777631E+02  0.22121724845E+02  0.47000000000E+01 0.  1.
         -5    1    1    2    0  503 -0.35316590721E+01 -0.19728946450E+01  0.56423909253E+01  0.83840028886E+01  0.47000000000E+01 0.  1.
<mgrwt>
<rscale>  2 0.62012038E+01</rscale>
<asrwt>0</asrwt>
<pdfrwt beam="1">  1       21 0.44140686E-02 0.62012038E+01</pdfrwt>
<pdfrwt beam="2">  1       21 0.27911996E-03 0.62012038E+01</pdfrwt>
<totfact> 0.22584073E+09</totfact>
</mgrwt>
</event>
<event>
 4    1  0.3931501E+006  0.5146724E+01  0.7546771E-02  0.2541765E+00
         21   -1    0    0  503  502  0.00000000000E+00  0.00000000000E+00  0.61848631623E+00  0.61848631623E+00  0.00000000000E+00 0. -1.
         21   -1    0    0  501  503 -0.00000000000E+00 -0.00000000000E+00 -0.58160000335E+02  0.58160000335E+02  0.00000000000E+00 0. -1.
          5    1    1    2  501    0  0.16671315866E+01  0.12725702940E+01 -0.13681414165E+02  0.14617450408E+02  0.47000000000E+01 0. -1.
         -5    1    1    2    0  502 -0.16671315866E+01 -0.12725702940E+01 -0.43860099853E+02  0.44161036243E+02  0.47000000000E+01 0. -1.
<mgrwt>
<rscale>  2 0.51467235E+01</rscale>
<asrwt>0</asrwt>
<pdfrwt beam="1">  1       21 0.95151710E-04 0.51467235E+01</pdfrwt>
<pdfrwt beam="2">  1       21 0.89476953E-02 0.51467235E+01</pdfrwt>
<totfact> 0.28483573E+09</totfact>
</mgrwt>
</event>
<event>
 4    1  0.3931501E+006  0.5751053E+01  0.7546771E-02  0.2448996E+00
         21   -1    0    0  501  502  0.00000000000E+00  0.00000000000E+00  0.62361512218E+02  0.62361512218E+02  0.00000000000E+00 0.  1.
         21   -1    0    0  502  503 -0.00000000000E+00 -0.00000000000E+00 -0.11666820046E+01  0.11666820046E+01  0.00000000000E+00 0.  1.
          5    1    1    2  501    0  0.29256068664E+01  0.15573803525E+01  0.54055669180E+02  0.54360739322E+02  0.47000000000E+01 0.  1.
         -5    1    1    2    0  503 -0.29256068664E+01 -0.15573803525E+01  0.71391610335E+01  0.91674549010E+01  0.47000000000E+01 0.  1.
<mgrwt>
<rscale>  2 0.57510529E+01</rscale>
<asrwt>0</asrwt>
<pdfrwt beam="1">  1       21 0.95940762E-02 0.57510529E+01</pdfrwt>
<pdfrwt beam="2">  1       21 0.17948959E-03 0.57510529E+01</pdfrwt>
<totfact> 0.12082516E+09</totfact>
</mgrwt>
</event>
<event>
 4    1  0.3931501E+006  0.6522944E+01  0.7546771E-02  0.2351956E+00
         21   -1    0    0  501  502  0.00000000000E+00  0.00000000000E+00  0.44584667694E+02  0.44584667694E+02  0.00000000000E+00 0. -1.
         21   -1    0    0  502  503 -0.00000000000E+00 -0.00000000000E+00 -0.21214577059E+01  0.21214577059E+01  0.00000000000E+00 0.  1.
          5    1    1    2  501    0  0.41269467021E+01 -0.18512463607E+01  0.38553066220E+02  0.39100993813E+02  0.47000000000E+01 0. -1.
         -5    1    1    2    0  503 -0.41269467021E+01  0.18512463607E+01  0.39101437675E+01  0.76051315868E+01  0.47000000000E+01 0.  1.
<mgrwt>
<rscale>  2 0.65229443E+01</rscale>
<asrwt>0</asrwt>
<pdfrwt beam="1">  1       21 0.68591790E-02 0.65229443E+01</pdfrwt>
<pdfrwt beam="2">  1       21 0.32637814E-03 0.65229443E+01</pdfrwt>
<totfact> 0.98106460E+08</totfact>
</mgrwt>
</event>
<event>
 4    1  0.3931501E+006  0.7245659E+01  0.7546771E-02  0.2276918E+00
         21   -1    0    0  503  502  0.00000000000E+00  0.00000000000E+00  0.35030362196E+01  0.35030362196E+01  0.00000000000E+00 0. -1.
         21   -1    0    0  501  503 -0.00000000000E+00 -0.00000000000E+00 -0.15216095370E+02  0.15216095370E+02  0.00000000000E+00 0.  1.
          5    1    1    2  501    0  0.48608140015E+01 -0.26042382717E+01 -0.70052905434E+01  0.10078376126E+02  0.47000000000E+01 0.  1.
         -5    1    1    2    0  502 -0.48608140015E+01  0.26042382717E+01 -0.47077686073E+01  0.86407554642E+01  0.47000000000E+01 0. -1.
<mgrwt>
<rscale>  2 0.72456587E+01</rscale>
<asrwt>0</asrwt>
<pdfrwt beam="1">  1       21 0.53892866E-03 0.72456587E+01</pdfrwt>
<pdfrwt beam="2">  1       21 0.23409377E-02 0.72456587E+01</pdfrwt>
<totfact> 0.26030132E+09</totfact>
</mgrwt>
</event>
<event>
 4    1  0.3931501E+006  0.7064347E+01  0.7546771E-02  0.2294555E+00
         21   -1    0    0  501  502  0.00000000000E+00  0.00000000000E+00  0.48015132738E+00  0.48015132738E+00  0.00000000000E+00 0.  1.
         21   -1    0    0  502  503 -0.00000000000E+00 -0.00000000000E+00 -0.31529349695E+03  0.31529349695E+03  0.00000000000E+00 0. -1.
          5    1    1    2  501    0 -0.16683573394E+01 -0.50031578207E+01 -0.28136830381E+02  0.29010105623E+02  0.47000000000E+01 0.  1.
         -5    1    1    2    0  503  0.16683573394E+01  0.50031578207E+01 -0.28667651524E+03  0.28676354265E+03  0.47000000000E+01 0. -1.
<mgrwt>
<rscale>  2 0.70643474E+01</rscale>
<asrwt>0</asrwt>
<pdfrwt beam="1">  1       21 0.73869174E-04 0.70643474E+01</pdfrwt>
<pdfrwt beam="2">  1       21 0.48506863E-01 0.70643474E+01</pdfrwt>
<totfact> 0.32264425E+08</totfact>
</mgrwt>
</event>
<event>
 4    1  0.3931501E+006  0.6164119E+01  0.7546771E-02  0.2394541E+00
         21   -1    0    0  503  502  0.00000000000E+00  0.00000000000E+00  0.35369870020E+01  0.35369870020E+01  0.00000000000E+00 0.  1.
         21   -1    0    0  501  503 -0.00000000000E+00 -0.00000000000E+00 -0.25824528665E+02  0.25824528665E+02  0.00000000000E+00 0.  1.
          5    1    1    2  501    0 -0.33541365737E+01 -0.21578071585E+01 -0.22362948095E+02  0.23196935388E+02  0.47000000000E+01 0.  1.
         -5    1    1    2    0  502  0.33541365737E+01  0.21578071585E+01  0.75406431991E-01  0.61645802791E+01  0.47000000000E+01 0.  1.
<mgrwt>
<rscale>  2 0.61641191E+01</rscale>
<asrwt>0</asrwt>
<pdfrwt beam="1">  1       21 0.54415184E-03 0.61641191E+01</pdfrwt>
<pdfrwt beam="2">  1       21 0.39730045E-02 0.61641191E+01</pdfrwt>
<totfact> 0.10419424E+09</totfact>
</mgrwt>
</event>
<event>
 4    1  0.3931501E+006  0.1708220E+02  0.7546771E-02  0.1810467E+00
         21   -1    0    0  501  502  0.00000000000E+00  0.00000000000E+00  0.18127041186E+01  0.18127041186E+01  0.00000000000E+00 0.  1.
         21   -1    0    0  502  503 -0.00000000000E+00 -0.00000000000E+00 -0.18844657681E+03  0.18844657681E+03  0.00000000000E+00 0. -1.
          5    1    1    2  501    0 -0.10869352852E+02 -0.12311331958E+02 -0.56996070359E+02  0.59500871946E+02  0.47000000000E+01 0.  1.
         -5    1    1    2    0  503  0.10869352852E+02  0.12311331958E+02 -0.12963780233E+03  0.13075840898E+03  0.47000000000E+01 0. -1.
<mgrwt>
<rscale>  2 0.17082205E+02</rscale>
<asrwt>0</asrwt>
<pdfrwt beam="1">  1       21 0.27887764E-03 0.17082205E+02</pdfrwt>
<pdfrwt beam="2">  1       21 0.28991772E-01 0.17082205E+02</pdfrwt>
<totfact> 0.19126570E+08</totfact>
</mgrwt>
</event>
<event>
 4    1  0.3931501E+006  0.5610908E+01  0.7546771E-02  0.2468994E+00
         21   -1    0    0  501  502  0.00000000000E+00  0.00000000000E+00  0.16967934524E+01  0.16967934524E+01  0.00000000000E+00 0. -1.
         21   -1    0    0  502  503 -0.00000000000E+00 -0.00000000000E+00 -0.21793042177E+02  0.21793042177E+02  0.00000000000E+00 0. -1.
          5    1    1    2  501    0 -0.10785297180E+01  0.28686341766E+01 -0.55201908765E+01  0.78711368750E+01  0.47000000000E+01 0. -1.
         -5    1    1    2    0  503  0.10785297180E+01 -0.28686341766E+01 -0.14576057848E+02  0.15618698754E+02  0.47000000000E+01 0. -1.
<mgrwt>
<rscale>  2 0.56109080E+01</rscale>
<asrwt>0</asrwt>
<pdfrwt beam="1">  1       21 0.26104515E-03 0.56109080E+01</pdfrwt>
<pdfrwt beam="2">  1       21 0.33527757E-02 0.56109080E+01</pdfrwt>
<totfact> 0.33907918E+09</totfact>
</mgrwt>
</event>
<event>
 4    1  0.3931501E+006  0.5334164E+01  0.7546771E-02  0.2511082E+00
         21   -1    0    0  501  502  0.00000000000E+00  0.00000000000E+00  0.97056731296E+02  0.97056731296E+02  0.00000000000E+00 0.  1.
         21   -1    0    0  502  503 -0.00000000000E+00 -0.00000000000E+00 -0.44252262990E+00  0.44252262990E+00  0.00000000000E+00 0.  1.
          5    1    1    2  501    0 -0.13933094592E+01 -0.21028542839E+01  0.76628991808E+02  0.76814423729E+02  0.47000000000E+01 0.  1.
         -5    1    1    2    0  503  0.13933094592E+01  0.21028542839E+01  0.19985216859E+02  0.20684830197E+02  0.47000000000E+01 0.  1.
<mgrwt>
<rscale>  2 0.53341642E+01</rscale>
<asrwt>0</asrwt>
<pdfrwt beam="1">  1       21 0.14931788E-01 0.53341642E+01</pdfrwt>
<pdfrwt beam="2">  1       21 0.68080482E-04 0.53341642E+01</pdfrwt>
<totfact> 0.20977091E+09</totfact>
</mgrwt>
</event>
<event>
 4    1  0.3931501E+006  0.1457111E+02  0.7546771E-02  0.1881445E+00
         21   -1    0    0  503  502  0.00000000000E+00  0.00000000000E+00  0.42574955505E+02  0.42574955505E+02  0.00000000000E+00 0. -1.
         21   -1    0    0  501  503 -0.00000000000E+00 -0.00000000000E+00 -0.50171188334E+01  0.50171188334E+01  0.00000000000E+00 0. -1.
          5    1    1    2  501    0  0.10943000796E+02 -0.83951146158E+01  0.16932255712E+02  0.22338721971E+02  0.47000000000E+01 0. -1.
         -5    1    1    2    0  502 -0.10943000796E+02  0.83951146158E+01  0.20625580960E+02  0.25253352367E+02  0.47000000000E+01 0. -1.
<mgrwt>
<rscale>  2 0.14571109E+02</rscale>
<asrwt>0</asrwt>
<pdfrwt beam="1">  1       21 0.65499929E-02 0.14571109E+02</pdfrwt>
<pdfrwt beam="2">  1       21 0.77186446E-03 0.14571109E+02</pdfrwt>
<totfact> 0.49131238E+08</totfact>
</mgrwt>
</event>
<event>
 4    1  0.3931501E+006  0.8720619E+01  0.7546771E-02  0.2156060E+00
         21   -1    0    0  501  502  0.00000000000E+00  0.00000000000E+00  0.91926926541E+00  0.91926926541E+00  0.00000000000E+00 0.  1.
         21   -1    0    0  502  503 -0.00000000000E+00 -0.00000000000E+00 -0.16268683011E+03  0.16268683011E+03  0.00000000000E+00 0.  1.
          5    1    1    2  501    0 -0.73421395582E+01  0.22842355454E+00 -0.23534647238E+02  0.25098382642E+02  0.47000000000E+01 0.  1.
         -5    1    1    2    0  503  0.73421395582E+01 -0.22842355454E+00 -0.13823291360E+03  0.13850771673E+03  0.47000000000E+01 0.  1.
<mgrwt>
<rscale>  2 0.87206187E+01</rscale>
<asrwt>0</asrwt>
<pdfrwt beam="1">  1       21 0.14142617E-03 0.87206187E+01</pdfrwt>
<pdfrwt beam="2">  1       21 0.25028721E-01 0.87206187E+01</pdfrwt>
<totfact> 0.47843677E+08</totfact>
</mgrwt>
</event>
<event>
 4    1  0.3931501E+006  0.5264370E+01  0.7546771E-02  0.2522288E+00
         21   -1    0    0  503  502  0.00000000000E+00  0.00000000000E+00  0.49013581003E+01  0.49013581003E+01  0.00000000000E+00 0.  1.
         21   -1    0    0  501  503 -0.00000000000E+00 -0.00000000000E+00 -0.23060428292E+02  0.23060428292E+02  0.00000000000E+00 0.  1.
          5    1    1    2  501    0  0.23697643099E+01  0.88365748992E-01 -0.21226079021E+02  0.21869156865E+02  0.47000000000E+01 0.  1.
         -5    1    1    2    0  502 -0.23697643099E+01 -0.88365748992E-01  0.30670088296E+01  0.60926295268E+01  0.47000000000E+01 0.  1.
<mgrwt>
<rscale>  2 0.52643700E+01</rscale>
<asrwt>0</asrwt>
<pdfrwt beam="1">  1       21 0.75405509E-03 0.52643700E+01</pdfrwt>
<pdfrwt beam="2">  1       21 0.35477582E-02 0.52643700E+01</pdfrwt>
<totfact> 0.68422066E+08</totfact>
</mgrwt>
</event>
<event>
 4    1  0.3931501E+006  0.6044524E+01  0.7546771E-02  0.2409665E+00
         21   -1    0    0  503  502  0.00000000000E+00  0.00000000000E+00  0.71912526189E+01  0.71912526189E+01  0.00000000000E+00 0.  1.
         21   -1    0    0  501  503 -0.00000000000E+00 -0.00000000000E+00 -0.51379597760E+01  0.51379597760E+01  0.00000000000E+00 0.  1.
          5    1    1    2  501    0  0.22999603799E+01 -0.30259631811E+01  0.37560773565E+00  0.60561829640E+01  0.47000000000E+01 0.  1.
         -5    1    1    2    0  502 -0.22999603799E+01  0.30259631811E+01  0.16776851072E+01  0.62730294309E+01  0.47000000000E+01 0.  1.
<mgrwt>
<rscale>  2 0.60445240E+01</rscale>
<asrwt>0</asrwt>
<pdfrwt beam="1">  1       21 0.11063466E-02 0.60445240E+01</pdfrwt>
<pdfrwt beam="2">  1       21 0.79045535E-03 0.60445240E+01</pdfrwt>
<totfact> 0.38350808E+09</totfact>
</mgrwt>
</event>
<event>
 4    1  0.3931501E+006  0.5048668E+01  0.7546771E-02  0.2558592E+00
         21   -1    0    0  501  502  0.00000000000E+00  0.00000000000E+00  0.31221927733E+01  0.31221927733E+01  0.00000000000E+00 0.  1.
         21   -1    0    0  502  503 -0.00000000000E+00 -0.00000000000E+00 -0.81913807523E+01  0.81913807523E+01  0.00000000000E+00 0. -1.
          5    1    1    2  501    0 -0.80517341354E+00  0.16585358719E+01 -0.28626681516E+01  0.58037844904E+01  0.47000000000E+01 0.  1.
         -5    1    1    2    0  503  0.80517341354E+00 -0.16585358719E+01 -0.22065198274E+01  0.55097890352E+01  0.47000000000E+01 0. -1.
<mgrwt>
<rscale>  2 0.50486677E+01</rscale>
<asrwt>0</asrwt>
<pdfrwt beam="1">  1       21 0.48033735E-03 0.50486677E+01</pdfrwt>
<pdfrwt beam="2">  1       21 0.12602124E-02 0.50486677E+01</pdfrwt>
<totfact> 0.53481778E+09</totfact>
</mgrwt>
</event>
<event>
 4    1  0.3931501E+006  0.5428749E+01  0.7546771E-02  0.2496287E+00
         21   -1    0    0  503  502  0.00000000000E+00  0.00000000000E+00  0.10820869131E+02  0.10820869131E+02  0.00000000000E+00 0. -1.
         21   -1    0    0  501  503 -0.00000000000E+00 -0.00000000000E+00 -0.50588791231E+01  0.50588791231E+01  0.00000000000E+00 0. -1.
          5    1    1    2  501    0  0.18060419845E+00  0.27108485789E+01 -0.25136058006E+01  0.59824352914E+01  0.47000000000E+01 0. -1.
         -5    1    1    2    0  502 -0.18060419845E+00 -0.27108485789E+01  0.82755958080E+01  0.98973129622E+01  0.47000000000E+01 0. -1.
<mgrwt>
<rscale>  2 0.54287492E+01</rscale>
<asrwt>0</asrwt>
<pdfrwt beam="1">  1       21 0.16647491E-02 0.54287492E+01</pdfrwt>
<pdfrwt beam="2">  1       21 0.77828910E-03 0.54287492E+01</pdfrwt>
<totfact> 0.19926338E+09</totfact>
</mgrwt>
</event>
<event>
 4    1  0.3931501E+006  0.1045907E+02  0.7546771E-02  0.2049766E+00
         21   -1    0    0  503  502  0.00000000000E+00  0.00000000000E+00  0.21528626679E+02  0.21528626679E+02  0.00000000000E+00 0.  1.
         21   -1    0    0  501  503 -0.00000000000E+00 -0.00000000000E+00 -0.11736296301E+02  0.11736296301E+02  0.00000000000E+00 0. -1.
          5    1    1    2  501    0  0.60704005550E+01 -0.71029876610E+01 -0.76285178266E+01  0.12945519721E+02  0.47000000000E+01 0. -1.
         -5    1    1    2    0  502 -0.60704005550E+01  0.71029876610E+01  0.17420848206E+02  0.20319403259E+02  0.47000000000E+01 0.  1.
<mgrwt>
<rscale>  2 0.10459072E+02</rscale>
<asrwt>0</asrwt>
<pdfrwt beam="1">  1       21 0.33120964E-02 0.10459072E+02</pdfrwt>
<pdfrwt beam="2">  1       21 0.18055840E-02 0.10459072E+02</pdfrwt>
<totfact> 0.34417750E+08</totfact>
</mgrwt>
</event>
<event>
 4    1  0.3931501E+006  0.6494382E+01  0.7546771E-02  0.2355202E+00
         21   -1    0    0  501  502  0.00000000000E+00  0.00000000000E+00  0.21556007119E+00  0.21556007119E+00  0.00000000000E+00 0.  1.
         21   -1    0    0  502  503 -0.00000000000E+00 -0.00000000000E+00 -0.64004901997E+03  0.64004901997E+03  0.00000000000E+00 0. -1.
          5    1    1    2  501    0 -0.44792921979E+01  0.15147381576E+00 -0.53167394979E+02  0.53562569877E+02  0.47000000000E+01 0.  1.
         -5    1    1    2    0  503  0.44792921979E+01 -0.15147381576E+00 -0.58666606492E+03  0.58670201017E+03  0.47000000000E+01 0. -1.
<mgrwt>
<rscale>  2 0.64943824E+01</rscale>
<asrwt>0</asrwt>
<pdfrwt beam="1">  1       21 0.33163128E-04 0.64943824E+01</pdfrwt>
<pdfrwt beam="2">  1       21 0.98468961E-01 0.64943824E+01</pdfrwt>
<totfact> 0.23205623E+08</totfact>
</mgrwt>
</event>
<event>
 4    1  0.3931501E+006  0.6992696E+01  0.7546771E-02  0.2301731E+00
         21   -1    0    0  501  502  0.00000000000E+00  0.00000000000E+00  0.23837079903E+03  0.23837079903E+03  0.00000000000E+00 0.  1.
         21   -1    0    0  502  503 -0.00000000000E+00 -0.00000000000E+00 -0.44571966224E+00  0.44571966224E+00  0.00000000000E+00 0. -1.
          5    1    1    2  501    0  0.40073351048E+01 -0.32785769129E+01  0.20669068062E+03  0.20680893418E+03  0.47000000000E+01 0.  1.
         -5    1    1    2    0  503 -0.40073351048E+01  0.32785769129E+01  0.31234398746E+02  0.32007584511E+02  0.47000000000E+01 0. -1.
<mgrwt>
<rscale>  2 0.69926963E+01</rscale>
<asrwt>0</asrwt>
<pdfrwt beam="1">  1       21 0.36672329E-01 0.69926963E+01</pdfrwt>
<pdfrwt beam="2">  1       21 0.68572446E-04 0.69926963E+01</pdfrwt>
<totfact> 0.58295198E+08</totfact>
</mgrwt>
</event>
<event>
 4    1  0.3931501E+006  0.6233419E+01  0.7546771E-02  0.2385999E+00
         21   -1    0    0  501  502  0.00000000000E+00  0.00000000000E+00  0.10408426268E+02  0.10408426268E+02  0.00000000000E+00 0. -1.
         21   -1    0    0  502  503 -0.00000000000E+00 -0.00000000000E+00 -0.51262183820E+01  0.51262183820E+01  0.00000000000E+00 0. -1.
          5    1    1    2  501    0 -0.18584783530E+01  0.36485019494E+01  0.66903074120E+01  0.91441632493E+01  0.47000000000E+01 0. -1.
         -5    1    1    2    0  503  0.18584783530E+01 -0.36485019494E+01 -0.14080995255E+01  0.63904814011E+01  0.47000000000E+01 0. -1.
<mgrwt>
<rscale>  2 0.62334187E+01</rscale>
<asrwt>0</asrwt>
<pdfrwt beam="1">  1       21 0.16012963E-02 0.62334187E+01</pdfrwt>
<pdfrwt beam="2">  1       21 0.78864899E-03 0.62334187E+01</pdfrwt>
<totfact> 0.23356899E+09</totfact>
</mgrwt>
</event>
<event>
 4    1  0.3931501E+006  0.6866125E+01  0.7546771E-02  0.2314706E+00
         21   -1    0    0  503  502  0.00000000000E+00  0.00000000000E+00  0.35312060753E+02  0.35312060753E+02  0.00000000000E+00 0.  1.
         21   -1    0    0  501  503 -0.00000000000E+00 -0.00000000000E+00 -0.17900661678E+01  0.17900661678E+01  0.00000000000E+00 0.  1.
          5    1    1    2  501    0 -0.30846346083E+01 -0.39419152969E+01  0.74081546764E+01  0.10100713964E+02  0.47000000000E+01 0.  1.
         -5    1    1    2    0  502  0.30846346083E+01  0.39419152969E+01  0.26113839909E+02  0.27001412957E+02  0.47000000000E+01 0.  1.
<mgrwt>
<rscale>  2 0.68661246E+01</rscale>
<asrwt>0</asrwt>
<pdfrwt beam="1">  1       21 0.54326242E-02 0.68661246E+01</pdfrwt>
<pdfrwt beam="2">  1       21 0.27539482E-03 0.68661246E+01</pdfrwt>
<totfact> 0.18324026E+09</totfact>
</mgrwt>
</event>
<event>
 4    1  0.3931501E+006  0.7624662E+01  0.7546771E-02  0.2242275E+00
         21   -1    0    0  503  502  0.00000000000E+00  0.00000000000E+00  0.90463238050E+01  0.90463238050E+01  0.00000000000E+00 0.  1.
         21   -1    0    0  501  503 -0.00000000000E+00 -0.00000000000E+00 -0.64870257945E+01  0.64870257945E+01  0.00000000000E+00 0. -1.
          5    1    1    2  501    0  0.59385538076E+01  0.88264103878E+00  0.52894408345E+00  0.76429875293E+01  0.47000000000E+01 0. -1.
         -5    1    1    2    0  502 -0.59385538076E+01 -0.88264103878E+00  0.20303539271E+01  0.78903620702E+01  0.47000000000E+01 0.  1.
<mgrwt>
<rscale>  2 0.76246624E+01</rscale>
<asrwt>0</asrwt>
<pdfrwt beam="1">  1       21 0.13917421E-02 0.76246624E+01</pdfrwt>
<pdfrwt beam="2">  1       21 0.99800396E-03 0.76246624E+01</pdfrwt>
<totfact> 0.24019561E+09</totfact>
</mgrwt>
</event>
<event>
 4    1  0.3931501E+006  0.9747103E+01  0.7546771E-02  0.2089673E+00
         21   -1    0    0  501  502  0.00000000000E+00  0.00000000000E+00  0.48560632927E+03  0.48560632927E+03  0.00000000000E+00 0. -1.
         21   -1    0    0  502  503 -0.00000000000E+00 -0.00000000000E+00 -0.20461217915E+00  0.20461217915E+00  0.00000000000E+00 0. -1.
          5    1    1    2  501    0 -0.80513564225E+01  0.28445871577E+01  0.29355439004E+03  0.29371616559E+03  0.47000000000E+01 0. -1.
         -5    1    1    2    0  503  0.80513564225E+01 -0.28445871577E+01  0.19184732705E+03  0.19209477585E+03  0.47000000000E+01 0. -1.
<mgrwt>
<rscale>  2 0.97471030E+01</rscale>
<asrwt>0</asrwt>
<pdfrwt beam="1">  1       21 0.74707744E-01 0.97471030E+01</pdfrwt>
<pdfrwt beam="2">  1       21 0.31479185E-04 0.97471030E+01</pdfrwt>
<totfact> 0.53928101E+08</totfact>
</mgrwt>
</event>
<event>
 4    1  0.3931501E+006  0.5639942E+01  0.7546771E-02  0.2464782E+00
         21   -1    0    0  501  502  0.00000000000E+00  0.00000000000E+00  0.63404051189E+01  0.63404051189E+01  0.00000000000E+00 0. -1.
         21   -1    0    0  502  503 -0.00000000000E+00 -0.00000000000E+00 -0.11544894011E+02  0.11544894011E+02  0.00000000000E+00 0.  1.
          5    1    1    2  501    0  0.21939070620E+01 -0.22148854109E+01  0.41222917043E+01  0.69858596089E+01  0.47000000000E+01 0. -1.
         -5    1    1    2    0  503 -0.21939070620E+01  0.22148854109E+01 -0.93267805968E+01  0.10899439521E+02  0.47000000000E+01 0.  1.
<mgrwt>
<rscale>  2 0.56399420E+01</rscale>
<asrwt>0</asrwt>
<pdfrwt beam="1">  1       21 0.97544694E-03 0.56399420E+01</pdfrwt>
<pdfrwt beam="2">  1       21 0.17761375E-02 0.56399420E+01</pdfrwt>
<totfact> 0.13705348E+09</totfact>
</mgrwt>
</event>
<event>
 4    1  0.3931501E+006  0.4912072E+01  0.7546771E-02  0.2582993E+00
         21   -1    0    0  501  502  0.00000000000E+00  0.00000000000E+00  0.85658885370E+02  0.85658885370E+02  0.00000000000E+00 0. -1.
         21   -1    0    0  502  503 -0.00000000000E+00 -0.00000000000E+00 -0.28248678501E+00  0.28248678501E+00  0.00000000000E+00 0. -1.
          5    1    1    2  501    0 -0.10164463313E+01  0.10026383661E+01  0.40392639240E+02  0.40690216903E+02  0.47000000000E+01 0. -1.
         -5    1    1    2    0  503  0.10164463313E+01 -0.10026383661E+01  0.44983759345E+02  0.45251155253E+02  0.47000000000E+01 0. -1.
<mgrwt>
<rscale>  2 0.49120715E+01</rscale>
<asrwt>0</asrwt>
<pdfrwt beam="1">  1       21 0.13178269E-01 0.49120715E+01</pdfrwt>
<pdfrwt beam="2">  1       21 0.43459574E-04 0.49120715E+01</pdfrwt>
<totfact> 0.42646501E+09</totfact>
</mgrwt>
</event>
<event>
 4    1  0.3931501E+006  0.6226091E+01  0.7546771E-02  0.2386895E+00
         21   -1    0    0  501  502  0.00000000000E+00  0.00000000000E+00  0.18293047058E+03  0.18293047058E+03  0.00000000000E+00 0. -1.
         21   -1    0    0  502  503 -0.00000000000E+00 -0.00000000000E+00 -0.21460224402E+00  0.21460224402E+00  0.00000000000E+00 0.  1.
          5    1    1    2  501    0 -0.16245683590E+01 -0.37463298198E+01  0.10162068506E+03  0.10181123633E+03  0.47000000000E+01 0. -1.
         -5    1    1    2    0  503  0.16245683590E+01  0.37463298198E+01  0.81095183267E+02  0.81333836493E+02  0.47000000000E+01 0.  1.
<mgrwt>
<rscale>  2 0.62260910E+01</rscale>
<asrwt>0</asrwt>
<pdfrwt beam="1">  1       21 0.28143025E-01 0.62260910E+01</pdfrwt>
<pdfrwt beam="2">  1       21 0.33015876E-04 0.62260910E+01</pdfrwt>
<totfact> 0.22522463E+09</totfact>
</mgrwt>
</event>
<event>
 4    1  0.3931501E+006  0.4882342E+01  0.7546771E-02  0.2588459E+00
         21   -1    0    0  503  502  0.00000000000E+00  0.00000000000E+00  0.76494515634E-01  0.76494515634E-01  0.00000000000E+00 0. -1.
         21   -1    0    0  501  503 -0.00000000000E+00 -0.00000000000E+00 -0.32127439722E+03  0.32127439722E+03  0.00000000000E+00 0. -1.
          5    1    1    2  501    0  0.23045076833E+00  0.13015965527E+01 -0.18845132559E+03  0.18851456012E+03  0.47000000000E+01 0.  1.
         -5    1    1    2    0  502 -0.23045076833E+00 -0.13015965527E+01 -0.13274657712E+03  0.13283633162E+03  0.47000000000E+01 0.  1.
<mgrwt>
<rscale>  2 0.48823418E+01</rscale>
<asrwt>0</asrwt>
<pdfrwt beam="1">  1       21 0.11768244E-04 0.48823418E+01</pdfrwt>
<pdfrwt beam="2">  1       21 0.49427433E-01 0.48823418E+01</pdfrwt>
<totfact> 0.27479860E+09</totfact>
</mgrwt>
</event>
<event>
 4    1  0.3931501E+006  0.6191776E+01  0.7546771E-02  0.2391113E+00
         21   -1    0    0  503  502  0.00000000000E+00  0.00000000000E+00  0.76965396263E+02  0.76965396263E+02  0.00000000000E+00 0. -1.
         21   -1    0    0  501  503 -0.00000000000E+00 -0.00000000000E+00 -0.88532313884E+00  0.88532313884E+00  0.00000000000E+00 0.  1.
          5    1    1    2  501    0  0.35166609041E+01  0.19700723836E+01  0.12297547585E+02  0.13768361039E+02  0.47000000000E+01 0.  1.
         -5    1    1    2    0  502 -0.35166609041E+01 -0.19700723836E+01  0.63782525540E+02  0.64082358363E+02  0.47000000000E+01 0. -1.
<mgrwt>
<rscale>  2 0.61917759E+01</rscale>
<asrwt>0</asrwt>
<pdfrwt beam="1">  1       21 0.11840825E-01 0.61917759E+01</pdfrwt>
<pdfrwt beam="2">  1       21 0.13620362E-03 0.61917759E+01</pdfrwt>
<totfact> 0.13475637E+09</totfact>
</mgrwt>
</event>
<event>
 4    1  0.3931501E+006  0.4967901E+01  0.7546771E-02  0.2572880E+00
         21   -1    0    0  503  502  0.00000000000E+00  0.00000000000E+00  0.10286723184E+02  0.10286723184E+02  0.00000000000E+00 0.  1.
         21   -1    0    0  501  503 -0.00000000000E+00 -0.00000000000E+00 -0.80577890162E+01  0.80577890162E+01  0.00000000000E+00 0. -1.
          5    1    1    2  501    0 -0.51903435325E+00 -0.15233666082E+01 -0.65719119069E+01  0.82383292357E+01  0.47000000000E+01 0. -1.
         -5    1    1    2    0  502  0.51903435325E+00  0.15233666082E+01  0.88008460750E+01  0.10106182965E+02  0.47000000000E+01 0.  1.
<mgrwt>
<rscale>  2 0.49679012E+01</rscale>
<asrwt>0</asrwt>
<pdfrwt beam="1">  1       21 0.15825728E-02 0.49679012E+01</pdfrwt>
<pdfrwt beam="2">  1       21 0.12396598E-02 0.49679012E+01</pdfrwt>
<totfact> 0.10257281E+09</totfact>
</mgrwt>
</event>
<event>
 4    1  0.3931501E+006  0.5550753E+01  0.7546771E-02  0.2477839E+00
         21   -1    0    0  501  502  0.00000000000E+00  0.00000000000E+00  0.98204318333E-01  0.98204318333E-01  0.00000000000E+00 0.  1.
         21   -1    0    0  502  503 -0.00000000000E+00 -0.00000000000E+00 -0.31429250905E+03  0.31429250905E+03  0.00000000000E+00 0.  1.
          5    1    1    2  501    0  0.22944721587E+01 -0.18591018459E+01 -0.15052083937E+03  0.15062315210E+03  0.47000000000E+01 0.  1.
         -5    1    1    2    0  503 -0.22944721587E+01  0.18591018459E+01 -0.16367346535E+03  0.16376756127E+03  0.47000000000E+01 0.  1.
<mgrwt>
<rscale>  2 0.55507533E+01</rscale>
<asrwt>0</asrwt>
<pdfrwt beam="1">  1       21 0.15108467E-04 0.55507533E+01</pdfrwt>
<pdfrwt beam="2">  1       21 0.48352340E-01 0.55507533E+01</pdfrwt>
<totfact> 0.22901971E+09</totfact>
</mgrwt>
</event>
<event>
 4    1  0.3931501E+006  0.6096229E+01  0.7546771E-02  0.2403065E+00
         21   -1    0    0  503  502  0.00000000000E+00  0.00000000000E+00  0.55544080473E+02  0.55544080473E+02  0.00000000000E+00 0.  1.
         21   -1    0    0  501  503 -0.00000000000E+00 -0.00000000000E+00 -0.74335903763E+00  0.74335903763E+00  0.00000000000E+00 0.  1.
          5    1    1    2  501    0 -0.37861829955E+01  0.85955330041E+00  0.18504565432E+02  0.19482888784E+02  0.47000000000E+01 0.  1.
         -5    1    1    2    0  502  0.37861829955E+01 -0.85955330041E+00  0.36296156003E+02  0.36804550726E+02  0.47000000000E+01 0.  1.
<mgrwt>
<rscale>  2 0.60962295E+01</rscale>
<asrwt>0</asrwt>
<pdfrwt beam="1">  1       21 0.85452399E-02 0.60962295E+01</pdfrwt>
<pdfrwt beam="2">  1       21 0.11436297E-03 0.60962295E+01</pdfrwt>
<totfact> 0.27825831E+09</totfact>
</mgrwt>
</event>
<event>
 4    1  0.3931501E+006  0.5414564E+01  0.7546771E-02  0.2498478E+00
         21   -1    0    0  501  502  0.00000000000E+00  0.00000000000E+00  0.13050628196E+02  0.13050628196E+02  0.00000000000E+00 0.  1.
         21   -1    0    0  502  503 -0.00000000000E+00 -0.00000000000E+00 -0.61939687879E+01  0.61939687879E+01  0.00000000000E+00 0.  1.
          5    1    1    2  501    0 -0.45440075883E-01  0.26880171563E+01  0.11110019582E+02  0.12359208556E+02  0.47000000000E+01 0.  1.
         -5    1    1    2    0  503  0.45440075883E-01 -0.26880171563E+01 -0.42533601736E+01  0.68853884276E+01  0.47000000000E+01 0.  1.
<mgrwt>
<rscale>  2 0.54145638E+01</rscale>
<asrwt>0</asrwt>
<pdfrwt beam="1">  1       21 0.20077889E-02 0.54145638E+01</pdfrwt>
<pdfrwt beam="2">  1       21 0.95291828E-03 0.54145638E+01</pdfrwt>
<totfact> 0.11475032E+09</totfact>
</mgrwt>
</event>
<event>
 4    1  0.3931501E+006  0.5543453E+01  0.7546771E-02  0.2478923E+00
         21   -1    0    0  501  502  0.00000000000E+00  0.00000000000E+00  0.20619121124E+02  0.20619121124E+02  0.00000000000E+00 0. -1.
         21   -1    0    0  502  503 -0.00000000000E+00 -0.00000000000E+00 -0.17517020960E+01  0.17517020960E+01  0.00000000000E+00 0. -1.
          5    1    1    2  501    0 -0.29348570568E+01  0.16274394450E+00  0.13754151876E+02  0.14829246959E+02  0.47000000000E+01 0. -1.
         -5    1    1    2    0  503  0.29348570568E+01 -0.16274394450E+00  0.51132671516E+01  0.75415762609E+01  0.47000000000E+01 0. -1.
<mgrwt>
<rscale>  2 0.55434530E+01</rscale>
<asrwt>0</asrwt>
<pdfrwt beam="1">  1       21 0.31721723E-02 0.55434530E+01</pdfrwt>
<pdfrwt beam="2">  1       21 0.26949264E-03 0.55434530E+01</pdfrwt>
<totfact> 0.34791285E+09</totfact>
</mgrwt>
</event>
<event>
 4    1  0.3931501E+006  0.6416816E+01  0.7546771E-02  0.2364138E+00
         21   -1    0    0  503  502  0.00000000000E+00  0.00000000000E+00  0.14073707838E+02  0.14073707838E+02  0.00000000000E+00 0. -1.
         21   -1    0    0  501  503 -0.00000000000E+00 -0.00000000000E+00 -0.67428347446E+01  0.67428347446E+01  0.00000000000E+00 0. -1.
          5    1    1    2  501    0  0.37497163978E+01  0.22416857848E+01 -0.41657174222E+01  0.76504071698E+01  0.47000000000E+01 0. -1.
         -5    1    1    2    0  502 -0.37497163978E+01 -0.22416857848E+01  0.11496590515E+02  0.13166135412E+02  0.47000000000E+01 0. -1.
<mgrwt>
<rscale>  2 0.64168161E+01</rscale>
<asrwt>0</asrwt>
<pdfrwt beam="1">  1       21 0.21651858E-02 0.64168161E+01</pdfrwt>
<pdfrwt beam="2">  1       21 0.10373592E-02 0.64168161E+01</pdfrwt>
<totfact> 0.10525683E+09</totfact>
</mgrwt>
</event>
<event>
 4    1  0.3931501E+006  0.1074544E+02  0.7546771E-02  0.2034891E+00
         21   -1    0    0  503  502  0.00000000000E+00  0.00000000000E+00  0.16317709610E+03  0.16317709610E+03  0.00000000000E+00 0.  1.
         21   -1    0    0  501  503 -0.00000000000E+00 -0.00000000000E+00 -0.99615263893E+00  0.99615263893E+00  0.00000000000E+00 0. -1.
          5    1    1    2  501    0  0.23587366338E+01 -0.93707456699E+01  0.36911039166E+02  0.38443326147E+02  0.47000000000E+01 0. -1.
         -5    1    1    2    0  502 -0.23587366338E+01  0.93707456699E+01  0.12526990429E+03  0.12572992259E+03  0.47000000000E+01 0.  1.
<mgrwt>
<rscale>  2 0.10745441E+02</rscale>
<asrwt>0</asrwt>
<pdfrwt beam="1">  1       21 0.25104147E-01 0.10745441E+02</pdfrwt>
<pdfrwt beam="2">  1       21 0.15325438E-03 0.10745441E+02</pdfrwt>
<totfact> 0.47510237E+08</totfact>
</mgrwt>
</event>
<event>
 4    1  0.3931501E+006  0.5938340E+01  0.7546771E-02  0.2423518E+00
         21   -1    0    0  501  502  0.00000000000E+00  0.00000000000E+00  0.18046941024E+02  0.18046941024E+02  0.00000000000E+00 0. -1.
         21   -1    0    0  502  503 -0.00000000000E+00 -0.00000000000E+00 -0.20649780517E+01  0.20649780517E+01  0.00000000000E+00 0. -1.
          5    1    1    2  501    0  0.25651369219E+01  0.25678706488E+01  0.10322111667E+02  0.11908395205E+02  0.47000000000E+01 0. -1.
         -5    1    1    2    0  503 -0.25651369219E+01 -0.25678706488E+01  0.56598513055E+01  0.82035238707E+01  0.47000000000E+01 0. -1.
<mgrwt>
<rscale>  2 0.59383404E+01</rscale>
<asrwt>0</asrwt>
<pdfrwt beam="1">  1       21 0.27764524E-02 0.59383404E+01</pdfrwt>
<pdfrwt beam="2">  1       21 0.31768894E-03 0.59383404E+01</pdfrwt>
<totfact> 0.35875788E+09</totfact>
</mgrwt>
</event>
<event>
 4    1  0.3931501E+006  0.5965745E+01  0.7546771E-02  0.2419903E+00
         21   -1    0    0  503  502  0.00000000000E+00  0.00000000000E+00  0.10329077959E+01  0.10329077959E+01  0.00000000000E+00 0. -1.
         21   -1    0    0  501  503 -0.00000000000E+00 -0.00000000000E+00 -0.78681862227E+02  0.78681862227E+02  0.00000000000E+00 0.  1.
          5    1    1    2  501    0  0.35491641905E+01 -0.95055208153E+00 -0.68706395784E+02  0.68964910914E+02  0.47000000000E+01 0.  1.
         -5    1    1    2    0  502 -0.35491641905E+01  0.95055208153E+00 -0.89425586475E+01  0.10749859110E+02  0.47000000000E+01 0. -1.
<mgrwt>
<rscale>  2 0.59657452E+01</rscale>
<asrwt>0</asrwt>
<pdfrwt beam="1">  1       21 0.15890887E-03 0.59657452E+01</pdfrwt>
<pdfrwt beam="2">  1       21 0.12104904E-01 0.59657452E+01</pdfrwt>
<totfact> 0.10262207E+09</totfact>
</mgrwt>
</event>
<event>
 4    1  0.3931501E+006  0.6806985E+01  0.7546771E-02  0.2320904E+00
         21   -1    0    0  501  502  0.00000000000E+00  0.00000000000E+00  0.38504522537E+02  0.38504522537E+02  0.00000000000E+00 0.  1.
         21   -1    0    0  502  503 -0.00000000000E+00 -0.00000000000E+00 -0.12389288621E+01  0.12389288621E+01  0.00000000000E+00 0. -1.
          5    1    1    2  501    0  0.48991904675E+01 -0.49293379322E+00  0.21999524175E+02  0.23028549995E+02  0.47000000000E+01 0.  1.
         -5    1    1    2    0  503 -0.48991904675E+01  0.49293379322E+00  0.15266069500E+02  0.16714901404E+02  0.47000000000E+01 0. -1.
<mgrwt>
<rscale>  2 0.68069855E+01</rscale>
<asrwt>0</asrwt>
<pdfrwt beam="1">  1       21 0.59237718E-02 0.68069855E+01</pdfrwt>
<pdfrwt beam="2">  1       21 0.19060447E-03 0.68069855E+01</pdfrwt>
<totfact> 0.26509315E+09</totfact>
</mgrwt>
</event>
<event>
 4    1  0.3931501E+006  0.7353200E+01  0.7546771E-02  0.2266793E+00
         21   -1    0    0  501  502  0.00000000000E+00  0.00000000000E+00  0.52658338844E+01  0.52658338844E+01  0.00000000000E+00 0. -1.
         21   -1    0    0  502  503 -0.00000000000E+00 -0.00000000000E+00 -0.10432962364E+02  0.10432962364E+02  0.00000000000E+00 0.  1.
          5    1    1    2  501    0  0.55892402531E+01  0.86020006244E+00 -0.15965285322E+01  0.75245235137E+01  0.47000000000E+01 0. -1.
         -5    1    1    2    0  503 -0.55892402531E+01 -0.86020006244E+00 -0.35705999470E+01  0.81742727344E+01  0.47000000000E+01 0.  1.
<mgrwt>
<rscale>  2 0.73532000E+01</rscale>
<asrwt>0</asrwt>
<pdfrwt beam="1">  1       21 0.81012829E-03 0.73532000E+01</pdfrwt>
<pdfrwt beam="2">  1       21 0.16050711E-02 0.73532000E+01</pdfrwt>
<totfact> 0.25601696E+09</totfact>
</mgrwt>
</event>
<event>
 4    1  0.3931501E+006  0.5860365E+01  0.7546771E-02  0.2433959E+00
         21   -1    0    0  503  502  0.00000000000E+00  0.00000000000E+00  0.27428251407E+00  0.27428251407E+00  0.00000000000E+00 0.  1.
         21   -1    0    0  501  503 -0.00000000000E+00 -0.00000000000E+00 -0.12527874063E+03  0.12527874063E+03  0.00000000000E+00 0. -1.
          5    1    1    2  501    0  0.29526681777E+01 -0.18803259461E+01 -0.63934746389E+02  0.64202769962E+02  0.47000000000E+01 0. -1.
         -5    1    1    2    0  502 -0.29526681777E+01  0.18803259461E+01 -0.61069711725E+02  0.61350253180E+02  0.47000000000E+01 0. -1.
<mgrwt>
<rscale>  2 0.58603648E+01</rscale>
<asrwt>0</asrwt>
<pdfrwt beam="1">  1       21 0.42197336E-04 0.58603648E+01</pdfrwt>
<pdfrwt beam="2">  1       21 0.19273641E-01 0.58603648E+01</pdfrwt>
<totfact> 0.28744159E+09</totfact>
</mgrwt>
</event>
<event>
 4    1  0.3931501E+006  0.9064446E+01  0.7546771E-02  0.2132499E+00
         21   -1    0    0  501  502  0.00000000000E+00  0.00000000000E+00  0.44640528381E+03  0.44640528381E+03  0.00000000000E+00 0.  1.
         21   -1    0    0  502  503 -0.00000000000E+00 -0.00000000000E+00 -0.19056749221E+00  0.19056749221E+00  0.00000000000E+00 0.  1.
          5    1    1    2  501    0  0.77483784686E+01 -0.19184775485E+00  0.26437935204E+03  0.26453469708E+03  0.47000000000E+01 0.  1.
         -5    1    1    2    0  503 -0.77483784686E+01  0.19184775485E+00  0.18183536428E+03  0.18206115422E+03  0.47000000000E+01 0.  1.
<mgrwt>
<rscale>  2 0.90644456E+01</rscale>
<asrwt>0</asrwt>
<pdfrwt beam="1">  1       21 0.68676899E-01 0.90644456E+01</pdfrwt>
<pdfrwt beam="2">  1       21 0.29318433E-04 0.90644456E+01</pdfrwt>
<totfact> 0.67544257E+08</totfact>
</mgrwt>
</event>
<event>
 4    1  0.3931501E+006  0.1262903E+02  0.7546771E-02  0.1950418E+00
         21   -1    0    0  503  502  0.00000000000E+00  0.00000000000E+00  0.16466958739E+03  0.16466958739E+03  0.00000000000E+00 0.  1.
         21   -1    0    0  501  503 -0.00000000000E+00 -0.00000000000E+00 -0.22776355182E+01  0.22776355182E+01  0.00000000000E+00 0. -1.
          5    1    1    2  501    0 -0.25782010139E+01 -0.11434831498E+02  0.17912645999E+02  0.21917011168E+02  0.47000000000E+01 0. -1.
         -5    1    1    2    0  502  0.25782010139E+01  0.11434831498E+02  0.14447930587E+03  0.14503021174E+03  0.47000000000E+01 0.  1.
<mgrwt>
<rscale>  2 0.12629034E+02</rscale>
<asrwt>0</asrwt>
<pdfrwt beam="1">  1       21 0.25333773E-01 0.12629034E+02</pdfrwt>
<pdfrwt beam="2">  1       21 0.35040560E-03 0.12629034E+02</pdfrwt>
<totfact> 0.15631268E+08</totfact>
</mgrwt>
</event>
<event>
 4    1  0.3931501E+006  0.4952305E+01  0.7546771E-02  0.2575685E+00
         21   -1    0    0  503  502  0.00000000000E+00  0.00000000000E+00  0.87511508643E+03  0.87511508643E+03  0.00000000000E+00 0.  1.
         21   -1    0    0  501  503 -0.00000000000E+00 -0.00000000000E+00 -0.46985746902E-01  0.46985746902E-01  0.00000000000E+00 0.  1.
          5    1    1    2  501    0 -0.11470869225E+01  0.10580720286E+01  0.15956259111E+03  0.15963942435E+03  0.47000000000E+01 0.  1.
         -5    1    1    2    0  502  0.11470869225E+01 -0.10580720286E+01  0.71550550957E+03  0.71552264782E+03  0.47000000000E+01 0.  1.
<mgrwt>
<rscale>  2 0.49523050E+01</rscale>
<asrwt>0</asrwt>
<pdfrwt beam="1">  1       21 0.13462004E+00 0.49523050E+01</pdfrwt>
<pdfrwt beam="2">  1       21 0.72292773E-05 0.49523050E+01</pdfrwt>
<totfact> 0.77108877E+08</totfact>
</mgrwt>
</event>
<event>
 4    1  0.3931501E+006  0.4806781E+01  0.7546771E-02  0.2602616E+00
         21   -1    0    0  503  502  0.00000000000E+00  0.00000000000E+00  0.95501627731E+01  0.95501627731E+01  0.00000000000E+00 0. -1.
         21   -1    0    0  501  503 -0.00000000000E+00 -0.00000000000E+00 -0.25960554984E+01  0.25960554984E+01  0.00000000000E+00 0. -1.
          5    1    1    2  501    0 -0.25783079847E+00  0.97399454464E+00  0.18925807221E+01  0.51659465622E+01  0.47000000000E+01 0. -1.
         -5    1    1    2    0  502  0.25783079847E+00 -0.97399454464E+00  0.50615265526E+01  0.69802717094E+01  0.47000000000E+01 0. -1.
<mgrwt>
<rscale>  2 0.48067808E+01</rscale>
<asrwt>0</asrwt>
<pdfrwt beam="1">  1       21 0.14692558E-02 0.48067808E+01</pdfrwt>
<pdfrwt beam="2">  1       21 0.39939316E-03 0.48067808E+01</pdfrwt>
<totfact> 0.52644492E+09</totfact>
</mgrwt>
</event>
<event>
 4    1  0.3931501E+006  0.6643483E+01  0.7546771E-02  0.2338510E+00
         21   -1    0    0  503  502  0.00000000000E+00  0.00000000000E+00  0.27781126527E+03  0.27781126527E+03  0.00000000000E+00 0. -1.
         21   -1    0    0  501  503 -0.00000000000E+00 -0.00000000000E+00 -0.32422169500E+00  0.32422169500E+00  0.00000000000E+00 0. -1.
          5    1    1    2  501    0 -0.59827994586E+00  0.46570299959E+01  0.39429690248E+02  0.39985451608E+02  0.47000000000E+01 0. -1.
         -5    1    1    2    0  502  0.59827994586E+00 -0.46570299959E+01  0.23805735333E+03  0.23815003536E+03  0.47000000000E+01 0. -1.
<mgrwt>
<rscale>  2 0.66434831E+01</rscale>
<asrwt>0</asrwt>
<pdfrwt beam="1">  1       21 0.42740004E-01 0.66434831E+01</pdfrwt>
<pdfrwt beam="2">  1       21 0.49880483E-04 0.66434831E+01</pdfrwt>
<totfact> 0.66088902E+08</totfact>
</mgrwt>
</event>
<event>
 4    1  0.3931501E+006  0.5673173E+01  0.7546771E-02  0.2460006E+00
         21   -1    0    0  501  502  0.00000000000E+00  0.00000000000E+00  0.66448488260E+02  0.66448488260E+02  0.00000000000E+00 0. -1.
         21   -1    0    0  502  503 -0.00000000000E+00 -0.00000000000E+00 -0.98058839609E+00  0.98058839609E+00  0.00000000000E+00 0. -1.
          5    1    1    2  501    0  0.19920767731E+01  0.24751812254E+01  0.56717600751E+02  0.57000623917E+02  0.47000000000E+01 0. -1.
         -5    1    1    2    0  503 -0.19920767731E+01 -0.24751812254E+01  0.87502991131E+01  0.10428452739E+02  0.47000000000E+01 0. -1.
<mgrwt>
<rscale>  2 0.56731730E+01</rscale>
<asrwt>0</asrwt>
<pdfrwt beam="1">  1       21 0.10222841E-01 0.56731730E+01</pdfrwt>
<pdfrwt beam="2">  1       21 0.15085981E-03 0.56731730E+01</pdfrwt>
<totfact> 0.13711497E+09</totfact>
</mgrwt>
</event>
<event>
 4    1  0.3931501E+006  0.5824523E+01  0.7546771E-02  0.2438837E+00
         21   -1    0    0  501  502  0.00000000000E+00  0.00000000000E+00  0.23789828914E+00  0.23789828914E+00  0.00000000000E+00 0.  1.
         21   -1    0    0  502  503 -0.00000000000E+00 -0.00000000000E+00 -0.14482794114E+03  0.14482794114E+03  0.00000000000E+00 0.  1.
          5    1    1    2  501    0 -0.31007945391E+01 -0.14900146400E+01 -0.63305359673E+02  0.63572742852E+02  0.47000000000E+01 0. -1.
         -5    1    1    2    0  503  0.31007945391E+01  0.14900146400E+01 -0.81284683175E+02  0.81493096574E+02  0.47000000000E+01 0. -1.
<mgrwt>
<rscale>  2 0.58245232E+01</rscale>
<asrwt>0</asrwt>
<pdfrwt beam="1">  1       21 0.36599677E-04 0.58245232E+01</pdfrwt>
<pdfrwt beam="2">  1       21 0.22281258E-01 0.58245232E+01</pdfrwt>
<totfact> 0.27349306E+09</totfact>
</mgrwt>
</event>
<event>
 4    1  0.3931501E+006  0.8922586E+01  0.7546771E-02  0.2142045E+00
         21   -1    0    0  503  502  0.00000000000E+00  0.00000000000E+00  0.14570266909E+03  0.14570266909E+03  0.00000000000E+00 0.  1.
         21   -1    0    0  501  503 -0.00000000000E+00 -0.00000000000E+00 -0.57101835593E+00  0.57101835593E+00  0.00000000000E+00 0. -1.
          5    1    1    2  501    0 -0.13489135218E+00 -0.75831622853E+01  0.57381205617E+02  0.58070778400E+02  0.47000000000E+01 0. -1.
         -5    1    1    2    0  502  0.13489135218E+00  0.75831622853E+01  0.87750445121E+02  0.88202909050E+02  0.47000000000E+01 0.  1.
<mgrwt>
<rscale>  2 0.89225863E+01</rscale>
<asrwt>0</asrwt>
<pdfrwt beam="1">  1       21 0.22415766E-01 0.89225863E+01</pdfrwt>
<pdfrwt beam="2">  1       21 0.87849094E-04 0.89225863E+01</pdfrwt>
<totfact> 0.11232249E+09</totfact>
</mgrwt>
</event>
<event>
 4    1  0.3931501E+006  0.6190825E+01  0.7546771E-02  0.2391230E+00
         21   -1    0    0  501  502  0.00000000000E+00  0.00000000000E+00  0.71050772493E+00  0.71050772493E+00  0.00000000000E+00 0.  1.
         21   -1    0    0  502  503 -0.00000000000E+00 -0.00000000000E+00 -0.66008706305E+03  0.66008706305E+03  0.00000000000E+00 0. -1.
          5    1    1    2  501    0 -0.38831199927E+01 -0.10759590603E+01 -0.13077228657E+02  0.14468594200E+02  0.47000000000E+01 0.  1.
         -5    1    1    2    0  503  0.38831199927E+01  0.10759590603E+01 -0.64629932667E+03  0.64632897658E+03  0.47000000000E+01 0. -1.
<mgrwt>
<rscale>  2 0.61908246E+01</rscale>
<asrwt>0</asrwt>
<pdfrwt beam="1">  1       21 0.10930850E-03 0.61908246E+01</pdfrwt>
<pdfrwt beam="2">  1       21 0.10155221E+00 0.61908246E+01</pdfrwt>
<totfact> 0.42788105E+07</totfact>
</mgrwt>
</event>
<event>
 4    1  0.3931501E+006  0.8259728E+01  0.7546771E-02  0.2190073E+00
         21   -1    0    0  503  502  0.00000000000E+00  0.00000000000E+00  0.12087356750E+01  0.12087356750E+01  0.00000000000E+00 0.  1.
         21   -1    0    0  501  503 -0.00000000000E+00 -0.00000000000E+00 -0.56444269110E+02  0.56444269110E+02  0.00000000000E+00 0. -1.
          5    1    1    2  501    0 -0.64009798424E+01  0.22716889668E+01 -0.27423831618E+02  0.28640699264E+02  0.47000000000E+01 0. -1.
         -5    1    1    2    0  502  0.64009798424E+01 -0.22716889668E+01 -0.27811701818E+02  0.29012305522E+02  0.47000000000E+01 0.  1.
<mgrwt>
<rscale>  2 0.82597284E+01</rscale>
<asrwt>0</asrwt>
<pdfrwt beam="1">  1       21 0.18595935E-03 0.82597284E+01</pdfrwt>
<pdfrwt beam="2">  1       21 0.86837332E-02 0.82597284E+01</pdfrwt>
<totfact> 0.17581197E+09</totfact>
</mgrwt>
</event>
<event>
 4    1  0.3931501E+006  0.5603422E+01  0.7546771E-02  0.2470086E+00
         21   -1    0    0  501  502  0.00000000000E+00  0.00000000000E+00  0.22674430659E+02  0.22674430659E+02  0.00000000000E+00 0. -1.
         21   -1    0    0  502  503 -0.00000000000E+00 -0.00000000000E+00 -0.18948851903E+01  0.18948851903E+01  0.00000000000E+00 0.  1.
          5    1    1    2  501    0  0.30213514307E+01 -0.42399802314E+00  0.16763826799E+02  0.17675526236E+02  0.47000000000E+01 0. -1.
         -5    1    1    2    0  503 -0.30213514307E+01  0.42399802314E+00  0.40157186699E+01  0.68937896129E+01  0.47000000000E+01 0.  1.
<mgrwt>
<rscale>  2 0.56034221E+01</rscale>
<asrwt>0</asrwt>
<pdfrwt beam="1">  1       21 0.34883737E-02 0.56034221E+01</pdfrwt>
<pdfrwt beam="2">  1       21 0.29152082E-03 0.56034221E+01</pdfrwt>
<totfact> 0.27496236E+09</totfact>
</mgrwt>
</event>
<event>
 4    1  0.3931501E+006  0.5837648E+01  0.7546771E-02  0.2437045E+00
         21   -1    0    0  503  502  0.00000000000E+00  0.00000000000E+00  0.20213876122E+03  0.20213876122E+03  0.00000000000E+00 0. -1.
         21   -1    0    0  501  503 -0.00000000000E+00 -0.00000000000E+00 -0.17111023367E+00  0.17111023367E+00  0.00000000000E+00 0. -1.
          5    1    1    2  501    0 -0.11722389535E+01  0.32579117626E+01  0.11326548883E+03  0.11341582382E+03  0.47000000000E+01 0. -1.
         -5    1    1    2    0  502  0.11722389535E+01 -0.32579117626E+01  0.88702162150E+02  0.88894047626E+02  0.47000000000E+01 0. -1.
<mgrwt>
<rscale>  2 0.58376479E+01</rscale>
<asrwt>0</asrwt>
<pdfrwt beam="1">  1       21 0.31098080E-01 0.58376479E+01</pdfrwt>
<pdfrwt beam="2">  1       21 0.26324813E-04 0.58376479E+01</pdfrwt>
<totfact> 0.24479162E+09</totfact>
</mgrwt>
</event>
<event>
 4    1  0.3931501E+006  0.5584517E+01  0.7546771E-02  0.2472855E+00
         21   -1    0    0  501  502  0.00000000000E+00  0.00000000000E+00  0.29818466313E+01  0.29818466313E+01  0.00000000000E+00 0.  1.
         21   -1    0    0  502  503 -0.00000000000E+00 -0.00000000000E+00 -0.19658367182E+02  0.19658367182E+02  0.00000000000E+00 0. -1.
          5    1    1    2  501    0  0.30144218262E+01  0.10044410365E+00 -0.59438756364E+00  0.56160595207E+01  0.47000000000E+01 0.  1.
         -5    1    1    2    0  503 -0.30144218262E+01 -0.10044410365E+00 -0.16082132987E+02  0.17024154292E+02  0.47000000000E+01 0. -1.
<mgrwt>
<rscale>  2 0.55845168E+01</rscale>
<asrwt>0</asrwt>
<pdfrwt beam="1">  1       21 0.45874562E-03 0.55845168E+01</pdfrwt>
<pdfrwt beam="2">  1       21 0.30243643E-02 0.55845168E+01</pdfrwt>
<totfact> 0.18089435E+09</totfact>
</mgrwt>
</event>
<event>
 4    1  0.3931501E+006  0.9443498E+01  0.7546771E-02  0.2108115E+00
         21   -1    0    0  501  502  0.00000000000E+00  0.00000000000E+00  0.80913564186E+01  0.80913564186E+01  0.00000000000E+00 0. -1.
         21   -1    0    0  502  503 -0.00000000000E+00 -0.00000000000E+00 -0.13606817368E+02  0.13606817368E+02  0.00000000000E+00 0. -1.
          5    1    1    2  501    0 -0.57595918105E+01 -0.58238086711E+01  0.19712110863E+01  0.96470367682E+01  0.47000000000E+01 0. -1.
         -5    1    1    2    0  503  0.57595918105E+01  0.58238086711E+01 -0.74866720353E+01  0.12051137018E+02  0.47000000000E+01 0. -1.
<mgrwt>
<rscale>  2 0.94434975E+01</rscale>
<asrwt>0</asrwt>
<pdfrwt beam="1">  1       21 0.12448241E-02 0.94434975E+01</pdfrwt>
<pdfrwt beam="2">  1       21 0.20933565E-02 0.94434975E+01</pdfrwt>
<totfact> 0.11124302E+09</totfact>
</mgrwt>
</event>
<event>
 4    1  0.3931501E+006  0.4897583E+01  0.7546771E-02  0.2585649E+00
         21   -1    0    0  503  502  0.00000000000E+00  0.00000000000E+00  0.39607245027E-01  0.39607245027E-01  0.00000000000E+00 0. -1.
         21   -1    0    0  501  503 -0.00000000000E+00 -0.00000000000E+00 -0.61047158372E+03  0.61047158372E+03  0.00000000000E+00 0. -1.
          5    1    1    2  501    0 -0.88793249825E+00  0.10525674837E+01 -0.33247242854E+03  0.33250849923E+03  0.47000000000E+01 0. -1.
         -5    1    1    2    0  502  0.88793249825E+00 -0.10525674837E+01 -0.27795954794E+03  0.27800269174E+03  0.47000000000E+01 0. -1.
<mgrwt>
<rscale>  2 0.48975833E+01</rscale>
<asrwt>0</asrwt>
<pdfrwt beam="1">  1       21 0.60927837E-05 0.48975833E+01</pdfrwt>
<pdfrwt beam="2">  1       21 0.93928549E-01 0.48975833E+01</pdfrwt>
<totfact> 0.19976331E+09</totfact>
</mgrwt>
</event>
<event>
 4    1  0.3931501E+006  0.4778188E+01  0.7546771E-02  0.2608074E+00
         21   -1    0    0  503  502  0.00000000000E+00  0.00000000000E+00  0.15716281860E+02  0.15716281860E+02  0.00000000000E+00 0. -1.
         21   -1    0    0  501  503 -0.00000000000E+00 -0.00000000000E+00 -0.33712664765E+01  0.33712664765E+01  0.00000000000E+00 0. -1.
          5    1    1    2  501    0 -0.37607045058E+00  0.77437209296E+00 -0.10271485688E+01  0.48873423560E+01  0.47000000000E+01 0. -1.
         -5    1    1    2    0  502  0.37607045058E+00 -0.77437209296E+00  0.13372163952E+02  0.14200205980E+02  0.47000000000E+01 0. -1.
<mgrwt>
<rscale>  2 0.47781881E+01</rscale>
<asrwt>0</asrwt>
<pdfrwt beam="1">  1       21 0.24178895E-02 0.47781881E+01</pdfrwt>
<pdfrwt beam="2">  1       21 0.51865639E-03 0.47781881E+01</pdfrwt>
<totfact> 0.18119361E+09</totfact>
</mgrwt>
</event>
<event>
 4    1  0.3931501E+006  0.6150439E+01  0.7546771E-02  0.2396246E+00
         21   -1    0    0  501  502  0.00000000000E+00  0.00000000000E+00  0.23834348306E+02  0.23834348306E+02  0.00000000000E+00 0. -1.
         21   -1    0    0  502  503 -0.00000000000E+00 -0.00000000000E+00 -0.20457409497E+01  0.20457409497E+01  0.00000000000E+00 0. -1.
          5    1    1    2  501    0 -0.27665176691E+01  0.28432865737E+01  0.17021176088E+02  0.18098296439E+02  0.47000000000E+01 0. -1.
         -5    1    1    2    0  503  0.27665176691E+01 -0.28432865737E+01  0.47674312682E+01  0.77817928173E+01  0.47000000000E+01 0. -1.
<mgrwt>
<rscale>  2 0.61504389E+01</rscale>
<asrwt>0</asrwt>
<pdfrwt beam="1">  1       21 0.36668226E-02 0.61504389E+01</pdfrwt>
<pdfrwt beam="2">  1       21 0.31472939E-03 0.61504389E+01</pdfrwt>
<totfact> 0.24982955E+09</totfact>
</mgrwt>
</event>
<event>
 4    1  0.3931501E+006  0.5271058E+01  0.7546771E-02  0.2521204E+00
         21   -1    0    0  503  502  0.00000000000E+00  0.00000000000E+00  0.26929533203E+03  0.26929533203E+03  0.00000000000E+00 0.  1.
         21   -1    0    0  501  503 -0.00000000000E+00 -0.00000000000E+00 -0.10326088139E+00  0.10326088139E+00  0.00000000000E+00 0.  1.
          5    1    1    2  501    0  0.16612600741E+01 -0.17129704006E+01  0.13067022365E+03  0.13077649407E+03  0.47000000000E+01 0.  1.
         -5    1    1    2    0  502 -0.16612600741E+01  0.17129704006E+01  0.13852184750E+03  0.13862209884E+03  0.47000000000E+01 0.  1.
<mgrwt>
<rscale>  2 0.52710580E+01</rscale>
<asrwt>0</asrwt>
<pdfrwt beam="1">  1       21 0.41429489E-01 0.52710580E+01</pdfrwt>
<pdfrwt beam="2">  1       21 0.15886505E-04 0.52710580E+01</pdfrwt>
<totfact> 0.26925994E+09</totfact>
</mgrwt>
</event>
<event>
 4    1  0.3931501E+006  0.4744262E+01  0.7546771E-02  0.2614624E+00
         21   -1    0    0  501  502  0.00000000000E+00  0.00000000000E+00  0.71158721128E+01  0.71158721128E+01  0.00000000000E+00 0.  1.
         21   -1    0    0  502  503 -0.00000000000E+00 -0.00000000000E+00 -0.86747743037E+01  0.86747743037E+01  0.00000000000E+00 0.  1.
          5    1    1    2  501    0 -0.59444891149E+00  0.25426604893E+00  0.55139247695E+01  0.72740213840E+01  0.47000000000E+01 0.  1.
         -5    1    1    2    0  503  0.59444891149E+00 -0.25426604893E+00 -0.70728269603E+01  0.85166250324E+01  0.47000000000E+01 0.  1.
<mgrwt>
<rscale>  2 0.47442619E+01</rscale>
<asrwt>0</asrwt>
<pdfrwt beam="1">  1       21 0.10947496E-02 0.47442619E+01</pdfrwt>
<pdfrwt beam="2">  1       21 0.13345807E-02 0.47442619E+01</pdfrwt>
<totfact> 0.14811227E+09</totfact>
</mgrwt>
</event>
<event>
 4    1  0.3931501E+006  0.5957334E+01  0.7546771E-02  0.2421010E+00
         21   -1    0    0  503  502  0.00000000000E+00  0.00000000000E+00  0.91862451266E+00  0.91862451266E+00  0.00000000000E+00 0. -1.
         21   -1    0    0  501  503 -0.00000000000E+00 -0.00000000000E+00 -0.40446650283E+02  0.40446650283E+02  0.00000000000E+00 0.  1.
          5    1    1    2  501    0  0.41160476024E+00 -0.36373637958E+01 -0.24142877253E+02  0.24867013409E+02  0.47000000000E+01 0. -1.
         -5    1    1    2    0  502 -0.41160476024E+00  0.36373637958E+01 -0.15385148518E+02  0.16498261386E+02  0.47000000000E+01 0.  1.
<mgrwt>
<rscale>  2 0.59573345E+01</rscale>
<asrwt>0</asrwt>
<pdfrwt beam="1">  1       21 0.14132685E-03 0.59573345E+01</pdfrwt>
<pdfrwt beam="2">  1       21 0.62225614E-02 0.59573345E+01</pdfrwt>
<totfact> 0.33085276E+09</totfact>
</mgrwt>
</event>
<event>
 4    1  0.3931501E+006  0.5056598E+01  0.7546771E-02  0.2557210E+00
         21   -1    0    0  501  502  0.00000000000E+00  0.00000000000E+00  0.32042454447E+03  0.32042454447E+03  0.00000000000E+00 0. -1.
         21   -1    0    0  502  503 -0.00000000000E+00 -0.00000000000E+00 -0.81137023940E-01  0.81137023940E-01  0.00000000000E+00 0. -1.
          5    1    1    2  501    0 -0.17967158120E+01 -0.50099034783E+00  0.13958342172E+03  0.13967498272E+03  0.47000000000E+01 0. -1.
         -5    1    1    2    0  503  0.17967158120E+01  0.50099034783E+00  0.18075998573E+03  0.18083069877E+03  0.47000000000E+01 0. -1.
<mgrwt>
<rscale>  2 0.50565976E+01</rscale>
<asrwt>0</asrwt>
<pdfrwt beam="1">  1       21 0.49295071E-01 0.50565976E+01</pdfrwt>
<pdfrwt beam="2">  1       21 0.12482876E-04 0.50565976E+01</pdfrwt>
<totfact> 0.26347034E+09</totfact>
</mgrwt>
</event>
<event>
 4    1  0.3931501E+006  0.5519324E+01  0.7546771E-02  0.2482525E+00
         21   -1    0    0  503  502  0.00000000000E+00  0.00000000000E+00  0.17221030011E+00  0.17221030011E+00  0.00000000000E+00 0. -1.
         21   -1    0    0  501  503 -0.00000000000E+00 -0.00000000000E+00 -0.24327624933E+03  0.24327624933E+03  0.00000000000E+00 0. -1.
          5    1    1    2  501    0  0.57738174323E+00  0.28354136604E+01 -0.18513687718E+03  0.18521913031E+03  0.47000000000E+01 0. -1.
         -5    1    1    2    0  502 -0.57738174323E+00 -0.28354136604E+01 -0.57967161848E+02  0.58229329319E+02  0.47000000000E+01 0. -1.
<mgrwt>
<rscale>  2 0.55193243E+01</rscale>
<asrwt>0</asrwt>
<pdfrwt beam="1">  1       21 0.26493901E-04 0.55193243E+01</pdfrwt>
<pdfrwt beam="2">  1       21 0.37427103E-01 0.55193243E+01</pdfrwt>
<totfact> 0.16916603E+09</totfact>
</mgrwt>
</event>
<event>
 4    1  0.3931501E+006  0.7078853E+01  0.7546771E-02  0.2293117E+00
         21   -1    0    0  501  502  0.00000000000E+00  0.00000000000E+00  0.35432066668E+00  0.35432066668E+00  0.00000000000E+00 0. -1.
         21   -1    0    0  502  503 -0.00000000000E+00 -0.00000000000E+00 -0.18413797210E+03  0.18413797210E+03  0.00000000000E+00 0.  1.
          5    1    1    2  501    0 -0.52593021573E+01  0.59991564920E+00 -0.47464382728E+02  0.47989350753E+02  0.47000000000E+01 0. -1.
         -5    1    1    2    0  503  0.52593021573E+01 -0.59991564920E+00 -0.13631926870E+03  0.13650294201E+03  0.47000000000E+01 0.  1.
<mgrwt>
<rscale>  2 0.70788529E+01</rscale>
<asrwt>0</asrwt>
<pdfrwt beam="1">  1       21 0.54511077E-04 0.70788529E+01</pdfrwt>
<pdfrwt beam="2">  1       21 0.28328812E-01 0.70788529E+01</pdfrwt>
<totfact> 0.12480823E+09</totfact>
</mgrwt>
</event>
<event>
 4    1  0.3931501E+006  0.5087977E+01  0.7546771E-02  0.2551779E+00
         21   -1    0    0  501  502  0.00000000000E+00  0.00000000000E+00  0.14929848639E+03  0.14929848639E+03  0.00000000000E+00 0. -1.
         21   -1    0    0  502  503 -0.00000000000E+00 -0.00000000000E+00 -0.28569194557E+00  0.28569194557E+00  0.00000000000E+00 0. -1.
          5    1    1    2  501    0  0.19386060183E+01  0.19828743951E+00  0.12139766031E+03  0.12150423631E+03  0.47000000000E+01 0. -1.
         -5    1    1    2    0  503 -0.19386060183E+01 -0.19828743951E+00  0.27615134132E+02  0.28079942029E+02  0.47000000000E+01 0. -1.
<mgrwt>
<rscale>  2 0.50879771E+01</rscale>
<asrwt>0</asrwt>
<pdfrwt beam="1">  1       21 0.22968936E-01 0.50879771E+01</pdfrwt>
<pdfrwt beam="2">  1       21 0.43952726E-04 0.50879771E+01</pdfrwt>
<totfact> 0.18132662E+09</totfact>
</mgrwt>
</event>
<event>
 4    1  0.3931501E+006  0.7143626E+01  0.7546771E-02  0.2286753E+00
         21   -1    0    0  501  502  0.00000000000E+00  0.00000000000E+00  0.29107172922E+01  0.29107172922E+01  0.00000000000E+00 0. -1.
         21   -1    0    0  502  503 -0.00000000000E+00 -0.00000000000E+00 -0.31993779510E+02  0.31993779510E+02  0.00000000000E+00 0. -1.
          5    1    1    2  501    0  0.12845001664E+00 -0.53781861413E+01 -0.28080758836E+01  0.76757198845E+01  0.47000000000E+01 0. -1.
         -5    1    1    2    0  503 -0.12845001664E+00  0.53781861413E+01 -0.26274986334E+02  0.27228776917E+02  0.47000000000E+01 0. -1.
<mgrwt>
<rscale>  2 0.71436255E+01</rscale>
<asrwt>0</asrwt>
<pdfrwt beam="1">  1       21 0.44780267E-03 0.71436255E+01</pdfrwt>
<pdfrwt beam="2">  1       21 0.49221198E-02 0.71436255E+01</pdfrwt>
<totfact> 0.11130232E+09</totfact>
</mgrwt>
</event>
<event>
 4    1  0.3931501E+006  0.1520593E+02  0.7546771E-02  0.1861849E+00
         21   -1    0    0  501  502  0.00000000000E+00  0.00000000000E+00  0.33469771614E+00  0.33469771614E+00  0.00000000000E+00 0. -1.
         21   -1    0    0  502  503 -0.00000000000E+00 -0.00000000000E+00 -0.10577635618E+04  0.10577635618E+04  0.00000000000E+00 0.  1.
          5    1    1    2  501    0  0.14163362212E+02 -0.29205523006E+01 -0.21711744921E+03  0.21764927569E+03  0.47000000000E+01 0. -1.
         -5    1    1    2    0  503 -0.14163362212E+02  0.29205523006E+01 -0.84031141490E+03  0.84044898386E+03  0.47000000000E+01 0.  1.
<mgrwt>
<rscale>  2 0.15205935E+02</rscale>
<asrwt>0</asrwt>
<pdfrwt beam="1">  1       21 0.51492266E-04 0.15205935E+02</pdfrwt>
<pdfrwt beam="2">  1       21 0.16273188E+00 0.15205935E+02</pdfrwt>
<totfact> 0.60482905E+07</totfact>
</mgrwt>
</event>
<event>
 4    1  0.3931501E+006  0.5155945E+01  0.7546771E-02  0.2540211E+00
         21   -1    0    0  503  502  0.00000000000E+00  0.00000000000E+00  0.44440798498E+00  0.44440798498E+00  0.00000000000E+00 0. -1.
         21   -1    0    0  501  503 -0.00000000000E+00 -0.00000000000E+00 -0.66527252944E+02  0.66527252944E+02  0.00000000000E+00 0. -1.
          5    1    1    2  501    0 -0.15818008124E+01 -0.14112671666E+01 -0.43675157551E+02  0.43978439671E+02  0.47000000000E+01 0. -1.
         -5    1    1    2    0  502  0.15818008124E+01  0.14112671666E+01 -0.22407687409E+02  0.22993221259E+02  0.47000000000E+01 0. -1.
<mgrwt>
<rscale>  2 0.51559450E+01</rscale>
<asrwt>0</asrwt>
<pdfrwt beam="1">  1       21 0.68370431E-04 0.51559450E+01</pdfrwt>
<pdfrwt beam="2">  1       21 0.10234966E-01 0.51559450E+01</pdfrwt>
<totfact> 0.36125556E+09</totfact>
</mgrwt>
</event>
<event>
 4    1  0.3931501E+006  0.5285333E+01  0.7546771E-02  0.2518896E+00
         21   -1    0    0  503  502  0.00000000000E+00  0.00000000000E+00  0.34281334356E+02  0.34281334356E+02  0.00000000000E+00 0.  1.
         21   -1    0    0  501  503 -0.00000000000E+00 -0.00000000000E+00 -0.18661124185E+01  0.18661124185E+01  0.00000000000E+00 0.  1.
          5    1    1    2  501    0 -0.19960332941E+01  0.13640385042E+01  0.26422718221E+01  0.59090058668E+01  0.47000000000E+01 0.  1.
         -5    1    1    2    0  502  0.19960332941E+01 -0.13640385042E+01  0.29772950116E+02  0.30238440908E+02  0.47000000000E+01 0.  1.
<mgrwt>
<rscale>  2 0.52853335E+01</rscale>
<asrwt>0</asrwt>
<pdfrwt beam="1">  1       21 0.52740510E-02 0.52853335E+01</pdfrwt>
<pdfrwt beam="2">  1       21 0.28709424E-03 0.52853335E+01</pdfrwt>
<totfact> 0.14536039E+09</totfact>
</mgrwt>
</event>
<event>
 4    1  0.3931501E+006  0.6527044E+01  0.7546771E-02  0.2351492E+00
         21   -1    0    0  503  502  0.00000000000E+00  0.00000000000E+00  0.88429759251E-01  0.88429759251E-01  0.00000000000E+00 0. -1.
         21   -1    0    0  501  503 -0.00000000000E+00 -0.00000000000E+00 -0.55233565470E+03  0.55233565470E+03  0.00000000000E+00 0.  1.
          5    1    1    2  501    0  0.33518550954E+01 -0.30458769186E+01 -0.37485503081E+03  0.37491185154E+03  0.47000000000E+01 0. -1.
         -5    1    1    2    0  502 -0.33518550954E+01  0.30458769186E+01 -0.17739219413E+03  0.17751223292E+03  0.47000000000E+01 0. -1.
<mgrwt>
<rscale>  2 0.65270436E+01</rscale>
<asrwt>0</asrwt>
<pdfrwt beam="1">  1       21 0.13604064E-04 0.65270436E+01</pdfrwt>
<pdfrwt beam="2">  1       21 0.84977928E-01 0.65270436E+01</pdfrwt>
<totfact> 0.10293907E+09</totfact>
</mgrwt>
</event>
<event>
 4    1  0.3931501E+006  0.1204324E+02  0.7546771E-02  0.1974494E+00
         21   -1    0    0  501  502  0.00000000000E+00  0.00000000000E+00  0.95499034701E+02  0.95499034701E+02  0.00000000000E+00 0. -1.
         21   -1    0    0  502  503 -0.00000000000E+00 -0.00000000000E+00 -0.29997413052E+01  0.29997413052E+01  0.00000000000E+00 0.  1.
          5    1    1    2  501    0  0.99757119208E+01 -0.48409402576E+01  0.80854309352E+02  0.81746308001E+02  0.47000000000E+01 0. -1.
         -5    1    1    2    0  503 -0.99757119208E+01  0.48409402576E+01  0.11644984044E+02  0.16752468006E+02  0.47000000000E+01 0.  1.
<mgrwt>
<rscale>  2 0.12043236E+02</rscale>
<asrwt>0</asrwt>
<pdfrwt beam="1">  1       21 0.14692157E-01 0.12043236E+02</pdfrwt>
<pdfrwt beam="2">  1       21 0.46149874E-03 0.12043236E+02</pdfrwt>
<totfact> 0.25910699E+08</totfact>
</mgrwt>
</event>
<event>
 4    1  0.3931501E+006  0.6094646E+01  0.7546771E-02  0.2403266E+00
         21   -1    0    0  501  502  0.00000000000E+00  0.00000000000E+00  0.95614755804E-01  0.95614755804E-01  0.00000000000E+00 0.  1.
         21   -1    0    0  502  503 -0.00000000000E+00 -0.00000000000E+00 -0.11791838223E+04  0.11791838223E+04  0.00000000000E+00 0.  1.
          5    1    1    2  501    0 -0.21700015959E+01 -0.32164887719E+01 -0.10670540600E+03  0.10687931688E+03  0.47000000000E+01 0.  1.
         -5    1    1    2    0  503  0.21700015959E+01  0.32164887719E+01 -0.10723828015E+04  0.10724001201E+04  0.47000000000E+01 0.  1.
<mgrwt>
<rscale>  2 0.60946458E+01</rscale>
<asrwt>0</asrwt>
<pdfrwt beam="1">  1       21 0.14709312E-04 0.60946458E+01</pdfrwt>
<pdfrwt beam="2">  1       21 0.18142091E+00 0.60946458E+01</pdfrwt>
<totfact> 0.18126042E+08</totfact>
</mgrwt>
</event>
<event>
 4    1  0.3931501E+006  0.5780802E+01  0.7546771E-02  0.2444856E+00
         21   -1    0    0  503  502  0.00000000000E+00  0.00000000000E+00  0.26947062479E+02  0.26947062479E+02  0.00000000000E+00 0. -1.
         21   -1    0    0  501  503 -0.00000000000E+00 -0.00000000000E+00 -0.12807050681E+02  0.12807050681E+02  0.00000000000E+00 0.  1.
          5    1    1    2  501    0 -0.72111217004E+00 -0.32875016071E+01 -0.11820192606E+02  0.13158063035E+02  0.47000000000E+01 0.  1.
         -5    1    1    2    0  502  0.72111217004E+00  0.32875016071E+01  0.25960204404E+02  0.26596050126E+02  0.47000000000E+01 0. -1.
<mgrwt>
<rscale>  2 0.57808018E+01</rscale>
<asrwt>0</asrwt>
<pdfrwt beam="1">  1       21 0.41457019E-02 0.57808018E+01</pdfrwt>
<pdfrwt beam="2">  1       21 0.19703155E-02 0.57808018E+01</pdfrwt>
<totfact> 0.15149342E+08</totfact>
</mgrwt>
</event>
<event>
 4    1  0.3931501E+006  0.8805293E+01  0.7546771E-02  0.2150122E+00
         21   -1    0    0  503  502  0.00000000000E+00  0.00000000000E+00  0.89898258970E+00  0.89898258970E+00  0.00000000000E+00 0.  1.
         21   -1    0    0  501  503 -0.00000000000E+00 -0.00000000000E+00 -0.99684115216E+02  0.99684115216E+02  0.00000000000E+00 0.  1.
          5    1    1    2  501    0  0.59708758528E+00 -0.74220394359E+01 -0.67858005889E+02  0.68426910980E+02  0.47000000000E+01 0.  1.
         -5    1    1    2    0  502 -0.59708758528E+00  0.74220394359E+01 -0.30927126737E+02  0.32156186826E+02  0.47000000000E+01 0.  1.
<mgrwt>
<rscale>  2 0.88052929E+01</rscale>
<asrwt>0</asrwt>
<pdfrwt beam="1">  1       21 0.13830512E-03 0.88052929E+01</pdfrwt>
<pdfrwt beam="2">  1       21 0.15336006E-01 0.88052929E+01</pdfrwt>
<totfact> 0.11171251E+09</totfact>
</mgrwt>
</event>
<event>
 4    1  0.3931501E+006  0.5374201E+01  0.7546771E-02  0.2504765E+00
         21   -1    0    0  501  502  0.00000000000E+00  0.00000000000E+00  0.39601328402E+01  0.39601328402E+01  0.00000000000E+00 0. -1.
         21   -1    0    0  502  503 -0.00000000000E+00 -0.00000000000E+00 -0.18830020764E+02  0.18830020764E+02  0.00000000000E+00 0. -1.
          5    1    1    2  501    0  0.23941405684E+01 -0.10296229340E+01  0.14844422575E+01  0.55754462838E+01  0.47000000000E+01 0. -1.
         -5    1    1    2    0  503 -0.23941405684E+01  0.10296229340E+01 -0.16354330181E+02  0.17214707320E+02  0.47000000000E+01 0. -1.
<mgrwt>
<rscale>  2 0.53742006E+01</rscale>
<asrwt>0</asrwt>
<pdfrwt beam="1">  1       21 0.60925121E-03 0.53742006E+01</pdfrwt>
<pdfrwt beam="2">  1       21 0.28969263E-02 0.53742006E+01</pdfrwt>
<totfact> 0.12563165E+09</totfact>
</mgrwt>
</event>
<event>
 4    1  0.3931501E+006  0.4888179E+01  0.7546771E-02  0.2587381E+00
         21   -1    0    0  503  502  0.00000000000E+00  0.00000000000E+00  0.56341650111E+01  0.56341650111E+01  0.00000000000E+00 0. -1.
         21   -1    0    0  501  503 -0.00000000000E+00 -0.00000000000E+00 -0.13306875959E+02  0.13306875959E+02  0.00000000000E+00 0. -1.
          5    1    1    2  501    0 -0.15261068603E+00 -0.13345437967E+01 -0.11653380742E+02  0.12637071650E+02  0.47000000000E+01 0. -1.
         -5    1    1    2    0  502  0.15261068603E+00  0.13345437967E+01  0.39806697948E+01  0.63039693196E+01  0.47000000000E+01 0. -1.
<mgrwt>
<rscale>  2 0.48881793E+01</rscale>
<asrwt>0</asrwt>
<pdfrwt beam="1">  1       21 0.86679463E-03 0.48881793E+01</pdfrwt>
<pdfrwt beam="2">  1       21 0.20472117E-02 0.48881793E+01</pdfrwt>
<totfact> 0.11559526E+09</totfact>
</mgrwt>
</event>
<event>
 4    1  0.3931501E+006  0.9007204E+01  0.7546771E-02  0.2136322E+00
         21   -1    0    0  501  502  0.00000000000E+00  0.00000000000E+00  0.36605767558E+00  0.36605767558E+00  0.00000000000E+00 0.  1.
         21   -1    0    0  502  503 -0.00000000000E+00 -0.00000000000E+00 -0.28706580143E+03  0.28706580143E+03  0.00000000000E+00 0. -1.
          5    1    1    2  501    0 -0.76510603786E+01  0.70781225929E+00 -0.74734941884E+02  0.75275768090E+02  0.47000000000E+01 0.  1.
         -5    1    1    2    0  503  0.76510603786E+01 -0.70781225929E+00 -0.21196480187E+03  0.21215609102E+03  0.47000000000E+01 0. -1.
<mgrwt>
<rscale>  2 0.90072040E+01</rscale>
<asrwt>0</asrwt>
<pdfrwt beam="1">  1       21 0.56316580E-04 0.90072040E+01</pdfrwt>
<pdfrwt beam="2">  1       21 0.44163958E-01 0.90072040E+01</pdfrwt>
<totfact> 0.63550179E+08</totfact>
</mgrwt>
</event>
<event>
 4    1  0.3931501E+006  0.6677869E+01  0.7546771E-02  0.2334749E+00
         21   -1    0    0  503  502  0.00000000000E+00  0.00000000000E+00  0.27819751451E+00  0.27819751451E+00  0.00000000000E+00 0. -1.
         21   -1    0    0  501  503 -0.00000000000E+00 -0.00000000000E+00 -0.39850470073E+03  0.39850470073E+03  0.00000000000E+00 0.  1.
          5    1    1    2  501    0  0.37320785015E+01 -0.29283996362E+01 -0.35327217292E+03  0.35333528283E+03  0.47000000000E+01 0.  1.
         -5    1    1    2    0  502 -0.37320785015E+01  0.29283996362E+01 -0.44954330302E+02  0.45447615419E+02  0.47000000000E+01 0. -1.
<mgrwt>
<rscale>  2 0.66778690E+01</rscale>
<asrwt>0</asrwt>
<pdfrwt beam="1">  1       21 0.42799918E-04 0.66778690E+01</pdfrwt>
<pdfrwt beam="2">  1       21 0.61307985E-01 0.66778690E+01</pdfrwt>
<totfact> 0.42204654E+08</totfact>
</mgrwt>
</event>
<event>
 4    1  0.3931501E+006  0.5602548E+01  0.7546771E-02  0.2470214E+00
         21   -1    0    0  503  502  0.00000000000E+00  0.00000000000E+00  0.23087509631E+02  0.23087509631E+02  0.00000000000E+00 0. -1.
         21   -1    0    0  501  503 -0.00000000000E+00 -0.00000000000E+00 -0.20437939441E+01  0.20437939441E+01  0.00000000000E+00 0.  1.
          5    1    1    2  501    0  0.43571850385E+00 -0.30180615716E+01  0.32512116316E+01  0.64775707899E+01  0.47000000000E+01 0.  1.
         -5    1    1    2    0  502 -0.43571850385E+00  0.30180615716E+01  0.17792504055E+02  0.18653732785E+02  0.47000000000E+01 0. -1.
<mgrwt>
<rscale>  2 0.56025482E+01</rscale>
<asrwt>0</asrwt>
<pdfrwt beam="1">  1       21 0.35519244E-02 0.56025482E+01</pdfrwt>
<pdfrwt beam="2">  1       21 0.31442985E-03 0.56025482E+01</pdfrwt>
<totfact> 0.24146749E+09</totfact>
</mgrwt>
</event>
<event>
 4    1  0.3931501E+006  0.5283484E+01  0.7546771E-02  0.2519194E+00
         21   -1    0    0  501  502  0.00000000000E+00  0.00000000000E+00  0.11607951623E+02  0.11607951623E+02  0.00000000000E+00 0.  1.
         21   -1    0    0  502  503 -0.00000000000E+00 -0.00000000000E+00 -0.26612070033E+01  0.26612070033E+01  0.00000000000E+00 0. -1.
          5    1    1    2  501    0 -0.22325774418E+01 -0.91695469411E+00  0.66878146114E+01  0.85230318679E+01  0.47000000000E+01 0.  1.
         -5    1    1    2    0  503  0.22325774418E+01  0.91695469411E+00  0.22589300088E+01  0.57461267589E+01  0.47000000000E+01 0. -1.
<mgrwt>
<rscale>  2 0.52834845E+01</rscale>
<asrwt>0</asrwt>
<pdfrwt beam="1">  1       21 0.17858387E-02 0.52834845E+01</pdfrwt>
<pdfrwt beam="2">  1       21 0.40941647E-03 0.52834845E+01</pdfrwt>
<totfact> 0.42692951E+09</totfact>
</mgrwt>
</event>
<event>
 4    1  0.3931501E+006  0.7551528E+01  0.7546771E-02  0.2248740E+00
         21   -1    0    0  501  502  0.00000000000E+00  0.00000000000E+00  0.22213556973E+02  0.22213556973E+02  0.00000000000E+00 0.  1.
         21   -1    0    0  502  503 -0.00000000000E+00 -0.00000000000E+00 -0.26893240664E+01  0.26893240664E+01  0.00000000000E+00 0. -1.
          5    1    1    2  501    0 -0.19361258662E-01  0.59106011935E+01  0.12416010985E+02  0.14532133708E+02  0.47000000000E+01 0. -1.
         -5    1    1    2    0  503  0.19361258662E-01 -0.59106011935E+01  0.71082219222E+01  0.10370747332E+02  0.47000000000E+01 0.  1.
<mgrwt>
<rscale>  2 0.75515284E+01</rscale>
<asrwt>0</asrwt>
<pdfrwt beam="1">  1       21 0.34174702E-02 0.75515284E+01</pdfrwt>
<pdfrwt beam="2">  1       21 0.41374218E-03 0.75515284E+01</pdfrwt>
<totfact> 0.22310825E+09</totfact>
</mgrwt>
</event>
<event>
 4    1  0.3931501E+006  0.4879303E+01  0.7546771E-02  0.2589021E+00
         21   -1    0    0  503  502  0.00000000000E+00  0.00000000000E+00  0.77221722316E+01  0.77221722316E+01  0.00000000000E+00 0. -1.
         21   -1    0    0  501  503 -0.00000000000E+00 -0.00000000000E+00 -0.52113552815E+01  0.52113552815E+01  0.00000000000E+00 0. -1.
          5    1    1    2  501    0  0.82885359873E+00 -0.10151838215E+01 -0.28772724379E+01  0.56644764243E+01  0.47000000000E+01 0. -1.
         -5    1    1    2    0  502 -0.82885359873E+00  0.10151838215E+01  0.53880893880E+01  0.72690510888E+01  0.47000000000E+01 0. -1.
<mgrwt>
<rscale>  2 0.48793029E+01</rscale>
<asrwt>0</asrwt>
<pdfrwt beam="1">  1       21 0.11880265E-02 0.48793029E+01</pdfrwt>
<pdfrwt beam="2">  1       21 0.80174697E-03 0.48793029E+01</pdfrwt>
<totfact> 0.27644959E+09</totfact>
</mgrwt>
</event>
<event>
 4    1  0.3931501E+006  0.5524033E+01  0.7546771E-02  0.2481820E+00
         21   -1    0    0  501  502  0.00000000000E+00  0.00000000000E+00  0.41606793652E+03  0.41606793652E+03  0.00000000000E+00 0. -1.
         21   -1    0    0  502  503 -0.00000000000E+00 -0.00000000000E+00 -0.95614084430E-01  0.95614084430E-01  0.00000000000E+00 0. -1.
          5    1    1    2  501    0  0.28811252691E+01  0.35221876450E+00  0.30841556692E+03  0.30846503344E+03  0.47000000000E+01 0. -1.
         -5    1    1    2    0  503 -0.28811252691E+01 -0.35221876450E+00  0.10755675552E+03  0.10769851716E+03  0.47000000000E+01 0. -1.
<mgrwt>
<rscale>  2 0.55240330E+01</rscale>
<asrwt>0</asrwt>
<pdfrwt beam="1">  1       21 0.64009002E-01 0.55240330E+01</pdfrwt>
<pdfrwt beam="2">  1       21 0.14710192E-04 0.55240330E+01</pdfrwt>
<totfact> 0.14185386E+09</totfact>
</mgrwt>
</event>
<event>
 4    1  0.3931501E+006  0.6412738E+01  0.7546771E-02  0.2364613E+00
         21   -1    0    0  501  502  0.00000000000E+00  0.00000000000E+00  0.63316327875E+00  0.63316327875E+00  0.00000000000E+00 0.  1.
         21   -1    0    0  502  503 -0.00000000000E+00 -0.00000000000E+00 -0.18451263351E+03  0.18451263351E+03  0.00000000000E+00 0.  1.
          5    1    1    2  501    0 -0.27431091121E+01  0.33924274609E+01 -0.17420107527E+02  0.18562956605E+02  0.47000000000E+01 0.  1.
         -5    1    1    2    0  503  0.27431091121E+01 -0.33924274609E+01 -0.16645936270E+03  0.16658284018E+03  0.47000000000E+01 0.  1.
<mgrwt>
<rscale>  2 0.64127382E+01</rscale>
<asrwt>0</asrwt>
<pdfrwt beam="1">  1       21 0.97409713E-04 0.64127382E+01</pdfrwt>
<pdfrwt beam="2">  1       21 0.28386565E-01 0.64127382E+01</pdfrwt>
<totfact> 0.53131143E+08</totfact>
</mgrwt>
</event>
<event>
 4    1  0.3931501E+006  0.4808181E+01  0.7546771E-02  0.2602350E+00
         21   -1    0    0  503  502  0.00000000000E+00  0.00000000000E+00  0.35068109785E+02  0.35068109785E+02  0.00000000000E+00 0. -1.
         21   -1    0    0  501  503 -0.00000000000E+00 -0.00000000000E+00 -0.17865961874E+02  0.17865961874E+02  0.00000000000E+00 0. -1.
          5    1    1    2  501    0 -0.79209909702E+00 -0.63339352537E+00 -0.17373059200E+02  0.18026141970E+02  0.47000000000E+01 0. -1.
         -5    1    1    2    0  502  0.79209909702E+00  0.63339352537E+00  0.34575207112E+02  0.34907929689E+02  0.47000000000E+01 0. -1.
<mgrwt>
<rscale>  2 0.48081814E+01</rscale>
<asrwt>0</asrwt>
<pdfrwt beam="1">  1       21 0.53950938E-02 0.48081814E+01</pdfrwt>
<pdfrwt beam="2">  1       21 0.27486095E-02 0.48081814E+01</pdfrwt>
<totfact> 0.55856024E+07</totfact>
</mgrwt>
</event>
<event>
 4    1  0.3931501E+006  0.5198776E+01  0.7546771E-02  0.2533055E+00
         21   -1    0    0  503  502  0.00000000000E+00  0.00000000000E+00  0.27044418335E-01  0.27044418335E-01  0.00000000000E+00 0. -1.
         21   -1    0    0  501  503 -0.00000000000E+00 -0.00000000000E+00 -0.13374482227E+04  0.13374482227E+04  0.00000000000E+00 0. -1.
          5    1    1    2  501    0 -0.13665867237E+01 -0.17520584987E+01 -0.10049344536E+04  0.10049479008E+04  0.47000000000E+01 0. -1.
         -5    1    1    2    0  502  0.13665867237E+01  0.17520584987E+01 -0.33248672463E+03  0.33252736628E+03  0.47000000000E+01 0. -1.
<mgrwt>
<rscale>  2 0.51987756E+01</rscale>
<asrwt>0</asrwt>
<pdfrwt beam="1">  1       21 0.41613234E-05 0.51987756E+01</pdfrwt>
<pdfrwt beam="2">  1       21 0.20572944E+00 0.51987756E+01</pdfrwt>
<totfact> 0.67649590E+08</totfact>
</mgrwt>
</event>
<event>
 4    1  0.3931501E+006  0.4765792E+01  0.7546771E-02  0.2610458E+00
         21   -1    0    0  501  502  0.00000000000E+00  0.00000000000E+00  0.35254109263E+01  0.35254109263E+01  0.00000000000E+00 0. -1.
         21   -1    0    0  502  503 -0.00000000000E+00 -0.00000000000E+00 -0.93408425910E+01  0.93408425910E+01  0.00000000000E+00 0. -1.
          5    1    1    2  501    0 -0.60751369600E+00 -0.50368529830E+00  0.67570086846E+00  0.48134544180E+01  0.47000000000E+01 0. -1.
         -5    1    1    2    0  503  0.60751369600E+00  0.50368529830E+00 -0.64911325332E+01  0.80527990993E+01  0.47000000000E+01 0. -1.
<mgrwt>
<rscale>  2 0.47657918E+01</rscale>
<asrwt>0</asrwt>
<pdfrwt beam="1">  1       21 0.54237091E-03 0.47657918E+01</pdfrwt>
<pdfrwt beam="2">  1       21 0.14370527E-02 0.47657918E+01</pdfrwt>
<totfact> 0.35409805E+09</totfact>
</mgrwt>
</event>
<event>
 4    1  0.3931501E+006  0.4760906E+01  0.7546771E-02  0.2611401E+00
         21   -1    0    0  503  502  0.00000000000E+00  0.00000000000E+00  0.11264094855E+03  0.11264094855E+03  0.00000000000E+00 0.  1.
         21   -1    0    0  501  503 -0.00000000000E+00 -0.00000000000E+00 -0.25590046465E+00  0.25590046465E+00  0.00000000000E+00 0.  1.
          5    1    1    2  501    0  0.46370592747E+00 -0.60099953238E+00  0.30100317349E+02  0.30474502919E+02  0.47000000000E+01 0. -1.
         -5    1    1    2    0  502 -0.46370592747E+00  0.60099953238E+00  0.82284730737E+02  0.82422346096E+02  0.47000000000E+01 0. -1.
<mgrwt>
<rscale>  2 0.47609058E+01</rscale>
<asrwt>0</asrwt>
<pdfrwt beam="1">  1       21 0.17329337E-01 0.47609058E+01</pdfrwt>
<pdfrwt beam="2">  1       21 0.39369392E-04 0.47609058E+01</pdfrwt>
<totfact> 0.30798655E+09</totfact>
</mgrwt>
</event>
<event>
 4    1  0.3931501E+006  0.5543741E+01  0.7546771E-02  0.2478881E+00
         21   -1    0    0  501  502  0.00000000000E+00  0.00000000000E+00  0.15463501097E+02  0.15463501097E+02  0.00000000000E+00 0.  1.
         21   -1    0    0  502  503 -0.00000000000E+00 -0.00000000000E+00 -0.21457361823E+01  0.21457361823E+01  0.00000000000E+00 0.  1.
          5    1    1    2  501    0 -0.28451212571E+01  0.74050883689E+00  0.90501715663E+01  0.10613136845E+02  0.47000000000E+01 0.  1.
         -5    1    1    2    0  503  0.28451212571E+01 -0.74050883689E+00  0.42675933489E+01  0.69961004350E+01  0.47000000000E+01 0.  1.
<mgrwt>
<rscale>  2 0.55437414E+01</rscale>
<asrwt>0</asrwt>
<pdfrwt beam="1">  1       21 0.23790001E-02 0.55437414E+01</pdfrwt>
<pdfrwt beam="2">  1       21 0.33011327E-03 0.55437414E+01</pdfrwt>
<totfact> 0.39926843E+09</totfact>
</mgrwt>
</event>
<event>
 4    1  0.3931501E+006  0.5326401E+01  0.7546771E-02  0.2512316E+00
         21   -1    0    0  503  502  0.00000000000E+00  0.00000000000E+00  0.42228713950E+03  0.42228713950E+03  0.00000000000E+00 0.  1.
         21   -1    0    0  501  503 -0.00000000000E+00 -0.00000000000E+00 -0.91368575550E-01  0.91368575550E-01  0.00000000000E+00 0.  1.
          5    1    1    2  501    0 -0.19125323260E+00  0.24987938741E+01  0.10244258231E+03  0.10258095934E+03  0.47000000000E+01 0.  1.
         -5    1    1    2    0  502  0.19125323260E+00 -0.24987938741E+01  0.31975318861E+03  0.31979754873E+03  0.47000000000E+01 0.  1.
<mgrwt>
<rscale>  2 0.53264011E+01</rscale>
<asrwt>0</asrwt>
<pdfrwt beam="1">  1       21 0.64965689E-01 0.53264011E+01</pdfrwt>
<pdfrwt beam="2">  1       21 0.14057042E-04 0.53264011E+01</pdfrwt>
<totfact> 0.14241675E+09</totfact>
</mgrwt>
</event>
<event>
 4    1  0.3931501E+006  0.4790439E+01  0.7546771E-02  0.2605729E+00
         21   -1    0    0  501  502  0.00000000000E+00  0.00000000000E+00  0.54338963853E+02  0.54338963853E+02  0.00000000000E+00 0.  1.
         21   -1    0    0  502  503 -0.00000000000E+00 -0.00000000000E+00 -0.74565615329E+00  0.74565615329E+00  0.00000000000E+00 0.  1.
          5    1    1    2  501    0  0.87649295712E+00  0.30010653839E+00  0.44933416394E+02  0.45188053871E+02  0.47000000000E+01 0.  1.
         -5    1    1    2    0  503 -0.87649295712E+00 -0.30010653839E+00  0.86598913059E+01  0.98965661352E+01  0.47000000000E+01 0.  1.
<mgrwt>
<rscale>  2 0.47904388E+01</rscale>
<asrwt>0</asrwt>
<pdfrwt beam="1">  1       21 0.83598375E-02 0.47904388E+01</pdfrwt>
<pdfrwt beam="2">  1       21 0.11471637E-03 0.47904388E+01</pdfrwt>
<totfact> 0.22905863E+09</totfact>
</mgrwt>
</event>
<event>
 4    1  0.3931501E+006  0.6306290E+01  0.7546771E-02  0.2377186E+00
         21   -1    0    0  501  502  0.00000000000E+00  0.00000000000E+00  0.53119860028E+01  0.53119860028E+01  0.00000000000E+00 0.  1.
         21   -1    0    0  502  503 -0.00000000000E+00 -0.00000000000E+00 -0.10980122949E+02  0.10980122949E+02  0.00000000000E+00 0.  1.
          5    1    1    2  501    0  0.35049596789E+01 -0.23226163444E+01  0.17607545107E+01  0.65474839046E+01  0.47000000000E+01 0.  1.
         -5    1    1    2    0  503 -0.35049596789E+01  0.23226163444E+01 -0.74288914571E+01  0.97446250475E+01  0.47000000000E+01 0.  1.
<mgrwt>
<rscale>  2 0.63062896E+01</rscale>
<asrwt>0</asrwt>
<pdfrwt beam="1">  1       21 0.81722862E-03 0.63062896E+01</pdfrwt>
<pdfrwt beam="2">  1       21 0.16892497E-02 0.63062896E+01</pdfrwt>
<totfact> 0.20781687E+09</totfact>
</mgrwt>
</event>
<event>
 4    1  0.3931501E+006  0.5092353E+01  0.7546771E-02  0.2551027E+00
         21   -1    0    0  503  502  0.00000000000E+00  0.00000000000E+00  0.15170126361E+01  0.15170126361E+01  0.00000000000E+00 0.  1.
         21   -1    0    0  501  503 -0.00000000000E+00 -0.00000000000E+00 -0.19198319062E+02  0.19198319062E+02  0.00000000000E+00 0.  1.
          5    1    1    2  501    0  0.19191466341E+01  0.39866798481E+00 -0.12269667988E+02  0.13284457554E+02  0.47000000000E+01 0.  1.
         -5    1    1    2    0  502 -0.19191466341E+01 -0.39866798481E+00 -0.54116384378E+01  0.74308741442E+01  0.47000000000E+01 0.  1.
<mgrwt>
<rscale>  2 0.50923531E+01</rscale>
<asrwt>0</asrwt>
<pdfrwt beam="1">  1       21 0.23338657E-03 0.50923531E+01</pdfrwt>
<pdfrwt beam="2">  1       21 0.29535874E-02 0.50923531E+01</pdfrwt>
<totfact> 0.43099289E+09</totfact>
</mgrwt>
</event>
<event>
 4    1  0.3931501E+006  0.4910391E+01  0.7546771E-02  0.2583300E+00
         21   -1    0    0  501  502  0.00000000000E+00  0.00000000000E+00  0.14316933559E+02  0.14316933559E+02  0.00000000000E+00 0.  1.
         21   -1    0    0  502  503 -0.00000000000E+00 -0.00000000000E+00 -0.31674319650E+01  0.31674319650E+01  0.00000000000E+00 0.  1.
          5    1    1    2  501    0 -0.79102904128E+00  0.11816159755E+01  0.11557176008E+02  0.12557080096E+02  0.47000000000E+01 0.  1.
         -5    1    1    2    0  503  0.79102904128E+00 -0.11816159755E+01 -0.40767441442E+00  0.49272854277E+01  0.47000000000E+01 0.  1.
<mgrwt>
<rscale>  2 0.49103914E+01</rscale>
<asrwt>0</asrwt>
<pdfrwt beam="1">  1       21 0.22026051E-02 0.49103914E+01</pdfrwt>
<pdfrwt beam="2">  1       21 0.48729723E-03 0.49103914E+01</pdfrwt>
<totfact> 0.23167242E+09</totfact>
</mgrwt>
</event>
<event>
 4    1  0.3931501E+006  0.4790764E+01  0.7546771E-02  0.2605667E+00
         21   -1    0    0  501  502  0.00000000000E+00  0.00000000000E+00  0.10624833991E+03  0.10624833991E+03  0.00000000000E+00 0.  1.
         21   -1    0    0  502  503 -0.00000000000E+00 -0.00000000000E+00 -0.32688925867E+00  0.32688925867E+00  0.00000000000E+00 0.  1.
          5    1    1    2  501    0 -0.63772465455E-01 -0.92593147256E+00  0.83994741696E+02  0.84131254886E+02  0.47000000000E+01 0.  1.
         -5    1    1    2    0  503  0.63772465455E-01  0.92593147256E+00  0.21926708959E+02  0.22443974287E+02  0.47000000000E+01 0.  1.
<mgrwt>
<rscale>  2 0.47907636E+01</rscale>
<asrwt>0</asrwt>
<pdfrwt beam="1">  1       21 0.16345871E-01 0.47907636E+01</pdfrwt>
<pdfrwt beam="2">  1       21 0.50290740E-04 0.47907636E+01</pdfrwt>
<totfact> 0.24566534E+09</totfact>
</mgrwt>
</event>
<event>
 4    1  0.3931501E+006  0.5977114E+01  0.7546771E-02  0.2418412E+00
         21   -1    0    0  501  502  0.00000000000E+00  0.00000000000E+00  0.14877526318E+01  0.14877526318E+01  0.00000000000E+00 0. -1.
         21   -1    0    0  502  503 -0.00000000000E+00 -0.00000000000E+00 -0.24635310006E+02  0.24635310006E+02  0.00000000000E+00 0.  1.
          5    1    1    2  501    0  0.35446471115E+01  0.10350697742E+01 -0.94983690103E+01  0.11222517830E+02  0.47000000000E+01 0. -1.
         -5    1    1    2    0  503 -0.35446471115E+01 -0.10350697742E+01 -0.13649188364E+02  0.14900544808E+02  0.47000000000E+01 0.  1.
<mgrwt>
<rscale>  2 0.59771141E+01</rscale>
<asrwt>0</asrwt>
<pdfrwt beam="1">  1       21 0.22888500E-03 0.59771141E+01</pdfrwt>
<pdfrwt beam="2">  1       21 0.37900481E-02 0.59771141E+01</pdfrwt>
<totfact> 0.35923322E+09</totfact>
</mgrwt>
</event>
<event>
 4    1  0.3931501E+006  0.7290123E+01  0.7546771E-02  0.2272702E+00
         21   -1    0    0  503  502  0.00000000000E+00  0.00000000000E+00  0.19667556190E+02  0.19667556190E+02  0.00000000000E+00 0.  1.
         21   -1    0    0  501  503 -0.00000000000E+00 -0.00000000000E+00 -0.11888599266E+02  0.11888599266E+02  0.00000000000E+00 0.  1.
          5    1    1    2  501    0 -0.55692449467E+01  0.19850159724E+00 -0.99800322071E+01  0.12359083098E+02  0.47000000000E+01 0.  1.
         -5    1    1    2    0  502  0.55692449467E+01 -0.19850159724E+00  0.17758989131E+02  0.19197072358E+02  0.47000000000E+01 0.  1.
<mgrwt>
<rscale>  2 0.72901229E+01</rscale>
<asrwt>0</asrwt>
<pdfrwt beam="1">  1       21 0.30257779E-02 0.72901229E+01</pdfrwt>
<pdfrwt beam="2">  1       21 0.18290153E-02 0.72901229E+01</pdfrwt>
<totfact> 0.31363470E+08</totfact>
</mgrwt>
</event>
<event>
 4    1  0.3931501E+006  0.7198966E+01  0.7546771E-02  0.2281391E+00
         21   -1    0    0  501  502  0.00000000000E+00  0.00000000000E+00  0.15200974582E+04  0.15200974582E+04  0.00000000000E+00 0. -1.
         21   -1    0    0  502  503 -0.00000000000E+00 -0.00000000000E+00 -0.34323349436E-01  0.34323349436E-01  0.00000000000E+00 0. -1.
          5    1    1    2  501    0 -0.53359669069E+01 -0.11236418780E+01  0.82225907119E+03  0.82229058444E+03  0.47000000000E+01 0. -1.
         -5    1    1    2    0  503  0.53359669069E+01  0.11236418780E+01  0.69780406369E+03  0.69784119713E+03  0.47000000000E+01 0. -1.
<mgrwt>
<rscale>  2 0.71989662E+01</rscale>
<asrwt>0</asrwt>
<pdfrwt beam="1">  1       21 0.23380724E+00 0.71989662E+01</pdfrwt>
<pdfrwt beam="2">  1       21 0.52817328E-05 0.71989662E+01</pdfrwt>
<totfact> 0.43576596E+08</totfact>
</mgrwt>
</event>
<event>
 4    1  0.3931501E+006  0.6362828E+01  0.7546771E-02  0.2370465E+00
         21   -1    0    0  501  502  0.00000000000E+00  0.00000000000E+00  0.20450068125E+03  0.20450068125E+03  0.00000000000E+00 0. -1.
         21   -1    0    0  502  503 -0.00000000000E+00 -0.00000000000E+00 -0.25117767947E+00  0.25117767947E+00  0.00000000000E+00 0. -1.
          5    1    1    2  501    0 -0.34510063209E+01 -0.25467900682E+01  0.14924231610E+03  0.14937789160E+03  0.47000000000E+01 0. -1.
         -5    1    1    2    0  503  0.34510063209E+01  0.25467900682E+01  0.55007187477E+02  0.55373967335E+02  0.47000000000E+01 0. -1.
<mgrwt>
<rscale>  2 0.63628283E+01</rscale>
<asrwt>0</asrwt>
<pdfrwt beam="1">  1       21 0.31461510E-01 0.63628283E+01</pdfrwt>
<pdfrwt beam="2">  1       21 0.38642883E-04 0.63628283E+01</pdfrwt>
<totfact> 0.15366920E+09</totfact>
</mgrwt>
</event>
<event>
 4    1  0.3931501E+006  0.5397002E+01  0.7546771E-02  0.2501204E+00
         21   -1    0    0  501  502  0.00000000000E+00  0.00000000000E+00  0.50979865020E+00  0.50979865020E+00  0.00000000000E+00 0. -1.
         21   -1    0    0  502  503 -0.00000000000E+00 -0.00000000000E+00 -0.65558153228E+02  0.65558153228E+02  0.00000000000E+00 0. -1.
          5    1    1    2  501    0  0.33756048492E+00 -0.26312886756E+01 -0.20683661590E+02  0.21376189649E+02  0.47000000000E+01 0. -1.
         -5    1    1    2    0  503 -0.33756048492E+00  0.26312886756E+01 -0.44364692988E+02  0.44691762229E+02  0.47000000000E+01 0. -1.
<mgrwt>
<rscale>  2 0.53970017E+01</rscale>
<asrwt>0</asrwt>
<pdfrwt beam="1">  1       21 0.78430560E-04 0.53970017E+01</pdfrwt>
<pdfrwt beam="2">  1       21 0.10085870E-01 0.53970017E+01</pdfrwt>
<totfact> 0.32166695E+09</totfact>
</mgrwt>
</event>
<event>
 4    1  0.3931501E+006  0.5728894E+01  0.7546771E-02  0.2452103E+00
         21   -1    0    0  501  502  0.00000000000E+00  0.00000000000E+00  0.48728751187E+00  0.48728751187E+00  0.00000000000E+00 0.  1.
         21   -1    0    0  502  503 -0.00000000000E+00 -0.00000000000E+00 -0.10340143866E+03  0.10340143866E+03  0.00000000000E+00 0. -1.
          5    1    1    2  501    0  0.10757106506E+00  0.32739360694E+01 -0.20786710616E+02  0.21561715311E+02  0.47000000000E+01 0. -1.
         -5    1    1    2    0  503 -0.10757106506E+00 -0.32739360694E+01 -0.82127440528E+02  0.82327010856E+02  0.47000000000E+01 0.  1.
<mgrwt>
<rscale>  2 0.57288942E+01</rscale>
<asrwt>0</asrwt>
<pdfrwt beam="1">  1       21 0.74967265E-04 0.57288942E+01</pdfrwt>
<pdfrwt beam="2">  1       21 0.15907923E-01 0.57288942E+01</pdfrwt>
<totfact> 0.17771437E+09</totfact>
</mgrwt>
</event>
<event>
 4    1  0.3931501E+006  0.5102492E+01  0.7546771E-02  0.2549287E+00
         21   -1    0    0  503  502  0.00000000000E+00  0.00000000000E+00  0.80717353020E+01  0.80717353020E+01  0.00000000000E+00 0. -1.
         21   -1    0    0  501  503 -0.00000000000E+00 -0.00000000000E+00 -0.34105351696E+01  0.34105351696E+01  0.00000000000E+00 0.  1.
          5    1    1    2  501    0 -0.19823213257E+01  0.12581536672E+00  0.36678330826E+01  0.62839817685E+01  0.47000000000E+01 0. -1.
         -5    1    1    2    0  502  0.19823213257E+01 -0.12581536672E+00  0.99336704977E+00  0.51982887031E+01  0.47000000000E+01 0.  1.
<mgrwt>
<rscale>  2 0.51024923E+01</rscale>
<asrwt>0</asrwt>
<pdfrwt beam="1">  1       21 0.12418054E-02 0.51024923E+01</pdfrwt>
<pdfrwt beam="2">  1       21 0.52469772E-03 0.51024923E+01</pdfrwt>
<totfact> 0.48898531E+09</totfact>
</mgrwt>
</event>
<event>
 4    1  0.3931501E+006  0.6119777E+01  0.7546771E-02  0.2400090E+00
         21   -1    0    0  501  502  0.00000000000E+00  0.00000000000E+00  0.16059851833E+03  0.16059851833E+03  0.00000000000E+00 0.  1.
         21   -1    0    0  502  503 -0.00000000000E+00 -0.00000000000E+00 -0.15657495140E+01  0.15657495140E+01  0.00000000000E+00 0. -1.
          5    1    1    2  501    0 -0.13965676465E+01  0.36621401055E+01  0.15431707483E+03  0.15443837365E+03  0.47000000000E+01 0.  1.
         -5    1    1    2    0  503  0.13965676465E+01 -0.36621401055E+01  0.47156939868E+01  0.77258941956E+01  0.47000000000E+01 0. -1.
<mgrwt>
<rscale>  2 0.61197771E+01</rscale>
<asrwt>0</asrwt>
<pdfrwt beam="1">  1       21 0.24707451E-01 0.61197771E+01</pdfrwt>
<pdfrwt beam="2">  1       21 0.24088467E-03 0.61197771E+01</pdfrwt>
<totfact> 0.18977628E+08</totfact>
</mgrwt>
</event>
<event>
 4    1  0.3931501E+006  0.7875499E+01  0.7546771E-02  0.2220846E+00
         21   -1    0    0  503  502  0.00000000000E+00  0.00000000000E+00  0.10014954135E+01  0.10014954135E+01  0.00000000000E+00 0. -1.
         21   -1    0    0  501  503 -0.00000000000E+00 -0.00000000000E+00 -0.83922888272E+02  0.83922888272E+02  0.00000000000E+00 0.  1.
          5    1    1    2  501    0 -0.62574583345E+01  0.88187502450E+00 -0.63197449946E+02  0.63686271425E+02  0.47000000000E+01 0.  1.
         -5    1    1    2    0  502  0.62574583345E+01 -0.88187502450E+00 -0.19723942912E+02  0.21238112260E+02  0.47000000000E+01 0. -1.
<mgrwt>
<rscale>  2 0.78754992E+01</rscale>
<asrwt>0</asrwt>
<pdfrwt beam="1">  1       21 0.15407618E-03 0.78754992E+01</pdfrwt>
<pdfrwt beam="2">  1       21 0.12911217E-01 0.78754992E+01</pdfrwt>
<totfact> 0.11831384E+09</totfact>
</mgrwt>
</event>
<event>
 4    1  0.3931501E+006  0.5185128E+01  0.7546771E-02  0.2535324E+00
         21   -1    0    0  501  502  0.00000000000E+00  0.00000000000E+00  0.36628568960E+02  0.36628568960E+02  0.00000000000E+00 0. -1.
         21   -1    0    0  502  503 -0.00000000000E+00 -0.00000000000E+00 -0.93195494714E+00  0.93195494714E+00  0.00000000000E+00 0. -1.
          5    1    1    2  501    0 -0.19715323259E+01  0.95321058287E+00  0.26503603719E+02  0.27006046734E+02  0.47000000000E+01 0. -1.
         -5    1    1    2    0  503  0.19715323259E+01 -0.95321058287E+00  0.91930102942E+01  0.10554477173E+02  0.47000000000E+01 0. -1.
<mgrwt>
<rscale>  2 0.51851278E+01</rscale>
<asrwt>0</asrwt>
<pdfrwt beam="1">  1       21 0.56351633E-02 0.51851278E+01</pdfrwt>
<pdfrwt beam="2">  1       21 0.14337771E-03 0.51851278E+01</pdfrwt>
<totfact> 0.33050265E+09</totfact>
</mgrwt>
</event>
<event>
 4    1  0.3931501E+006  0.6465894E+01  0.7546771E-02  0.2358463E+00
         21   -1    0    0  503  502  0.00000000000E+00  0.00000000000E+00  0.24833104144E+00  0.24833104144E+00  0.00000000000E+00 0. -1.
         21   -1    0    0  501  503 -0.00000000000E+00 -0.00000000000E+00 -0.19339824251E+03  0.19339824251E+03  0.00000000000E+00 0. -1.
          5    1    1    2  501    0 -0.34028606094E+01 -0.28527746859E+01 -0.13141658427E+03  0.13157555398E+03  0.47000000000E+01 0. -1.
         -5    1    1    2    0  502  0.34028606094E+01  0.28527746859E+01 -0.61733327200E+02  0.62071019573E+02  0.47000000000E+01 0. -1.
<mgrwt>
<rscale>  2 0.64658939E+01</rscale>
<asrwt>0</asrwt>
<pdfrwt beam="1">  1       21 0.38204648E-04 0.64658939E+01</pdfrwt>
<pdfrwt beam="2">  1       21 0.29753675E-01 0.64658939E+01</pdfrwt>
<totfact> 0.17359481E+09</totfact>
</mgrwt>
</event>
<event>
 4    1  0.3931501E+006  0.5731660E+01  0.7546771E-02  0.2451714E+00
         21   -1    0    0  503  502  0.00000000000E+00  0.00000000000E+00  0.86576761967E+00  0.86576761967E+00  0.00000000000E+00 0. -1.
         21   -1    0    0  501  503 -0.00000000000E+00 -0.00000000000E+00 -0.38319351004E+02  0.38319351004E+02  0.00000000000E+00 0. -1.
          5    1    1    2  501    0  0.11847916940E+01  0.30591167400E+01 -0.20662191534E+02  0.21442436559E+02  0.47000000000E+01 0. -1.
         -5    1    1    2    0  502 -0.11847916940E+01 -0.30591167400E+01 -0.16791391851E+02  0.17742682065E+02  0.47000000000E+01 0. -1.
<mgrwt>
<rscale>  2 0.57316600E+01</rscale>
<asrwt>0</asrwt>
<pdfrwt beam="1">  1       21 0.13319502E-03 0.57316600E+01</pdfrwt>
<pdfrwt beam="2">  1       21 0.58952848E-02 0.57316600E+01</pdfrwt>
<totfact> 0.37529700E+09</totfact>
</mgrwt>
</event>
<event>
 4    1  0.3931501E+006  0.8064545E+01  0.7546771E-02  0.2205411E+00
         21   -1    0    0  503  502  0.00000000000E+00  0.00000000000E+00  0.66473120748E+01  0.66473120748E+01  0.00000000000E+00 0. -1.
         21   -1    0    0  501  503 -0.00000000000E+00 -0.00000000000E+00 -0.81939460847E+02  0.81939460847E+02  0.00000000000E+00 0.  1.
          5    1    1    2  501    0 -0.86549233908E+00  0.64959842816E+01 -0.79211011122E+02  0.79620482112E+02  0.47000000000E+01 0.  1.
         -5    1    1    2    0  502  0.86549233908E+00 -0.64959842816E+01  0.39188623495E+01  0.89662908100E+01  0.47000000000E+01 0. -1.
<mgrwt>
<rscale>  2 0.80645452E+01</rscale>
<asrwt>0</asrwt>
<pdfrwt beam="1">  1       21 0.10226634E-02 0.80645452E+01</pdfrwt>
<pdfrwt beam="2">  1       21 0.12606071E-01 0.80645452E+01</pdfrwt>
<totfact> 0.87380590E+07</totfact>
</mgrwt>
</event>
<event>
 4    1  0.3931501E+006  0.1010870E+02  0.7546771E-02  0.2068854E+00
         21   -1    0    0  503  502  0.00000000000E+00  0.00000000000E+00  0.34821611935E+01  0.34821611935E+01  0.00000000000E+00 0.  1.
         21   -1    0    0  501  503 -0.00000000000E+00 -0.00000000000E+00 -0.95314674136E+02  0.95314674136E+02  0.00000000000E+00 0. -1.
          5    1    1    2  501    0 -0.59974064377E+01 -0.66428099322E+01 -0.87012642648E+02  0.87597864063E+02  0.47000000000E+01 0. -1.
         -5    1    1    2    0  502  0.59974064377E+01  0.66428099322E+01 -0.48198702942E+01  0.11198971266E+02  0.47000000000E+01 0.  1.
<mgrwt>
<rscale>  2 0.10108700E+02</rscale>
<asrwt>0</asrwt>
<pdfrwt beam="1">  1       21 0.53571720E-03 0.10108700E+02</pdfrwt>
<pdfrwt beam="2">  1       21 0.14663793E-01 0.10108700E+02</pdfrwt>
<totfact> 0.19357795E+08</totfact>
</mgrwt>
</event>
<event>
 4    1  0.3931501E+006  0.4921444E+01  0.7546771E-02  0.2581281E+00
         21   -1    0    0  501  502  0.00000000000E+00  0.00000000000E+00  0.46474091015E+02  0.46474091015E+02  0.00000000000E+00 0.  1.
         21   -1    0    0  502  503 -0.00000000000E+00 -0.00000000000E+00 -0.60869289617E+00  0.60869289617E+00  0.00000000000E+00 0.  1.
          5    1    1    2  501    0  0.14579567892E+01 -0.70510089472E-01  0.31859779906E+02  0.32237651672E+02  0.47000000000E+01 0.  1.
         -5    1    1    2    0  503 -0.14579567892E+01  0.70510089472E-01  0.14005618213E+02  0.14845132239E+02  0.47000000000E+01 0.  1.
<mgrwt>
<rscale>  2 0.49214439E+01</rscale>
<asrwt>0</asrwt>
<pdfrwt beam="1">  1       21 0.71498574E-02 0.49214439E+01</pdfrwt>
<pdfrwt beam="2">  1       21 0.93645097E-04 0.49214439E+01</pdfrwt>
<totfact> 0.38897741E+09</totfact>
</mgrwt>
</event>
<event>
 4    1  0.3931501E+006  0.5952650E+01  0.7546771E-02  0.2421627E+00
         21   -1    0    0  501  502  0.00000000000E+00  0.00000000000E+00  0.25158812255E+02  0.25158812255E+02  0.00000000000E+00 0. -1.
         21   -1    0    0  502  503 -0.00000000000E+00 -0.00000000000E+00 -0.26993264371E+01  0.26993264371E+01  0.00000000000E+00 0. -1.
          5    1    1    2  501    0 -0.10423991738E+01 -0.35010635269E+01  0.20862323818E+02  0.21694944041E+02  0.47000000000E+01 0. -1.
         -5    1    1    2    0  503  0.10423991738E+01  0.35010635269E+01  0.15971620005E+01  0.61631946515E+01  0.47000000000E+01 0. -1.
<mgrwt>
<rscale>  2 0.59526500E+01</rscale>
<asrwt>0</asrwt>
<pdfrwt beam="1">  1       21 0.38705864E-02 0.59526500E+01</pdfrwt>
<pdfrwt beam="2">  1       21 0.41528101E-03 0.59526500E+01</pdfrwt>
<totfact> 0.15310718E+09</totfact>
</mgrwt>
</event>
<event>
 4    1  0.3931501E+006  0.5662257E+01  0.7546771E-02  0.2461570E+00
         21   -1    0    0  501  502  0.00000000000E+00  0.00000000000E+00  0.16184120718E+02  0.16184120718E+02  0.00000000000E+00 0. -1.
         21   -1    0    0  502  503 -0.00000000000E+00 -0.00000000000E+00 -0.30091366176E+01  0.30091366176E+01  0.00000000000E+00 0.  1.
          5    1    1    2  501    0  0.84928981629E+00  0.30413575288E+01  0.12196910740E+02  0.13447147668E+02  0.47000000000E+01 0. -1.
         -5    1    1    2    0  503 -0.84928981629E+00 -0.30413575288E+01  0.97807336029E+00  0.57461096672E+01  0.47000000000E+01 0.  1.
<mgrwt>
<rscale>  2 0.56622565E+01</rscale>
<asrwt>0</asrwt>
<pdfrwt beam="1">  1       21 0.24898647E-02 0.56622565E+01</pdfrwt>
<pdfrwt beam="2">  1       21 0.46294410E-03 0.56622565E+01</pdfrwt>
<totfact> 0.23944901E+09</totfact>
</mgrwt>
</event>
<event>
 4    1  0.3931501E+006  0.8470567E+01  0.7546771E-02  0.2174146E+00
         21   -1    0    0  501  502  0.00000000000E+00  0.00000000000E+00  0.44031645804E+00  0.44031645804E+00  0.00000000000E+00 0.  1.
         21   -1    0    0  502  503 -0.00000000000E+00 -0.00000000000E+00 -0.41507931402E+03  0.41507931402E+03  0.00000000000E+00 0. -1.
          5    1    1    2  501    0 -0.11220535696E+01  0.69571183844E+01 -0.45397502206E+02  0.46180988588E+02  0.47000000000E+01 0.  1.
         -5    1    1    2    0  503  0.11220535696E+01 -0.69571183844E+01 -0.36924149536E+03  0.36933864189E+03  0.47000000000E+01 0. -1.
<mgrwt>
<rscale>  2 0.84705667E+01</rscale>
<asrwt>0</asrwt>
<pdfrwt beam="1">  1       21 0.67740948E-04 0.84705667E+01</pdfrwt>
<pdfrwt beam="2">  1       21 0.63858399E-01 0.84705667E+01</pdfrwt>
<totfact> 0.24039285E+08</totfact>
</mgrwt>
</event>
<event>
 4    1  0.3931501E+006  0.7863401E+01  0.7546771E-02  0.2221854E+00
         21   -1    0    0  503  502  0.00000000000E+00  0.00000000000E+00  0.20170983510E+02  0.20170983510E+02  0.00000000000E+00 0.  1.
         21   -1    0    0  501  503 -0.00000000000E+00 -0.00000000000E+00 -0.88770876162E+01  0.88770876162E+01  0.00000000000E+00 0.  1.
          5    1    1    2  501    0  0.34607736069E-01 -0.63041153149E+01 -0.61047724577E+01  0.99549643072E+01  0.47000000000E+01 0.  1.
         -5    1    1    2    0  502 -0.34607736069E-01  0.63041153149E+01  0.17398668352E+02  0.19093106819E+02  0.47000000000E+01 0.  1.
<mgrwt>
<rscale>  2 0.78634005E+01</rscale>
<asrwt>0</asrwt>
<pdfrwt beam="1">  1       21 0.31032282E-02 0.78634005E+01</pdfrwt>
<pdfrwt beam="2">  1       21 0.13657058E-02 0.78634005E+01</pdfrwt>
<totfact> 0.48449402E+08</totfact>
</mgrwt>
</event>
<event>
 4    1  0.3931501E+006  0.5444282E+01  0.7546771E-02  0.2493900E+00
         21   -1    0    0  503  502  0.00000000000E+00  0.00000000000E+00  0.80965487934E+00  0.80965487934E+00  0.00000000000E+00 0.  1.
         21   -1    0    0  501  503 -0.00000000000E+00 -0.00000000000E+00 -0.74019696927E+02  0.74019696927E+02  0.00000000000E+00 0. -1.
          5    1    1    2  501    0 -0.21202936365E+01  0.17477298611E+01 -0.63204275646E+02  0.63438321737E+02  0.47000000000E+01 0. -1.
         -5    1    1    2    0  502  0.21202936365E+01 -0.17477298611E+01 -0.10005766401E+02  0.11391030070E+02  0.47000000000E+01 0.  1.
<mgrwt>
<rscale>  2 0.54442818E+01</rscale>
<asrwt>0</asrwt>
<pdfrwt beam="1">  1       21 0.12456234E-03 0.54442818E+01</pdfrwt>
<pdfrwt beam="2">  1       21 0.11387641E-01 0.54442818E+01</pdfrwt>
<totfact> 0.14517399E+09</totfact>
</mgrwt>
</event>
<event>
 4    1  0.3931501E+006  0.5373852E+01  0.7546771E-02  0.2504820E+00
         21   -1    0    0  501  502  0.00000000000E+00  0.00000000000E+00  0.32570743679E+02  0.32570743679E+02  0.00000000000E+00 0. -1.
         21   -1    0    0  502  503 -0.00000000000E+00 -0.00000000000E+00 -0.16212433414E+01  0.16212433414E+01  0.00000000000E+00 0. -1.
          5    1    1    2  501    0 -0.10018833538E+00 -0.26035064034E+01  0.26982724312E+02  0.27512646085E+02  0.47000000000E+01 0. -1.
         -5    1    1    2    0  503  0.10018833538E+00  0.26035064034E+01  0.39667760257E+01  0.66793409355E+01  0.47000000000E+01 0. -1.
<mgrwt>
<rscale>  2 0.53738518E+01</rscale>
<asrwt>0</asrwt>
<pdfrwt beam="1">  1       21 0.50108832E-02 0.53738518E+01</pdfrwt>
<pdfrwt beam="2">  1       21 0.24942208E-03 0.53738518E+01</pdfrwt>
<totfact> 0.19274652E+09</totfact>
</mgrwt>
</event>
<event>
 4    1  0.3931501E+006  0.6826042E+01  0.7546771E-02  0.2318897E+00
         21   -1    0    0  501  502  0.00000000000E+00  0.00000000000E+00  0.18253612989E+03  0.18253612989E+03  0.00000000000E+00 0.  1.
         21   -1    0    0  502  503 -0.00000000000E+00 -0.00000000000E+00 -0.12386882710E+01  0.12386882710E+01  0.00000000000E+00 0. -1.
          5    1    1    2  501    0  0.45972295987E+01  0.18358472650E+01  0.17252262720E+03  0.17265761423E+03  0.47000000000E+01 0.  1.
         -5    1    1    2    0  503 -0.45972295987E+01 -0.18358472650E+01  0.87748144141E+01  0.11117203927E+02  0.47000000000E+01 0. -1.
<mgrwt>
<rscale>  2 0.68260424E+01</rscale>
<asrwt>0</asrwt>
<pdfrwt beam="1">  1       21 0.28082460E-01 0.68260424E+01</pdfrwt>
<pdfrwt beam="2">  1       21 0.19056757E-03 0.68260424E+01</pdfrwt>
<totfact> 0.22644683E+08</totfact>
</mgrwt>
</event>
<event>
 4    1  0.3931501E+006  0.5576014E+01  0.7546771E-02  0.2474105E+00
         21   -1    0    0  501  502  0.00000000000E+00  0.00000000000E+00  0.10690684496E+03  0.10690684496E+03  0.00000000000E+00 0.  1.
         21   -1    0    0  502  503 -0.00000000000E+00 -0.00000000000E+00 -0.29680205339E+00  0.29680205339E+00  0.00000000000E+00 0.  1.
          5    1    1    2  501    0  0.25274077074E+01  0.16168305744E+01  0.60907154431E+02  0.61161862232E+02  0.47000000000E+01 0.  1.
         -5    1    1    2    0  503 -0.25274077074E+01 -0.16168305744E+01  0.45702888475E+02  0.46041784780E+02  0.47000000000E+01 0.  1.
<mgrwt>
<rscale>  2 0.55760139E+01</rscale>
<asrwt>0</asrwt>
<pdfrwt beam="1">  1       21 0.16447176E-01 0.55760139E+01</pdfrwt>
<pdfrwt beam="2">  1       21 0.45661940E-04 0.55760139E+01</pdfrwt>
<totfact> 0.31909608E+09</totfact>
</mgrwt>
</event>
<event>
 4    1  0.3931501E+006  0.5096287E+01  0.7546771E-02  0.2550351E+00
         21   -1    0    0  501  502  0.00000000000E+00  0.00000000000E+00  0.11668692048E+00  0.11668692048E+00  0.00000000000E+00 0. -1.
         21   -1    0    0  502  503 -0.00000000000E+00 -0.00000000000E+00 -0.45472682102E+03  0.45472682102E+03  0.00000000000E+00 0. -1.
          5    1    1    2  501    0  0.15621816483E+01 -0.12007184471E+01 -0.64810667249E+02  0.65010727772E+02  0.47000000000E+01 0. -1.
         -5    1    1    2    0  503 -0.15621816483E+01  0.12007184471E+01 -0.38979946685E+03  0.38983278016E+03  0.47000000000E+01 0. -1.
<mgrwt>
<rscale>  2 0.50962865E+01</rscale>
<asrwt>0</asrwt>
<pdfrwt beam="1">  1       21 0.17951683E-04 0.50962865E+01</pdfrwt>
<pdfrwt beam="2">  1       21 0.69958561E-01 0.50962865E+01</pdfrwt>
<totfact> 0.86586671E+08</totfact>
</mgrwt>
</event>
<event>
 4    1  0.3931501E+006  0.6086707E+01  0.7546771E-02  0.2404273E+00
         21   -1    0    0  501  502  0.00000000000E+00  0.00000000000E+00  0.50262620297E+01  0.50262620297E+01  0.00000000000E+00 0. -1.
         21   -1    0    0  502  503 -0.00000000000E+00 -0.00000000000E+00 -0.18303658824E+02  0.18303658824E+02  0.00000000000E+00 0.  1.
          5    1    1    2  501    0  0.37727693097E+01  0.85100756145E+00  0.23765871039E+01  0.65342305130E+01  0.47000000000E+01 0. -1.
         -5    1    1    2    0  503 -0.37727693097E+01 -0.85100756145E+00 -0.15653983898E+02  0.16795690341E+02  0.47000000000E+01 0.  1.
<mgrwt>
<rscale>  2 0.60867070E+01</rscale>
<asrwt>0</asrwt>
<pdfrwt beam="1">  1       21 0.77327108E-03 0.60867070E+01</pdfrwt>
<pdfrwt beam="2">  1       21 0.28159475E-02 0.60867070E+01</pdfrwt>
<totfact> 0.10433365E+09</totfact>
</mgrwt>
</event>
<event>
 4    1  0.3931501E+006  0.8196953E+01  0.7546771E-02  0.2194942E+00
         21   -1    0    0  501  502  0.00000000000E+00  0.00000000000E+00  0.19349916339E+02  0.19349916339E+02  0.00000000000E+00 0. -1.
         21   -1    0    0  502  503 -0.00000000000E+00 -0.00000000000E+00 -0.99789626180E+01  0.99789626180E+01  0.00000000000E+00 0.  1.
          5    1    1    2  501    0  0.62176848533E+01  0.25378003706E+01  0.16526783706E+02  0.18447889184E+02  0.47000000000E+01 0. -1.
         -5    1    1    2    0  503 -0.62176848533E+01 -0.25378003706E+01 -0.71558299857E+01  0.10880989773E+02  0.47000000000E+01 0.  1.
<mgrwt>
<rscale>  2 0.81969528E+01</rscale>
<asrwt>0</asrwt>
<pdfrwt beam="1">  1       21 0.29769102E-02 0.81969528E+01</pdfrwt>
<pdfrwt beam="2">  1       21 0.15352250E-02 0.81969528E+01</pdfrwt>
<totfact> 0.44626220E+08</totfact>
</mgrwt>
</event>
<event>
 4    1  0.3931501E+006  0.5115538E+01  0.7546771E-02  0.2547057E+00
         21   -1    0    0  503  502  0.00000000000E+00  0.00000000000E+00  0.56788737004E+02  0.56788737004E+02  0.00000000000E+00 0.  1.
         21   -1    0    0  501  503 -0.00000000000E+00 -0.00000000000E+00 -0.22753788785E+01  0.22753788785E+01  0.00000000000E+00 0.  1.
          5    1    1    2  501    0 -0.17017194254E+01  0.10876045312E+01  0.88402977753E+00  0.51913621784E+01  0.47000000000E+01 0.  1.
         -5    1    1    2    0  502  0.17017194254E+01 -0.10876045312E+01  0.53629328348E+02  0.53872753704E+02  0.47000000000E+01 0.  1.
<mgrwt>
<rscale>  2 0.51155384E+01</rscale>
<asrwt>0</asrwt>
<pdfrwt beam="1">  1       21 0.87367277E-02 0.51155384E+01</pdfrwt>
<pdfrwt beam="2">  1       21 0.35005833E-03 0.51155384E+01</pdfrwt>
<totfact> 0.50852608E+08</totfact>
</mgrwt>
</event>
<event>
 4    1  0.3931501E+006  0.6909386E+01  0.7546771E-02  0.2310227E+00
         21   -1    0    0  503  502  0.00000000000E+00  0.00000000000E+00  0.42221835725E+01  0.42221835725E+01  0.00000000000E+00 0. -1.
         21   -1    0    0  501  503 -0.00000000000E+00 -0.00000000000E+00 -0.15975504222E+02  0.15975504222E+02  0.00000000000E+00 0.  1.
          5    1    1    2  501    0 -0.18000315283E+01 -0.47338681974E+01 -0.11335997884E+02  0.13275709761E+02  0.47000000000E+01 0.  1.
         -5    1    1    2    0  502  0.18000315283E+01  0.47338681974E+01 -0.41732276530E+00  0.69219780340E+01  0.47000000000E+01 0. -1.
<mgrwt>
<rscale>  2 0.69093865E+01</rscale>
<asrwt>0</asrwt>
<pdfrwt beam="1">  1       21 0.64956671E-03 0.69093865E+01</pdfrwt>
<pdfrwt beam="2">  1       21 0.24577698E-02 0.69093865E+01</pdfrwt>
<totfact> 0.17970730E+09</totfact>
</mgrwt>
</event>
<event>
 4    1  0.3931501E+006  0.5548371E+01  0.7546771E-02  0.2478193E+00
         21   -1    0    0  501  502  0.00000000000E+00  0.00000000000E+00  0.42615258777E+00  0.42615258777E+00  0.00000000000E+00 0.  1.
         21   -1    0    0  502  503 -0.00000000000E+00 -0.00000000000E+00 -0.91656912871E+02  0.91656912871E+02  0.00000000000E+00 0.  1.
          5    1    1    2  501    0  0.21463378429E+01  0.20217937496E+01 -0.24423012799E+02  0.25045318331E+02  0.47000000000E+01 0.  1.
         -5    1    1    2    0  503 -0.21463378429E+01 -0.20217937496E+01 -0.66807747484E+02  0.67037747128E+02  0.47000000000E+01 0.  1.
<mgrwt>
<rscale>  2 0.55483706E+01</rscale>
<asrwt>0</asrwt>
<pdfrwt beam="1">  1       21 0.65561886E-04 0.55483706E+01</pdfrwt>
<pdfrwt beam="2">  1       21 0.14101074E-01 0.55483706E+01</pdfrwt>
<totfact> 0.24984986E+09</totfact>
</mgrwt>
</event>
<event>
 4    1  0.3931501E+006  0.5846079E+01  0.7546771E-02  0.2435898E+00
         21   -1    0    0  501  502  0.00000000000E+00  0.00000000000E+00  0.73560470386E+02  0.73560470386E+02  0.00000000000E+00 0. -1.
         21   -1    0    0  502  503 -0.00000000000E+00 -0.00000000000E+00 -0.11721213465E+01  0.11721213465E+01  0.00000000000E+00 0. -1.
          5    1    1    2  501    0  0.20975664232E+01  0.27725168398E+01  0.65225154651E+02  0.65486620265E+02  0.47000000000E+01 0. -1.
         -5    1    1    2    0  503 -0.20975664232E+01 -0.27725168398E+01  0.71631943890E+01  0.92459714677E+01  0.47000000000E+01 0. -1.
<mgrwt>
<rscale>  2 0.58460786E+01</rscale>
<asrwt>0</asrwt>
<pdfrwt beam="1">  1       21 0.11316992E-01 0.58460786E+01</pdfrwt>
<pdfrwt beam="2">  1       21 0.18032642E-03 0.58460786E+01</pdfrwt>
<totfact> 0.94427906E+08</totfact>
</mgrwt>
</event>
<event>
 4    1  0.3931501E+006  0.5400757E+01  0.7546771E-02  0.2500620E+00
         21   -1    0    0  501  502  0.00000000000E+00  0.00000000000E+00  0.16593051337E+03  0.16593051337E+03  0.00000000000E+00 0.  1.
         21   -1    0    0  502  503 -0.00000000000E+00 -0.00000000000E+00 -0.48811660024E+00  0.48811660024E+00  0.00000000000E+00 0. -1.
          5    1    1    2  501    0  0.16566929177E+01 -0.20817157930E+01  0.14928188592E+03  0.14937954892E+03  0.47000000000E+01 0.  1.
         -5    1    1    2    0  503 -0.16566929177E+01  0.20817157930E+01  0.16160510847E+02  0.17039081047E+02  0.47000000000E+01 0. -1.
<mgrwt>
<rscale>  2 0.54007566E+01</rscale>
<asrwt>0</asrwt>
<pdfrwt beam="1">  1       21 0.25527726E-01 0.54007566E+01</pdfrwt>
<pdfrwt beam="2">  1       21 0.75094994E-04 0.54007566E+01</pdfrwt>
<totfact> 0.78963851E+08</totfact>
</mgrwt>
</event>
<event>
 4    1  0.3931501E+006  0.5273945E+01  0.7546771E-02  0.2520736E+00
         21   -1    0    0  501  502  0.00000000000E+00  0.00000000000E+00  0.16703628172E+00  0.16703628172E+00  0.00000000000E+00 0. -1.
         21   -1    0    0  502  503 -0.00000000000E+00 -0.00000000000E+00 -0.20880163019E+03  0.20880163019E+03  0.00000000000E+00 0. -1.
          5    1    1    2  501    0  0.12693878827E+01  0.20280898752E+01 -0.15133614756E+03  0.15142801608E+03  0.47000000000E+01 0. -1.
         -5    1    1    2    0  503 -0.12693878827E+01 -0.20280898752E+01 -0.57298446347E+02  0.57540650396E+02  0.47000000000E+01 0. -1.
<mgrwt>
<rscale>  2 0.52739448E+01</rscale>
<asrwt>0</asrwt>
<pdfrwt beam="1">  1       21 0.25697844E-04 0.52739448E+01</pdfrwt>
<pdfrwt beam="2">  1       21 0.32123384E-01 0.52739448E+01</pdfrwt>
<totfact> 0.21973174E+09</totfact>
</mgrwt>
</event>
<event>
 4    1  0.3931501E+006  0.4711874E+01  0.7546771E-02  0.2620954E+00
         21   -1    0    0  501  502  0.00000000000E+00  0.00000000000E+00  0.35897070675E+01  0.35897070675E+01  0.00000000000E+00 0. -1.
         21   -1    0    0  502  503 -0.00000000000E+00 -0.00000000000E+00 -0.71041334897E+01  0.71041334897E+01  0.00000000000E+00 0. -1.
          5    1    1    2  501    0  0.14625331861E+00  0.30060619599E+00  0.16621457408E+00  0.47148044925E+01  0.47000000000E+01 0. -1.
         -5    1    1    2    0  503 -0.14625331861E+00 -0.30060619599E+00 -0.36806409964E+01  0.59790360647E+01  0.47000000000E+01 0. -1.
<mgrwt>
<rscale>  2 0.47118737E+01</rscale>
<asrwt>0</asrwt>
<pdfrwt beam="1">  1       21 0.55226263E-03 0.47118737E+01</pdfrwt>
<pdfrwt beam="2">  1       21 0.10929436E-02 0.47118737E+01</pdfrwt>
<totfact> 0.50001400E+09</totfact>
</mgrwt>
</event>
<event>
 4    1  0.3931501E+006  0.7454770E+01  0.7546771E-02  0.2257450E+00
         21   -1    0    0  503  502  0.00000000000E+00  0.00000000000E+00  0.14914421527E+03  0.14914421527E+03  0.00000000000E+00 0. -1.
         21   -1    0    0  501  503 -0.00000000000E+00 -0.00000000000E+00 -0.68702373424E+00  0.68702373424E+00  0.00000000000E+00 0. -1.
          5    1    1    2  501    0 -0.15091734230E+01 -0.55862328016E+01  0.23549046594E+02  0.24700833929E+02  0.47000000000E+01 0. -1.
         -5    1    1    2    0  502  0.15091734230E+01  0.55862328016E+01  0.12490814494E+03  0.12513040508E+03  0.47000000000E+01 0. -1.
<mgrwt>
<rscale>  2 0.74547704E+01</rscale>
<asrwt>0</asrwt>
<pdfrwt beam="1">  1       21 0.22945238E-01 0.74547704E+01</pdfrwt>
<pdfrwt beam="2">  1       21 0.10569608E-03 0.74547704E+01</pdfrwt>
<totfact> 0.75065653E+08</totfact>
</mgrwt>
</event>
<event>
 4    1  0.3931501E+006  0.5300933E+01  0.7546771E-02  0.2516386E+00
         21   -1    0    0  501  502  0.00000000000E+00  0.00000000000E+00  0.14709891406E+00  0.14709891406E+00  0.00000000000E+00 0.  1.
         21   -1    0    0  502  503 -0.00000000000E+00 -0.00000000000E+00 -0.34897918309E+03  0.34897918309E+03  0.00000000000E+00 0.  1.
          5    1    1    2  501    0  0.18971848791E+01  0.15526054189E+01 -0.56976236170E+02  0.57222297946E+02  0.47000000000E+01 0.  1.
         -5    1    1    2    0  503 -0.18971848791E+01 -0.15526054189E+01 -0.29185584801E+03  0.29190398406E+03  0.47000000000E+01 0.  1.
<mgrwt>
<rscale>  2 0.53009333E+01</rscale>
<asrwt>0</asrwt>
<pdfrwt beam="1">  1       21 0.22630404E-04 0.53009333E+01</pdfrwt>
<pdfrwt beam="2">  1       21 0.53689575E-01 0.53009333E+01</pdfrwt>
<totfact> 0.10697461E+09</totfact>
</mgrwt>
</event>
<event>
 4    1  0.3931501E+006  0.9680478E+01  0.7546771E-02  0.2093641E+00
         21   -1    0    0  503  502  0.00000000000E+00  0.00000000000E+00  0.17833159887E+03  0.17833159887E+03  0.00000000000E+00 0. -1.
         21   -1    0    0  501  503 -0.00000000000E+00 -0.00000000000E+00 -0.32215486965E+01  0.32215486965E+01  0.00000000000E+00 0. -1.
          5    1    1    2  501    0 -0.83147138463E+01 -0.15770829204E+01  0.45114524628E+01  0.10680115178E+02  0.47000000000E+01 0. -1.
         -5    1    1    2    0  502  0.83147138463E+01  0.15770829204E+01  0.17059859771E+03  0.17087303239E+03  0.47000000000E+01 0. -1.
<mgrwt>
<rscale>  2 0.96804781E+01</rscale>
<asrwt>0</asrwt>
<pdfrwt beam="1">  1       21 0.27435623E-01 0.96804781E+01</pdfrwt>
<pdfrwt beam="2">  1       21 0.49562302E-03 0.96804781E+01</pdfrwt>
<totfact> 0.74348500E+07</totfact>
</mgrwt>
</event>
<event>
 4    1  0.3931501E+006  0.4823111E+01  0.7546771E-02  0.2599524E+00
         21   -1    0    0  501  502  0.00000000000E+00  0.00000000000E+00  0.51068338977E+01  0.51068338977E+01  0.00000000000E+00 0.  1.
         21   -1    0    0  502  503 -0.00000000000E+00 -0.00000000000E+00 -0.65923807835E+01  0.65923807835E+01  0.00000000000E+00 0.  1.
          5    1    1    2  501    0  0.75086646317E+00  0.78012979948E+00  0.25090391567E+01  0.54366975674E+01  0.47000000000E+01 0.  1.
         -5    1    1    2    0  503 -0.75086646317E+00 -0.78012979948E+00 -0.39945860425E+01  0.62625171138E+01  0.47000000000E+01 0.  1.
<mgrwt>
<rscale>  2 0.48231113E+01</rscale>
<asrwt>0</asrwt>
<pdfrwt beam="1">  1       21 0.78566675E-03 0.48231113E+01</pdfrwt>
<pdfrwt beam="2">  1       21 0.10142124E-02 0.48231113E+01</pdfrwt>
<totfact> 0.35019062E+09</totfact>
</mgrwt>
</event>
<event>
 4    1  0.3931501E+006  0.5958211E+01  0.7546771E-02  0.2420894E+00
         21   -1    0    0  501  502  0.00000000000E+00  0.00000000000E+00  0.49907899699E+01  0.49907899699E+01  0.00000000000E+00 0.  1.
         21   -1    0    0  502  503 -0.00000000000E+00 -0.00000000000E+00 -0.38384846826E+02  0.38384846826E+02  0.00000000000E+00 0. -1.
          5    1    1    2  501    0 -0.24435572559E+01 -0.27275083856E+01  0.28784161896E+01  0.66170653478E+01  0.47000000000E+01 0.  1.
         -5    1    1    2    0  503  0.24435572559E+01  0.27275083856E+01 -0.36272473046E+02  0.36758571448E+02  0.47000000000E+01 0. -1.
<mgrwt>
<rscale>  2 0.59582106E+01</rscale>
<asrwt>0</asrwt>
<pdfrwt beam="1">  1       21 0.76781384E-03 0.59582106E+01</pdfrwt>
<pdfrwt beam="2">  1       21 0.59053611E-02 0.59582106E+01</pdfrwt>
<totfact> 0.34860773E+08</totfact>
</mgrwt>
</event>
<event>
 4    1  0.3931501E+006  0.5003313E+01  0.7546771E-02  0.2566566E+00
         21   -1    0    0  501  502  0.00000000000E+00  0.00000000000E+00  0.60909557650E+02  0.60909557650E+02  0.00000000000E+00 0.  1.
         21   -1    0    0  502  503 -0.00000000000E+00 -0.00000000000E+00 -0.79339110493E+00  0.79339110493E+00  0.00000000000E+00 0.  1.
          5    1    1    2  501    0 -0.14022718387E+01 -0.98832069628E+00  0.51476754690E+02  0.51719333112E+02  0.47000000000E+01 0.  1.
         -5    1    1    2    0  503  0.14022718387E+01  0.98832069628E+00  0.86394118547E+01  0.99836156428E+01  0.47000000000E+01 0.  1.
<mgrwt>
<rscale>  2 0.50033133E+01</rscale>
<asrwt>0</asrwt>
<pdfrwt beam="1">  1       21 0.93706975E-02 0.50033133E+01</pdfrwt>
<pdfrwt beam="2">  1       21 0.12206022E-03 0.50033133E+01</pdfrwt>
<totfact> 0.18552683E+09</totfact>
</mgrwt>
</event>
<event>
 4    1  0.3931501E+006  0.6638988E+01  0.7546771E-02  0.2339005E+00
         21   -1    0    0  501  502  0.00000000000E+00  0.00000000000E+00  0.25866194692E+02  0.25866194692E+02  0.00000000000E+00 0. -1.
         21   -1    0    0  502  503 -0.00000000000E+00 -0.00000000000E+00 -0.40406089658E+01  0.40406089658E+01  0.00000000000E+00 0. -1.
          5    1    1    2  501    0  0.15289386597E+01 -0.44326633929E+01  0.22284064344E+02  0.23252003825E+02  0.47000000000E+01 0. -1.
         -5    1    1    2    0  503 -0.15289386597E+01  0.44326633929E+01 -0.45847861738E+00  0.66547998334E+01  0.47000000000E+01 0. -1.
<mgrwt>
<rscale>  2 0.66389877E+01</rscale>
<asrwt>0</asrwt>
<pdfrwt beam="1">  1       21 0.39794145E-02 0.66389877E+01</pdfrwt>
<pdfrwt beam="2">  1       21 0.62163217E-03 0.66389877E+01</pdfrwt>
<totfact> 0.91432438E+08</totfact>
</mgrwt>
</event>
<event>
 4    1  0.3931501E+006  0.5906546E+01  0.7546771E-02  0.2427748E+00
         21   -1    0    0  501  502  0.00000000000E+00  0.00000000000E+00  0.11457798502E+01  0.11457798502E+01  0.00000000000E+00 0.  1.
         21   -1    0    0  502  503 -0.00000000000E+00 -0.00000000000E+00 -0.39041074034E+02  0.39041074034E+02  0.00000000000E+00 0.  1.
          5    1    1    2  501    0 -0.34835997441E+01  0.81352444002E+00 -0.95210591551E+01  0.11204367748E+02  0.47000000000E+01 0.  1.
         -5    1    1    2    0  503  0.34835997441E+01 -0.81352444002E+00 -0.28374235029E+02  0.28982486137E+02  0.47000000000E+01 0.  1.
<mgrwt>
<rscale>  2 0.59065463E+01</rscale>
<asrwt>0</asrwt>
<pdfrwt beam="1">  1       21 0.17627387E-03 0.59065463E+01</pdfrwt>
<pdfrwt beam="2">  1       21 0.60063174E-02 0.59065463E+01</pdfrwt>
<totfact> 0.25672236E+09</totfact>
</mgrwt>
</event>
<event>
 4    1  0.3931501E+006  0.4934567E+01  0.7546771E-02  0.2578894E+00
         21   -1    0    0  501  502  0.00000000000E+00  0.00000000000E+00  0.69831914162E+00  0.69831914162E+00  0.00000000000E+00 0.  1.
         21   -1    0    0  502  503 -0.00000000000E+00 -0.00000000000E+00 -0.57650464453E+02  0.57650464453E+02  0.00000000000E+00 0.  1.
          5    1    1    2  501    0  0.45445559482E+00 -0.14329780726E+01 -0.10136568246E+02  0.11273862330E+02  0.47000000000E+01 0.  1.
         -5    1    1    2    0  503 -0.45445559482E+00  0.14329780726E+01 -0.46815577066E+02  0.47074921264E+02  0.47000000000E+01 0.  1.
<mgrwt>
<rscale>  2 0.49345675E+01</rscale>
<asrwt>0</asrwt>
<pdfrwt beam="1">  1       21 0.10743369E-03 0.49345675E+01</pdfrwt>
<pdfrwt beam="2">  1       21 0.88693045E-02 0.49345675E+01</pdfrwt>
<totfact> 0.23563313E+09</totfact>
</mgrwt>
</event>
<event>
 4    1  0.3931501E+006  0.4836426E+01  0.7546771E-02  0.2597016E+00
         21   -1    0    0  503  502  0.00000000000E+00  0.00000000000E+00  0.11694581310E+03  0.11694581310E+03  0.00000000000E+00 0.  1.
         21   -1    0    0  501  503 -0.00000000000E+00 -0.00000000000E+00 -0.45861728335E+00  0.45861728335E+00  0.00000000000E+00 0. -1.
          5    1    1    2  501    0  0.71651681419E+00  0.88747881851E+00  0.14163276348E+02  0.14966275819E+02  0.47000000000E+01 0. -1.
         -5    1    1    2    0  502 -0.71651681419E+00 -0.88747881851E+00  0.10232391947E+03  0.10243815456E+03  0.47000000000E+01 0.  1.
<mgrwt>
<rscale>  2 0.48364258E+01</rscale>
<asrwt>0</asrwt>
<pdfrwt beam="1">  1       21 0.17991640E-01 0.48364258E+01</pdfrwt>
<pdfrwt beam="2">  1       21 0.70556598E-04 0.48364258E+01</pdfrwt>
<totfact> 0.13637189E+09</totfact>
</mgrwt>
</event>
<event>
 4    1  0.3931501E+006  0.4706593E+01  0.7546771E-02  0.2621993E+00
         21   -1    0    0  501  502  0.00000000000E+00  0.00000000000E+00  0.82206125795E+01  0.82206125795E+01  0.00000000000E+00 0. -1.
         21   -1    0    0  502  503 -0.00000000000E+00 -0.00000000000E+00 -0.29634783869E+01  0.29634783869E+01  0.00000000000E+00 0. -1.
          5    1    1    2  501    0  0.22255349545E+00  0.11175934599E+00  0.43126882240E+01  0.63836744848E+01  0.47000000000E+01 0. -1.
         -5    1    1    2    0  503 -0.22255349545E+00 -0.11175934599E+00  0.94444596849E+00  0.48004164816E+01  0.47000000000E+01 0. -1.
<mgrwt>
<rscale>  2 0.47065933E+01</rscale>
<asrwt>0</asrwt>
<pdfrwt beam="1">  1       21 0.12647096E-02 0.47065933E+01</pdfrwt>
<pdfrwt beam="2">  1       21 0.45591975E-03 0.47065933E+01</pdfrwt>
<totfact> 0.52963956E+09</totfact>
</mgrwt>
</event>
<event>
 4    1  0.3931501E+006  0.5247550E+01  0.7546771E-02  0.2525027E+00
         21   -1    0    0  503  502  0.00000000000E+00  0.00000000000E+00  0.15808134278E+01  0.15808134278E+01  0.00000000000E+00 0. -1.
         21   -1    0    0  501  503 -0.00000000000E+00 -0.00000000000E+00 -0.70529720544E+02  0.70529720544E+02  0.00000000000E+00 0. -1.
          5    1    1    2  501    0  0.18877338426E+01  0.13723107464E+01 -0.65762050876E+02  0.65971085418E+02  0.47000000000E+01 0. -1.
         -5    1    1    2    0  502 -0.18877338426E+01 -0.13723107464E+01 -0.31868562401E+01  0.61394485535E+01  0.47000000000E+01 0. -1.
<mgrwt>
<rscale>  2 0.52475495E+01</rscale>
<asrwt>0</asrwt>
<pdfrwt beam="1">  1       21 0.24320202E-03 0.52475495E+01</pdfrwt>
<pdfrwt beam="2">  1       21 0.10850728E-01 0.52475495E+01</pdfrwt>
<totfact> 0.61443559E+08</totfact>
</mgrwt>
</event>
<event>
 4    1  0.3931501E+006  0.7815532E+01  0.7546771E-02  0.2225868E+00
         21   -1    0    0  501  502  0.00000000000E+00  0.00000000000E+00  0.25214646211E+01  0.25214646211E+01  0.00000000000E+00 0. -1.
         21   -1    0    0  502  503 -0.00000000000E+00 -0.00000000000E+00 -0.30591214939E+02  0.30591214939E+02  0.00000000000E+00 0.  1.
          5    1    1    2  501    0 -0.61586379461E+01  0.10313701148E+01 -0.64821142921E+01  0.10153834318E+02  0.47000000000E+01 0. -1.
         -5    1    1    2    0  503  0.61586379461E+01 -0.10313701148E+01 -0.21587636026E+02  0.22958845242E+02  0.47000000000E+01 0.  1.
<mgrwt>
<rscale>  2 0.78155323E+01</rscale>
<asrwt>0</asrwt>
<pdfrwt beam="1">  1       21 0.38791766E-03 0.78155323E+01</pdfrwt>
<pdfrwt beam="2">  1       21 0.47063405E-02 0.78155323E+01</pdfrwt>
<totfact> 0.15525029E+09</totfact>
</mgrwt>
</event>
<event>
 4    1  0.3931501E+006  0.5135650E+01  0.7546771E-02  0.2543638E+00
         21   -1    0    0  501  502  0.00000000000E+00  0.00000000000E+00  0.11330409987E+02  0.11330409987E+02  0.00000000000E+00 0.  1.
         21   -1    0    0  502  503 -0.00000000000E+00 -0.00000000000E+00 -0.24406265750E+01  0.24406265750E+01  0.00000000000E+00 0.  1.
          5    1    1    2  501    0  0.20341730293E+01 -0.38345547519E+00  0.29644312005E+01  0.59298187457E+01  0.47000000000E+01 0.  1.
         -5    1    1    2    0  503 -0.20341730293E+01  0.38345547519E+00  0.59253522118E+01  0.78412178167E+01  0.47000000000E+01 0.  1.
<mgrwt>
<rscale>  2 0.51356497E+01</rscale>
<asrwt>0</asrwt>
<pdfrwt beam="1">  1       21 0.17431400E-02 0.51356497E+01</pdfrwt>
<pdfrwt beam="2">  1       21 0.37548102E-03 0.51356497E+01</pdfrwt>
<totfact> 0.48308314E+09</totfact>
</mgrwt>
</event>
<event>
 4    1  0.3931501E+006  0.4760684E+01  0.7546771E-02  0.2611444E+00
         21   -1    0    0  503  502  0.00000000000E+00  0.00000000000E+00  0.52393017510E+02  0.52393017510E+02  0.00000000000E+00 0. -1.
         21   -1    0    0  501  503 -0.00000000000E+00 -0.00000000000E+00 -0.97443933729E+00  0.97443933729E+00  0.00000000000E+00 0. -1.
          5    1    1    2  501    0  0.49074536128E+00  0.57730646118E+00  0.58111331236E+01  0.75122155148E+01  0.47000000000E+01 0. -1.
         -5    1    1    2    0  502 -0.49074536128E+00 -0.57730646118E+00  0.45607445049E+02  0.45855241332E+02  0.47000000000E+01 0. -1.
<mgrwt>
<rscale>  2 0.47606842E+01</rscale>
<asrwt>0</asrwt>
<pdfrwt beam="1">  1       21 0.80604621E-02 0.47606842E+01</pdfrwt>
<pdfrwt beam="2">  1       21 0.14991378E-03 0.47606842E+01</pdfrwt>
<totfact> 0.16836333E+09</totfact>
</mgrwt>
</event>
<event>
 4    1  0.3931501E+006  0.6951573E+01  0.7546771E-02  0.2305904E+00
         21   -1    0    0  503  502  0.00000000000E+00  0.00000000000E+00  0.14868851319E+01  0.14868851319E+01  0.00000000000E+00 0.  1.
         21   -1    0    0  501  503 -0.00000000000E+00 -0.00000000000E+00 -0.33194833556E+02  0.33194833556E+02  0.00000000000E+00 0.  1.
          5    1    1    2  501    0  0.66500396607E+00 -0.50785963375E+01 -0.18362096576E+02  0.19633923747E+02  0.47000000000E+01 0.  1.
         -5    1    1    2    0  502 -0.66500396607E+00  0.50785963375E+01 -0.13345851849E+02  0.15047794942E+02  0.47000000000E+01 0.  1.
<mgrwt>
<rscale>  2 0.69515733E+01</rscale>
<asrwt>0</asrwt>
<pdfrwt beam="1">  1       21 0.22875156E-03 0.69515733E+01</pdfrwt>
<pdfrwt beam="2">  1       21 0.51068973E-02 0.69515733E+01</pdfrwt>
<totfact> 0.26216756E+09</totfact>
</mgrwt>
</event>
<event>
 4    1  0.3931501E+006  0.7679444E+01  0.7546771E-02  0.2237499E+00
         21   -1    0    0  501  502  0.00000000000E+00  0.00000000000E+00  0.33116289679E+03  0.33116289679E+03  0.00000000000E+00 0. -1.
         21   -1    0    0  502  503 -0.00000000000E+00 -0.00000000000E+00 -0.40830465656E+00  0.40830465656E+00  0.00000000000E+00 0. -1.
          5    1    1    2  501    0 -0.68846257934E+00 -0.60340595085E+01  0.28986587652E+03  0.28996758478E+03  0.47000000000E+01 0. -1.
         -5    1    1    2    0  503  0.68846257934E+00  0.60340595085E+01  0.40888715616E+02  0.41603616665E+02  0.47000000000E+01 0. -1.
<mgrwt>
<rscale>  2 0.76794437E+01</rscale>
<asrwt>0</asrwt>
<pdfrwt beam="1">  1       21 0.50947923E-01 0.76794437E+01</pdfrwt>
<pdfrwt beam="2">  1       21 0.62816366E-04 0.76794437E+01</pdfrwt>
<totfact> 0.38584087E+08</totfact>
</mgrwt>
</event>
<event>
 4    1  0.3931501E+006  0.5000736E+01  0.7546771E-02  0.2567023E+00
         21   -1    0    0  503  502  0.00000000000E+00  0.00000000000E+00  0.42254416369E+03  0.42254416369E+03  0.00000000000E+00 0. -1.
         21   -1    0    0  501  503 -0.00000000000E+00 -0.00000000000E+00 -0.63814905596E-01  0.63814905596E-01  0.00000000000E+00 0. -1.
          5    1    1    2  501    0 -0.85219604318E+00  0.14802442431E+01  0.15431108192E+03  0.15439208971E+03  0.47000000000E+01 0. -1.
         -5    1    1    2    0  502  0.85219604318E+00 -0.14802442431E+01  0.26816926687E+03  0.26821588889E+03  0.47000000000E+01 0. -1.
<mgrwt>
<rscale>  2 0.50007361E+01</rscale>
<asrwt>0</asrwt>
<pdfrwt beam="1">  1       21 0.65004554E-01 0.50007361E+01</pdfrwt>
<pdfrwt beam="2">  1       21 0.98180161E-05 0.50007361E+01</pdfrwt>
<totfact> 0.21732787E+09</totfact>
</mgrwt>
</event>
<event>
 4    1  0.3931501E+006  0.5003249E+01  0.7546771E-02  0.2566578E+00
         21   -1    0    0  501  502  0.00000000000E+00  0.00000000000E+00  0.21070738539E+03  0.21070738539E+03  0.00000000000E+00 0. -1.
         21   -1    0    0  502  503 -0.00000000000E+00 -0.00000000000E+00 -0.23879624206E+00  0.23879624206E+00  0.00000000000E+00 0. -1.
          5    1    1    2  501    0  0.13169365126E+01 -0.10991717467E+01  0.18000091940E+03  0.18007044034E+03  0.47000000000E+01 0. -1.
         -5    1    1    2    0  503 -0.13169365126E+01  0.10991717467E+01  0.30467669746E+02  0.30875741288E+02  0.47000000000E+01 0. -1.
<mgrwt>
<rscale>  2 0.50032490E+01</rscale>
<asrwt>0</asrwt>
<pdfrwt beam="1">  1       21 0.32416372E-01 0.50032490E+01</pdfrwt>
<pdfrwt beam="2">  1       21 0.36738052E-04 0.50032490E+01</pdfrwt>
<totfact> 0.12861079E+09</totfact>
</mgrwt>
</event>
<event>
 4    1  0.3931501E+006  0.4775882E+01  0.7546771E-02  0.2608517E+00
         21   -1    0    0  501  502  0.00000000000E+00  0.00000000000E+00  0.45277235288E+03  0.45277235288E+03  0.00000000000E+00 0. -1.
         21   -1    0    0  502  503 -0.00000000000E+00 -0.00000000000E+00 -0.58695254526E-01  0.58695254526E-01  0.00000000000E+00 0. -1.
          5    1    1    2  501    0 -0.60744658118E+00 -0.59165481883E+00  0.31159539715E+03  0.31163199542E+03  0.47000000000E+01 0. -1.
         -5    1    1    2    0  503  0.60744658118E+00  0.59165481883E+00  0.14111826048E+03  0.14119905271E+03  0.47000000000E+01 0. -1.
<mgrwt>
<rscale>  2 0.47758818E+01</rscale>
<asrwt>0</asrwt>
<pdfrwt beam="1">  1       21 0.69654488E-01 0.47758818E+01</pdfrwt>
<pdfrwt beam="2">  1       21 0.90304017E-05 0.47758818E+01</pdfrwt>
<totfact> 0.20521943E+09</totfact>
</mgrwt>
</event>
<event>
 4    1  0.3931501E+006  0.5255833E+01  0.7546771E-02  0.2523677E+00
         21   -1    0    0  503  502  0.00000000000E+00  0.00000000000E+00  0.54731580257E-01  0.54731580257E-01  0.00000000000E+00 0. -1.
         21   -1    0    0  501  503 -0.00000000000E+00 -0.00000000000E+00 -0.66756038994E+03  0.66756038994E+03  0.00000000000E+00 0. -1.
          5    1    1    2  501    0 -0.16164461686E-01  0.23523440837E+01 -0.49862229116E+03  0.49864999050E+03  0.47000000000E+01 0. -1.
         -5    1    1    2    0  502  0.16164461686E-01 -0.23523440837E+01 -0.16888336720E+03  0.16896513102E+03  0.47000000000E+01 0. -1.
<mgrwt>
<rscale>  2 0.52558333E+01</rscale>
<asrwt>0</asrwt>
<pdfrwt beam="1">  1       21 0.84199492E-05 0.52558333E+01</pdfrwt>
<pdfrwt beam="2">  1       21 0.10270518E+00 0.52558333E+01</pdfrwt>
<totfact> 0.11474496E+09</totfact>
</mgrwt>
</event>
<event>
 4    1  0.3931501E+006  0.6027609E+01  0.7546771E-02  0.2411844E+00
         21   -1    0    0  503  502  0.00000000000E+00  0.00000000000E+00  0.19840952200E+02  0.19840952200E+02  0.00000000000E+00 0.  1.
         21   -1    0    0  501  503 -0.00000000000E+00 -0.00000000000E+00 -0.27310972784E+01  0.27310972784E+01  0.00000000000E+00 0. -1.
          5    1    1    2  501    0  0.33997178177E+01  0.16382883989E+01  0.20763870643E+01  0.63752218282E+01  0.47000000000E+01 0. -1.
         -5    1    1    2    0  502 -0.33997178177E+01 -0.16382883989E+01  0.15033467858E+02  0.16196827651E+02  0.47000000000E+01 0.  1.
<mgrwt>
<rscale>  2 0.60276090E+01</rscale>
<asrwt>0</asrwt>
<pdfrwt beam="1">  1       21 0.30524541E-02 0.60276090E+01</pdfrwt>
<pdfrwt beam="2">  1       21 0.42016882E-03 0.60276090E+01</pdfrwt>
<totfact> 0.21539875E+09</totfact>
</mgrwt>
</event>
<event>
 4    1  0.3931501E+006  0.7605252E+01  0.7546771E-02  0.2243981E+00
         21   -1    0    0  503  502  0.00000000000E+00  0.00000000000E+00  0.13546310402E+04  0.13546310402E+04  0.00000000000E+00 0. -1.
         21   -1    0    0  501  503 -0.00000000000E+00 -0.00000000000E+00 -0.45443967754E-01  0.45443967754E-01  0.00000000000E+00 0. -1.
          5    1    1    2  501    0 -0.58882530502E+01  0.10384275474E+01  0.84379720107E+03  0.84383147393E+03  0.47000000000E+01 0. -1.
         -5    1    1    2    0  502  0.58882530502E+01 -0.10384275474E+01  0.51078839518E+03  0.51084501026E+03  0.47000000000E+01 0. -1.
<mgrwt>
<rscale>  2 0.76052519E+01</rscale>
<asrwt>0</asrwt>
<pdfrwt beam="1">  1       21 0.20837244E+00 0.76052519E+01</pdfrwt>
<pdfrwt beam="2">  1       21 0.69924646E-05 0.76052519E+01</pdfrwt>
<totfact> 0.40095158E+08</totfact>
</mgrwt>
</event>
<event>
 4    1  0.3931501E+006  0.7997197E+01  0.7546771E-02  0.2210842E+00
         21   -1    0    0  503  502  0.00000000000E+00  0.00000000000E+00  0.86893968154E+00  0.86893968154E+00  0.00000000000E+00 0.  1.
         21   -1    0    0  501  503 -0.00000000000E+00 -0.00000000000E+00 -0.74377807400E+02  0.74377807400E+02  0.00000000000E+00 0.  1.
          5    1    1    2  501    0  0.34964573874E+01 -0.54442585526E+01 -0.40598444879E+02  0.41378604279E+02  0.47000000000E+01 0.  1.
         -5    1    1    2    0  502 -0.34964573874E+01  0.54442585526E+01 -0.32910422839E+02  0.33868142803E+02  0.47000000000E+01 0.  1.
<mgrwt>
<rscale>  2 0.79971973E+01</rscale>
<asrwt>0</asrwt>
<pdfrwt beam="1">  1       21 0.13368294E-03 0.79971973E+01</pdfrwt>
<pdfrwt beam="2">  1       21 0.11442747E-01 0.79971973E+01</pdfrwt>
<totfact> 0.17588456E+09</totfact>
</mgrwt>
</event>
<event>
 4    1  0.3931501E+006  0.4931159E+01  0.7546771E-02  0.2579513E+00
         21   -1    0    0  503  502  0.00000000000E+00  0.00000000000E+00  0.35957827278E+02  0.35957827278E+02  0.00000000000E+00 0. -1.
         21   -1    0    0  501  503 -0.00000000000E+00 -0.00000000000E+00 -0.24459324087E+01  0.24459324087E+01  0.00000000000E+00 0.  1.
          5    1    1    2  501    0  0.22789338353E+00 -0.14745826506E+01  0.42280665954E+00  0.49492519494E+01  0.47000000000E+01 0.  1.
         -5    1    1    2    0  502 -0.22789338353E+00  0.14745826506E+01  0.33089088210E+02  0.33454507738E+02  0.47000000000E+01 0. -1.
<mgrwt>
<rscale>  2 0.49311590E+01</rscale>
<asrwt>0</asrwt>
<pdfrwt beam="1">  1       21 0.55319730E-02 0.49311590E+01</pdfrwt>
<pdfrwt beam="2">  1       21 0.37629732E-03 0.49311590E+01</pdfrwt>
<totfact> 0.87843014E+08</totfact>
</mgrwt>
</event>
<event>
 4    1  0.3931501E+006  0.6791455E+01  0.7546771E-02  0.2322546E+00
         21   -1    0    0  503  502  0.00000000000E+00  0.00000000000E+00  0.66614077871E+01  0.66614077871E+01  0.00000000000E+00 0. -1.
         21   -1    0    0  501  503 -0.00000000000E+00 -0.00000000000E+00 -0.18606904791E+02  0.18606904791E+02  0.00000000000E+00 0. -1.
          5    1    1    2  501    0 -0.10254492623E+01 -0.47939876926E+01 -0.15983895169E+02  0.17366887141E+02  0.47000000000E+01 0. -1.
         -5    1    1    2    0  502  0.10254492623E+01  0.47939876926E+01  0.40383981658E+01  0.79014254367E+01  0.47000000000E+01 0. -1.
<mgrwt>
<rscale>  2 0.67914552E+01</rscale>
<asrwt>0</asrwt>
<pdfrwt beam="1">  1       21 0.10248320E-02 0.67914552E+01</pdfrwt>
<pdfrwt beam="2">  1       21 0.28626007E-02 0.67914552E+01</pdfrwt>
<totfact> 0.74462283E+08</totfact>
</mgrwt>
</event>
<event>
 4    1  0.3931501E+006  0.6161301E+01  0.7546771E-02  0.2394891E+00
         21   -1    0    0  503  502  0.00000000000E+00  0.00000000000E+00  0.10368336560E+02  0.10368336560E+02  0.00000000000E+00 0.  1.
         21   -1    0    0  501  503 -0.00000000000E+00 -0.00000000000E+00 -0.56531842059E+01  0.56531842059E+01  0.00000000000E+00 0.  1.
          5    1    1    2  501    0  0.38271488323E+01  0.11066007905E+01 -0.23975140979E+01  0.66113317375E+01  0.47000000000E+01 0.  1.
         -5    1    1    2    0  502 -0.38271488323E+01 -0.11066007905E+01  0.71126664523E+01  0.94101890287E+01  0.47000000000E+01 0.  1.
<mgrwt>
<rscale>  2 0.61613013E+01</rscale>
<asrwt>0</asrwt>
<pdfrwt beam="1">  1       21 0.15951287E-02 0.61613013E+01</pdfrwt>
<pdfrwt beam="2">  1       21 0.86972065E-03 0.61613013E+01</pdfrwt>
<totfact> 0.20261200E+09</totfact>
</mgrwt>
</event>
<event>
 4    1  0.3931501E+006  0.8682117E+01  0.7546771E-02  0.2158791E+00
         21   -1    0    0  501  502  0.00000000000E+00  0.00000000000E+00  0.10201047215E+02  0.10201047215E+02  0.00000000000E+00 0.  1.
         21   -1    0    0  502  503 -0.00000000000E+00 -0.00000000000E+00 -0.74276275478E+01  0.74276275478E+01  0.00000000000E+00 0.  1.
          5    1    1    2  501    0  0.60311791078E+01  0.41126669731E+01  0.20194317038E+01  0.89138799335E+01  0.47000000000E+01 0.  1.
         -5    1    1    2    0  503 -0.60311791078E+01 -0.41126669731E+01  0.75398796305E+00  0.87147948289E+01  0.47000000000E+01 0.  1.
<mgrwt>
<rscale>  2 0.86821167E+01</rscale>
<asrwt>0</asrwt>
<pdfrwt beam="1">  1       21 0.15693919E-02 0.86821167E+01</pdfrwt>
<pdfrwt beam="2">  1       21 0.11427119E-02 0.86821167E+01</pdfrwt>
<totfact> 0.18202095E+09</totfact>
</mgrwt>
</event>
<event>
 4    1  0.3931501E+006  0.4785560E+01  0.7546771E-02  0.2606661E+00
         21   -1    0    0  501  502  0.00000000000E+00  0.00000000000E+00  0.84833399806E+01  0.84833399806E+01  0.00000000000E+00 0.  1.
         21   -1    0    0  502  503 -0.00000000000E+00 -0.00000000000E+00 -0.79473073277E+01  0.79473073277E+01  0.00000000000E+00 0.  1.
          5    1    1    2  501    0  0.24971171843E+00 -0.86558199442E+00  0.69437600282E+01  0.84331127978E+01  0.47000000000E+01 0.  1.
         -5    1    1    2    0  503 -0.24971171843E+00  0.86558199442E+00 -0.64077273752E+01  0.79975345105E+01  0.47000000000E+01 0.  1.
<mgrwt>
<rscale>  2 0.47855604E+01</rscale>
<asrwt>0</asrwt>
<pdfrwt beam="1">  1       21 0.13051292E-02 0.47855604E+01</pdfrwt>
<pdfrwt beam="2">  1       21 0.12226627E-02 0.47855604E+01</pdfrwt>
<totfact> 0.13213374E+09</totfact>
</mgrwt>
</event>
<event>
 4    1  0.3931501E+006  0.7335401E+01  0.7546771E-02  0.2268452E+00
         21   -1    0    0  501  502  0.00000000000E+00  0.00000000000E+00  0.38271632526E+01  0.38271632526E+01  0.00000000000E+00 0. -1.
         21   -1    0    0  502  503 -0.00000000000E+00 -0.00000000000E+00 -0.27410134154E+02  0.27410134154E+02  0.00000000000E+00 0. -1.
          5    1    1    2  501    0  0.51770249829E+01  0.22173215428E+01 -0.89118683583E+00  0.73893380268E+01  0.47000000000E+01 0. -1.
         -5    1    1    2    0  503 -0.51770249829E+01 -0.22173215428E+01 -0.22691784065E+02  0.23847959379E+02  0.47000000000E+01 0. -1.
<mgrwt>
<rscale>  2 0.73354006E+01</rscale>
<asrwt>0</asrwt>
<pdfrwt beam="1">  1       21 0.58879435E-03 0.73354006E+01</pdfrwt>
<pdfrwt beam="2">  1       21 0.42169437E-02 0.73354006E+01</pdfrwt>
<totfact> 0.97310799E+08</totfact>
</mgrwt>
</event>
<event>
 4    1  0.3931501E+006  0.5648810E+01  0.7546771E-02  0.2463503E+00
         21   -1    0    0  503  502  0.00000000000E+00  0.00000000000E+00  0.75360202367E+02  0.75360202367E+02  0.00000000000E+00 0. -1.
         21   -1    0    0  501  503 -0.00000000000E+00 -0.00000000000E+00 -0.42369261888E+00  0.42369261888E+00  0.00000000000E+00 0.  1.
          5    1    1    2  501    0 -0.31926774111E+00  0.31172303603E+01  0.38428484142E+02  0.38841439861E+02  0.47000000000E+01 0. -1.
         -5    1    1    2    0  502  0.31926774111E+00 -0.31172303603E+01  0.36508025606E+02  0.36942455125E+02  0.47000000000E+01 0.  1.
<mgrwt>
<rscale>  2 0.56488102E+01</rscale>
<asrwt>0</asrwt>
<pdfrwt beam="1">  1       21 0.11593867E-01 0.56488102E+01</pdfrwt>
<pdfrwt beam="2">  1       21 0.65183540E-04 0.56488102E+01</pdfrwt>
<totfact> 0.34659082E+09</totfact>
</mgrwt>
</event>
<event>
 4    1  0.3931501E+006  0.5080488E+01  0.7546771E-02  0.2553070E+00
         21   -1    0    0  501  502  0.00000000000E+00  0.00000000000E+00  0.18435974734E+03  0.18435974734E+03  0.00000000000E+00 0. -1.
         21   -1    0    0  502  503 -0.00000000000E+00 -0.00000000000E+00 -0.18364466796E+00  0.18364466796E+00  0.00000000000E+00 0.  1.
          5    1    1    2  501    0  0.18579338918E+01 -0.51907887963E+00  0.13706790534E+03  0.13716202840E+03  0.47000000000E+01 0. -1.
         -5    1    1    2    0  503 -0.18579338918E+01  0.51907887963E+00  0.47108197341E+02  0.47381363614E+02  0.47000000000E+01 0.  1.
<mgrwt>
<rscale>  2 0.50804883E+01</rscale>
<asrwt>0</asrwt>
<pdfrwt beam="1">  1       21 0.28362890E-01 0.50804883E+01</pdfrwt>
<pdfrwt beam="2">  1       21 0.28253173E-04 0.50804883E+01</pdfrwt>
<totfact> 0.23057091E+09</totfact>
</mgrwt>
</event>
<event>
 4    1  0.3931501E+006  0.8144115E+01  0.7546771E-02  0.2199087E+00
         21   -1    0    0  503  502  0.00000000000E+00  0.00000000000E+00  0.49649757416E+02  0.49649757416E+02  0.00000000000E+00 0.  1.
         21   -1    0    0  501  503 -0.00000000000E+00 -0.00000000000E+00 -0.26205809605E+01  0.26205809605E+01  0.00000000000E+00 0. -1.
          5    1    1    2  501    0 -0.59678560840E+01 -0.29362063325E+01  0.52156512559E+01  0.96710719101E+01  0.47000000000E+01 0. -1.
         -5    1    1    2    0  502  0.59678560840E+01  0.29362063325E+01  0.41813525199E+02  0.42599266466E+02  0.47000000000E+01 0.  1.
<mgrwt>
<rscale>  2 0.81441153E+01</rscale>
<asrwt>0</asrwt>
<pdfrwt beam="1">  1       21 0.76384235E-02 0.81441153E+01</pdfrwt>
<pdfrwt beam="2">  1       21 0.40316634E-03 0.81441153E+01</pdfrwt>
<totfact> 0.72259413E+08</totfact>
</mgrwt>
</event>
<event>
 4    1  0.3931501E+006  0.4712376E+01  0.7546771E-02  0.2620855E+00
         21   -1    0    0  501  502  0.00000000000E+00  0.00000000000E+00  0.14249425390E+01  0.14249425390E+01  0.00000000000E+00 0. -1.
         21   -1    0    0  502  503 -0.00000000000E+00 -0.00000000000E+00 -0.27584460027E+02  0.27584460027E+02  0.00000000000E+00 0. -1.
          5    1    1    2  501    0 -0.55613643842E-01 -0.33674790275E+00 -0.35128173840E+01  0.58776166939E+01  0.47000000000E+01 0. -1.
         -5    1    1    2    0  503  0.55613643842E-01  0.33674790275E+00 -0.22646700104E+02  0.23131785872E+02  0.47000000000E+01 0. -1.
<mgrwt>
<rscale>  2 0.47123765E+01</rscale>
<asrwt>0</asrwt>
<pdfrwt beam="1">  1       21 0.21922193E-03 0.47123765E+01</pdfrwt>
<pdfrwt beam="2">  1       21 0.42437631E-02 0.47123765E+01</pdfrwt>
<totfact> 0.25665696E+09</totfact>
</mgrwt>
</event>
<event>
 4    1  0.3931501E+006  0.8714221E+01  0.7546771E-02  0.2156513E+00
         21   -1    0    0  501  502  0.00000000000E+00  0.00000000000E+00  0.42015812226E+03  0.42015812226E+03  0.00000000000E+00 0.  1.
         21   -1    0    0  502  503 -0.00000000000E+00 -0.00000000000E+00 -0.31525002381E+00  0.31525002381E+00  0.00000000000E+00 0. -1.
          5    1    1    2  501    0  0.63406793515E+01  0.36937022864E+01  0.34725127220E+03  0.34736059606E+03  0.47000000000E+01 0.  1.
         -5    1    1    2    0  503 -0.63406793515E+01 -0.36937022864E+01  0.72591600037E+02  0.73112776224E+02  0.47000000000E+01 0. -1.
<mgrwt>
<rscale>  2 0.87142212E+01</rscale>
<asrwt>0</asrwt>
<pdfrwt beam="1">  1       21 0.64639263E-01 0.87142212E+01</pdfrwt>
<pdfrwt beam="2">  1       21 0.48500340E-04 0.87142212E+01</pdfrwt>
<totfact> 0.37548041E+08</totfact>
</mgrwt>
</event>
<event>
 4    1  0.3931501E+006  0.5742899E+01  0.7546771E-02  0.2450137E+00
         21   -1    0    0  503  502  0.00000000000E+00  0.00000000000E+00  0.39536226229E+01  0.39536226229E+01  0.00000000000E+00 0.  1.
         21   -1    0    0  501  503 -0.00000000000E+00 -0.00000000000E+00 -0.85923864172E+01  0.85923864172E+01  0.00000000000E+00 0.  1.
          5    1    1    2  501    0 -0.17847000543E+01 -0.27759204980E+01 -0.33903456054E+01  0.66689828474E+01  0.47000000000E+01 0.  1.
         -5    1    1    2    0  502  0.17847000543E+01  0.27759204980E+01 -0.12484181889E+01  0.58770261927E+01  0.47000000000E+01 0.  1.
<mgrwt>
<rscale>  2 0.57428990E+01</rscale>
<asrwt>0</asrwt>
<pdfrwt beam="1">  1       21 0.60824964E-03 0.57428990E+01</pdfrwt>
<pdfrwt beam="2">  1       21 0.13219056E-02 0.57428990E+01</pdfrwt>
<totfact> 0.41022589E+09</totfact>
</mgrwt>
</event>
<event>
 4    1  0.3931501E+006  0.7542860E+01  0.7546771E-02  0.2249513E+00
         21   -1    0    0  503  502  0.00000000000E+00  0.00000000000E+00  0.37273971569E+01  0.37273971569E+01  0.00000000000E+00 0. -1.
         21   -1    0    0  501  503 -0.00000000000E+00 -0.00000000000E+00 -0.16809781880E+02  0.16809781880E+02  0.00000000000E+00 0.  1.
          5    1    1    2  501    0  0.40521629507E+01  0.42877395197E+01 -0.34272290814E+01  0.82849643297E+01  0.47000000000E+01 0. -1.
         -5    1    1    2    0  502 -0.40521629507E+01 -0.42877395197E+01 -0.96551556421E+01  0.12252214708E+02  0.47000000000E+01 0.  1.
<mgrwt>
<rscale>  2 0.75428599E+01</rscale>
<asrwt>0</asrwt>
<pdfrwt beam="1">  1       21 0.57344571E-03 0.75428599E+01</pdfrwt>
<pdfrwt beam="2">  1       21 0.25861203E-02 0.75428599E+01</pdfrwt>
<totfact> 0.21252248E+09</totfact>
</mgrwt>
</event>
<event>
 4    1  0.3931501E+006  0.2810084E+02  0.7546771E-02  0.1620083E+00
         21   -1    0    0  501  502  0.00000000000E+00  0.00000000000E+00  0.16464297183E+01  0.16464297183E+01  0.00000000000E+00 0. -1.
         21   -1    0    0  502  503 -0.00000000000E+00 -0.00000000000E+00 -0.61037452536E+03  0.61037452536E+03  0.00000000000E+00 0.  1.
          5    1    1    2  501    0  0.25601735253E+02  0.10588588140E+02 -0.16272921742E+03  0.16513768573E+03  0.47000000000E+01 0. -1.
         -5    1    1    2    0  503 -0.25601735253E+02 -0.10588588140E+02 -0.44599887823E+03  0.44688326935E+03  0.47000000000E+01 0.  1.
<mgrwt>
<rscale>  2 0.28100837E+02</rscale>
<asrwt>0</asrwt>
<pdfrwt beam="1">  1       21 0.25329663E-03 0.28100837E+02</pdfrwt>
<pdfrwt beam="2">  1       21 0.93903866E-01 0.28100837E+02</pdfrwt>
<totfact> 0.24867605E+07</totfact>
</mgrwt>
</event>
<event>
 4    1  0.3931501E+006  0.5386225E+01  0.7546771E-02  0.2502884E+00
         21   -1    0    0  503  502  0.00000000000E+00  0.00000000000E+00  0.16877560486E+01  0.16877560486E+01  0.00000000000E+00 0. -1.
         21   -1    0    0  501  503 -0.00000000000E+00 -0.00000000000E+00 -0.18916365834E+02  0.18916365834E+02  0.00000000000E+00 0.  1.
          5    1    1    2  501    0 -0.19644145397E+01  0.17499977523E+01 -0.11727127536E+02  0.12904919095E+02  0.47000000000E+01 0.  1.
         -5    1    1    2    0  502  0.19644145397E+01 -0.17499977523E+01 -0.55014822493E+01  0.76992027870E+01  0.47000000000E+01 0. -1.
<mgrwt>
<rscale>  2 0.53862247E+01</rscale>
<asrwt>0</asrwt>
<pdfrwt beam="1">  1       21 0.25965477E-03 0.53862247E+01</pdfrwt>
<pdfrwt beam="2">  1       21 0.29102102E-02 0.53862247E+01</pdfrwt>
<totfact> 0.40331541E+09</totfact>
</mgrwt>
</event>
<event>
 4    1  0.3931501E+006  0.5741691E+01  0.7546771E-02  0.2450306E+00
         21   -1    0    0  503  502  0.00000000000E+00  0.00000000000E+00  0.63032620947E+02  0.63032620947E+02  0.00000000000E+00 0. -1.
         21   -1    0    0  501  503 -0.00000000000E+00 -0.00000000000E+00 -0.54542452752E+00  0.54542452752E+00  0.00000000000E+00 0.  1.
          5    1    1    2  501    0 -0.30329715588E+01 -0.12954154414E+01  0.24800059487E+02  0.25456039916E+02  0.47000000000E+01 0. -1.
         -5    1    1    2    0  502  0.30329715588E+01  0.12954154414E+01  0.37687136932E+02  0.38122005558E+02  0.47000000000E+01 0. -1.
<mgrwt>
<rscale>  2 0.57416912E+01</rscale>
<asrwt>0</asrwt>
<pdfrwt beam="1">  1       21 0.96973205E-02 0.57416912E+01</pdfrwt>
<pdfrwt beam="2">  1       21 0.83911516E-04 0.57416912E+01</pdfrwt>
<totfact> 0.33009007E+09</totfact>
</mgrwt>
</event>
<event>
 4    1  0.3931501E+006  0.9751499E+01  0.7546771E-02  0.2089412E+00
         21   -1    0    0  501  502  0.00000000000E+00  0.00000000000E+00  0.22665800230E+00  0.22665800230E+00  0.00000000000E+00 0.  1.
         21   -1    0    0  502  503 -0.00000000000E+00 -0.00000000000E+00 -0.52151987610E+03  0.52151987610E+03  0.00000000000E+00 0. -1.
          5    1    1    2  501    0 -0.75666353570E+01 -0.39683456040E+01 -0.14528673469E+03  0.14561362235E+03  0.47000000000E+01 0.  1.
         -5    1    1    2    0  503  0.75666353570E+01  0.39683456040E+01 -0.37600648341E+03  0.37613291175E+03  0.47000000000E+01 0. -1.
<mgrwt>
<rscale>  2 0.97514992E+01</rscale>
<asrwt>0</asrwt>
<pdfrwt beam="1">  1       21 0.34870704E-04 0.97514992E+01</pdfrwt>
<pdfrwt beam="2">  1       21 0.80233270E-01 0.97514992E+01</pdfrwt>
<totfact> 0.40694914E+08</totfact>
</mgrwt>
</event>
<event>
 4    1  0.3931501E+006  0.6269922E+01  0.7546771E-02  0.2381563E+00
         21   -1    0    0  503  502  0.00000000000E+00  0.00000000000E+00  0.13217942482E+03  0.13217942482E+03  0.00000000000E+00 0.  1.
         21   -1    0    0  501  503 -0.00000000000E+00 -0.00000000000E+00 -0.43401586849E+01  0.43401586849E+01  0.00000000000E+00 0.  1.
          5    1    1    2  501    0  0.19007293698E+01 -0.36890581311E+01 -0.19598751414E+01  0.65690967873E+01  0.47000000000E+01 0.  1.
         -5    1    1    2    0  502 -0.19007293698E+01  0.36890581311E+01  0.12979914128E+03  0.12995048672E+03  0.47000000000E+01 0.  1.
<mgrwt>
<rscale>  2 0.62699220E+01</rscale>
<asrwt>0</asrwt>
<pdfrwt beam="1">  1       21 0.20335293E-01 0.62699220E+01</pdfrwt>
<pdfrwt beam="2">  1       21 0.66771682E-03 0.62699220E+01</pdfrwt>
<totfact> 0.64573180E+07</totfact>
</mgrwt>
</event>
<event>
 4    1  0.3931501E+006  0.4702639E+01  0.7546771E-02  0.2622773E+00
         21   -1    0    0  503  502  0.00000000000E+00  0.00000000000E+00  0.28421397204E+01  0.28421397204E+01  0.00000000000E+00 0. -1.
         21   -1    0    0  501  503 -0.00000000000E+00 -0.00000000000E+00 -0.99954176864E+01  0.99954176864E+01  0.00000000000E+00 0. -1.
          5    1    1    2  501    0  0.15670484756E+00  0.15905676235E-01 -0.65978255970E+01  0.81022288297E+01  0.47000000000E+01 0.  1.
         -5    1    1    2    0  502 -0.15670484756E+00 -0.15905676235E-01 -0.55545236895E+00  0.47353285772E+01  0.47000000000E+01 0.  1.
<mgrwt>
<rscale>  2 0.47026386E+01</rscale>
<asrwt>0</asrwt>
<pdfrwt beam="1">  1       21 0.43725226E-03 0.47026386E+01</pdfrwt>
<pdfrwt beam="2">  1       21 0.15377566E-02 0.47026386E+01</pdfrwt>
<totfact> 0.42615779E+09</totfact>
</mgrwt>
</event>
<event>
 4    1  0.3931501E+006  0.4711963E+01  0.7546771E-02  0.2620937E+00
         21   -1    0    0  501  502  0.00000000000E+00  0.00000000000E+00  0.69677902034E+02  0.69677902034E+02  0.00000000000E+00 0.  1.
         21   -1    0    0  502  503 -0.00000000000E+00 -0.00000000000E+00 -0.77122125771E+00  0.77122125771E+00  0.00000000000E+00 0.  1.
          5    1    1    2  501    0  0.28701649674E+00  0.17382823547E+00  0.61437036452E+02  0.61617465404E+02  0.47000000000E+01 0.  1.
         -5    1    1    2    0  503 -0.28701649674E+00 -0.17382823547E+00  0.74696443238E+01  0.88316578879E+01  0.47000000000E+01 0.  1.
<mgrwt>
<rscale>  2 0.47119629E+01</rscale>
<asrwt>0</asrwt>
<pdfrwt beam="1">  1       21 0.10719672E-01 0.47119629E+01</pdfrwt>
<pdfrwt beam="2">  1       21 0.11864948E-03 0.47119629E+01</pdfrwt>
<totfact> 0.14832495E+09</totfact>
</mgrwt>
</event>
<event>
 4    1  0.3931501E+006  0.6269464E+01  0.7546771E-02  0.2381619E+00
         21   -1    0    0  503  502  0.00000000000E+00  0.00000000000E+00  0.67683307196E+01  0.67683307196E+01  0.00000000000E+00 0.  1.
         21   -1    0    0  501  503 -0.00000000000E+00 -0.00000000000E+00 -0.58746518223E+01  0.58746518223E+01  0.00000000000E+00 0. -1.
          5    1    1    2  501    0  0.36782063401E+01  0.19201488267E+01  0.11233746554E+01  0.63693126798E+01  0.47000000000E+01 0.  1.
         -5    1    1    2    0  502 -0.36782063401E+01 -0.19201488267E+01 -0.22969575807E+00  0.62736698621E+01  0.47000000000E+01 0.  1.
<mgrwt>
<rscale>  2 0.62694636E+01</rscale>
<asrwt>0</asrwt>
<pdfrwt beam="1">  1       21 0.10412816E-02 0.62694636E+01</pdfrwt>
<pdfrwt beam="2">  1       21 0.90379260E-03 0.62694636E+01</pdfrwt>
<totfact> 0.35748608E+09</totfact>
</mgrwt>
</event>
<event>
 4    1  0.3931501E+006  0.7693218E+01  0.7546771E-02  0.2236306E+00
         21   -1    0    0  501  502  0.00000000000E+00  0.00000000000E+00  0.46191412250E+01  0.46191412250E+01  0.00000000000E+00 0. -1.
         21   -1    0    0  502  503 -0.00000000000E+00 -0.00000000000E+00 -0.20754161061E+02  0.20754161061E+02  0.00000000000E+00 0.  1.
          5    1    1    2  501    0  0.40792967005E+01  0.45227146737E+01 -0.21997720949E+00  0.76963627489E+01  0.47000000000E+01 0. -1.
         -5    1    1    2    0  503 -0.40792967005E+01 -0.45227146737E+01 -0.15915042626E+02  0.17676939537E+02  0.47000000000E+01 0.  1.
<mgrwt>
<rscale>  2 0.76932184E+01</rscale>
<asrwt>0</asrwt>
<pdfrwt beam="1">  1       21 0.71063712E-03 0.76932184E+01</pdfrwt>
<pdfrwt beam="2">  1       21 0.31929478E-02 0.76932184E+01</pdfrwt>
<totfact> 0.11661927E+09</totfact>
</mgrwt>
</event>
<event>
 4    1  0.3931501E+006  0.7041027E+01  0.7546771E-02  0.2296877E+00
         21   -1    0    0  503  502  0.00000000000E+00  0.00000000000E+00  0.10138130059E+03  0.10138130059E+03  0.00000000000E+00 0. -1.
         21   -1    0    0  501  503 -0.00000000000E+00 -0.00000000000E+00 -0.19928940129E+01  0.19928940129E+01  0.00000000000E+00 0.  1.
          5    1    1    2  501    0 -0.52422370076E+01 -0.70835081349E-01  0.47940537086E+01  0.85181580998E+01  0.47000000000E+01 0.  1.
         -5    1    1    2    0  502  0.52422370076E+01  0.70835081349E-01  0.94594352870E+02  0.94856036505E+02  0.47000000000E+01 0. -1.
<mgrwt>
<rscale>  2 0.70410274E+01</rscale>
<asrwt>0</asrwt>
<pdfrwt beam="1">  1       21 0.15597119E-01 0.70410274E+01</pdfrwt>
<pdfrwt beam="2">  1       21 0.30659916E-03 0.70410274E+01</pdfrwt>
<totfact> 0.31465327E+08</totfact>
</mgrwt>
</event>
<event>
 4    1  0.3931501E+006  0.6882333E+01  0.7546771E-02  0.2313022E+00
         21   -1    0    0  501  502  0.00000000000E+00  0.00000000000E+00  0.27551201053E+03  0.27551201053E+03  0.00000000000E+00 0. -1.
         21   -1    0    0  502  503 -0.00000000000E+00 -0.00000000000E+00 -0.19768087799E+00  0.19768087799E+00  0.00000000000E+00 0. -1.
          5    1    1    2  501    0 -0.41411733832E+01 -0.28508228848E+01  0.18742001541E+03  0.18754633743E+03  0.47000000000E+01 0. -1.
         -5    1    1    2    0  503  0.41411733832E+01  0.28508228848E+01  0.87894314242E+02  0.88163353975E+02  0.47000000000E+01 0. -1.
<mgrwt>
<rscale>  2 0.68823330E+01</rscale>
<asrwt>0</asrwt>
<pdfrwt beam="1">  1       21 0.42386156E-01 0.68823330E+01</pdfrwt>
<pdfrwt beam="2">  1       21 0.30412663E-04 0.68823330E+01</pdfrwt>
<totfact> 0.13352247E+09</totfact>
</mgrwt>
</event>
<event>
 4    1  0.3931501E+006  0.5863128E+01  0.7546771E-02  0.2433585E+00
         21   -1    0    0  501  502  0.00000000000E+00  0.00000000000E+00  0.39671384027E+03  0.39671384027E+03  0.00000000000E+00 0.  1.
         21   -1    0    0  502  503 -0.00000000000E+00 -0.00000000000E+00 -0.28360367539E+00  0.28360367539E+00  0.00000000000E+00 0.  1.
          5    1    1    2  501    0 -0.33833300210E+01  0.91615993527E+00  0.36363244825E+03  0.36367971306E+03  0.47000000000E+01 0.  1.
         -5    1    1    2    0  503  0.33833300210E+01 -0.91615993527E+00  0.32797788345E+02  0.33317730886E+02  0.47000000000E+01 0.  1.
<mgrwt>
<rscale>  2 0.58631281E+01</rscale>
<asrwt>0</asrwt>
<pdfrwt beam="1">  1       21 0.61032454E-01 0.58631281E+01</pdfrwt>
<pdfrwt beam="2">  1       21 0.43631652E-04 0.58631281E+01</pdfrwt>
<totfact> 0.38074421E+08</totfact>
</mgrwt>
</event>
<event>
 4    1  0.3931501E+006  0.6711120E+01  0.7546771E-02  0.2331141E+00
         21   -1    0    0  503  502  0.00000000000E+00  0.00000000000E+00  0.28591762920E+01  0.28591762920E+01  0.00000000000E+00 0. -1.
         21   -1    0    0  501  503 -0.00000000000E+00 -0.00000000000E+00 -0.18333851331E+02  0.18333851331E+02  0.00000000000E+00 0. -1.
          5    1    1    2  501    0  0.34069281935E+01  0.33677843965E+01 -0.37612037936E+01  0.76932298441E+01  0.47000000000E+01 0. -1.
         -5    1    1    2    0  502 -0.34069281935E+01 -0.33677843965E+01 -0.11713471246E+02  0.13499797779E+02  0.47000000000E+01 0. -1.
<mgrwt>
<rscale>  2 0.67111200E+01</rscale>
<asrwt>0</asrwt>
<pdfrwt beam="1">  1       21 0.43987327E-03 0.67111200E+01</pdfrwt>
<pdfrwt beam="2">  1       21 0.28205926E-02 0.67111200E+01</pdfrwt>
<totfact> 0.24809558E+09</totfact>
</mgrwt>
</event>
<event>
 4    1  0.3931501E+006  0.1297088E+02  0.7546771E-02  0.1937144E+00
         21   -1    0    0  501  502  0.00000000000E+00  0.00000000000E+00  0.12873320477E+02  0.12873320477E+02  0.00000000000E+00 0.  1.
         21   -1    0    0  502  503 -0.00000000000E+00 -0.00000000000E+00 -0.52277551792E+02  0.52277551792E+02  0.00000000000E+00 0. -1.
          5    1    1    2  501    0  0.49202936982E+01 -0.11042848968E+02  0.85091126841E+01  0.15512859249E+02  0.47000000000E+01 0.  1.
         -5    1    1    2    0  503 -0.49202936982E+01  0.11042848968E+02 -0.47913343999E+02  0.49638013020E+02  0.47000000000E+01 0. -1.
<mgrwt>
<rscale>  2 0.12970883E+02</rscale>
<asrwt>0</asrwt>
<pdfrwt beam="1">  1       21 0.19805109E-02 0.12970883E+02</pdfrwt>
<pdfrwt beam="2">  1       21 0.80427002E-02 0.12970883E+02</pdfrwt>
<totfact> 0.83757980E+07</totfact>
</mgrwt>
</event>
<event>
 4    1  0.3931501E+006  0.1380646E+02  0.7546771E-02  0.1906836E+00
         21   -1    0    0  503  502  0.00000000000E+00  0.00000000000E+00  0.40855869394E+02  0.40855869394E+02  0.00000000000E+00 0. -1.
         21   -1    0    0  501  503 -0.00000000000E+00 -0.00000000000E+00 -0.62775801274E+01  0.62775801274E+01  0.00000000000E+00 0.  1.
          5    1    1    2  501    0  0.10090927036E+02  0.81670989760E+01  0.53470892302E+01  0.14805731234E+02  0.47000000000E+01 0.  1.
         -5    1    1    2    0  502 -0.10090927036E+02 -0.81670989760E+01  0.29231200037E+02  0.32327718288E+02  0.47000000000E+01 0.  1.
<mgrwt>
<rscale>  2 0.13806459E+02</rscale>
<asrwt>0</asrwt>
<pdfrwt beam="1">  1       21 0.62855182E-02 0.13806459E+02</pdfrwt>
<pdfrwt beam="2">  1       21 0.96578158E-03 0.13806459E+02</pdfrwt>
<totfact> 0.36863260E+08</totfact>
</mgrwt>
</event>
<event>
 4    1  0.3931501E+006  0.7919714E+01  0.7546771E-02  0.2217183E+00
         21   -1    0    0  501  502  0.00000000000E+00  0.00000000000E+00  0.50342997656E+01  0.50342997656E+01  0.00000000000E+00 0. -1.
         21   -1    0    0  502  503 -0.00000000000E+00 -0.00000000000E+00 -0.12656123849E+02  0.12656123849E+02  0.00000000000E+00 0.  1.
          5    1    1    2  501    0 -0.59396162145E+01 -0.23136198212E+01 -0.27067601435E+01  0.83694938872E+01  0.47000000000E+01 0. -1.
         -5    1    1    2    0  503  0.59396162145E+01  0.23136198212E+01 -0.49150639402E+01  0.93209297277E+01  0.47000000000E+01 0.  1.
<mgrwt>
<rscale>  2 0.79197145E+01</rscale>
<asrwt>0</asrwt>
<pdfrwt beam="1">  1       21 0.77450765E-03 0.79197145E+01</pdfrwt>
<pdfrwt beam="2">  1       21 0.19470960E-02 0.79197145E+01</pdfrwt>
<totfact> 0.21798150E+09</totfact>
</mgrwt>
</event>
<event>
 4    1  0.3931501E+006  0.5903808E+01  0.7546771E-02  0.2428114E+00
         21   -1    0    0  501  502  0.00000000000E+00  0.00000000000E+00  0.15086706823E+03  0.15086706823E+03  0.00000000000E+00 0.  1.
         21   -1    0    0  502  503 -0.00000000000E+00 -0.00000000000E+00 -0.37788364945E+00  0.37788364945E+00  0.00000000000E+00 0.  1.
          5    1    1    2  501    0  0.32913335796E+01  0.13899898087E+01  0.12238712850E+03  0.12252944205E+03  0.47000000000E+01 0.  1.
         -5    1    1    2    0  503 -0.32913335796E+01 -0.13899898087E+01  0.28102056089E+02  0.28715509831E+02  0.47000000000E+01 0.  1.
<mgrwt>
<rscale>  2 0.59038080E+01</rscale>
<asrwt>0</asrwt>
<pdfrwt beam="1">  1       21 0.23210270E-01 0.59038080E+01</pdfrwt>
<pdfrwt beam="2">  1       21 0.58136066E-04 0.59038080E+01</pdfrwt>
<totfact> 0.13945371E+09</totfact>
</mgrwt>
</event>
<event>
 4    1  0.3931501E+006  0.9519066E+01  0.7546771E-02  0.2103438E+00
         21   -1    0    0  501  502  0.00000000000E+00  0.00000000000E+00  0.27352731995E+00  0.27352731995E+00  0.00000000000E+00 0.  1.
         21   -1    0    0  502  503 -0.00000000000E+00 -0.00000000000E+00 -0.39147264970E+03  0.39147264970E+03  0.00000000000E+00 0. -1.
          5    1    1    2  501    0 -0.81537425207E+01 -0.14279686378E+01 -0.11878990471E+03  0.11917069301E+03  0.47000000000E+01 0.  1.
         -5    1    1    2    0  503  0.81537425207E+01  0.14279686378E+01 -0.27240921767E+03  0.27257548401E+03  0.47000000000E+01 0. -1.
<mgrwt>
<rscale>  2 0.95190657E+01</rscale>
<asrwt>0</asrwt>
<pdfrwt beam="1">  1       21 0.42081253E-04 0.95190657E+01</pdfrwt>
<pdfrwt beam="2">  1       21 0.60226380E-01 0.95190657E+01</pdfrwt>
<totfact> 0.54596743E+08</totfact>
</mgrwt>
</event>
<event>
 4    1  0.3931501E+006  0.7891620E+01  0.7546771E-02  0.2219507E+00
         21   -1    0    0  501  502  0.00000000000E+00  0.00000000000E+00  0.11415318078E+02  0.11415318078E+02  0.00000000000E+00 0.  1.
         21   -1    0    0  502  503 -0.00000000000E+00 -0.00000000000E+00 -0.13575014192E+02  0.13575014192E+02  0.00000000000E+00 0. -1.
          5    1    1    2  501    0  0.23899269750E+01 -0.58716191009E+01  0.85836340167E+01  0.11660035795E+02  0.47000000000E+01 0.  1.
         -5    1    1    2    0  503 -0.23899269750E+01  0.58716191009E+01 -0.10743330130E+02  0.13330296475E+02  0.47000000000E+01 0. -1.
<mgrwt>
<rscale>  2 0.78916197E+01</rscale>
<asrwt>0</asrwt>
<pdfrwt beam="1">  1       21 0.17562028E-02 0.78916197E+01</pdfrwt>
<pdfrwt beam="2">  1       21 0.20884637E-02 0.78916197E+01</pdfrwt>
<totfact> 0.60404786E+08</totfact>
</mgrwt>
</event>
<event>
 4    1  0.3931501E+006  0.5129996E+01  0.7546771E-02  0.2544597E+00
         21   -1    0    0  501  502  0.00000000000E+00  0.00000000000E+00  0.92455967244E+01  0.92455967244E+01  0.00000000000E+00 0.  1.
         21   -1    0    0  502  503 -0.00000000000E+00 -0.00000000000E+00 -0.53109476315E+01  0.53109476315E+01  0.00000000000E+00 0. -1.
          5    1    1    2  501    0  0.29168163296E+00  0.20351358404E+01  0.69253537960E+01  0.86184326455E+01  0.47000000000E+01 0.  1.
         -5    1    1    2    0  503 -0.29168163296E+00 -0.20351358404E+01 -0.29907047031E+01  0.59381117104E+01  0.47000000000E+01 0. -1.
<mgrwt>
<rscale>  2 0.51299957E+01</rscale>
<asrwt>0</asrwt>
<pdfrwt beam="1">  1       21 0.14223995E-02 0.51299957E+01</pdfrwt>
<pdfrwt beam="2">  1       21 0.81706887E-03 0.51299957E+01</pdfrwt>
<totfact> 0.22010843E+09</totfact>
</mgrwt>
</event>
<event>
 4    1  0.3931501E+006  0.4854638E+01  0.7546771E-02  0.2593605E+00
         21   -1    0    0  501  502  0.00000000000E+00  0.00000000000E+00  0.12408814552E+02  0.12408814552E+02  0.00000000000E+00 0.  1.
         21   -1    0    0  502  503 -0.00000000000E+00 -0.00000000000E+00 -0.11022750852E+02  0.11022750852E+02  0.00000000000E+00 0.  1.
          5    1    1    2  501    0  0.11077548658E+01 -0.50039138574E+00  0.11351798001E+02  0.12346288116E+02  0.47000000000E+01 0.  1.
         -5    1    1    2    0  503 -0.11077548658E+01  0.50039138574E+00 -0.99657343018E+01  0.11085277288E+02  0.47000000000E+01 0.  1.
<mgrwt>
<rscale>  2 0.48546382E+01</rscale>
<asrwt>0</asrwt>
<pdfrwt beam="1">  1       21 0.19090484E-02 0.48546382E+01</pdfrwt>
<pdfrwt beam="2">  1       21 0.16958078E-02 0.48546382E+01</pdfrwt>
<totfact> 0.49603168E+08</totfact>
</mgrwt>
</event>
<event>
 4    1  0.3931501E+006  0.6039594E+01  0.7546771E-02  0.2410299E+00
         21   -1    0    0  501  502  0.00000000000E+00  0.00000000000E+00  0.16278845767E+03  0.16278845767E+03  0.00000000000E+00 0.  1.
         21   -1    0    0  502  503 -0.00000000000E+00 -0.00000000000E+00 -0.67446843482E+00  0.67446843482E+00  0.00000000000E+00 0. -1.
          5    1    1    2  501    0 -0.13085535409E+01 -0.35601106438E+01  0.14784598059E+03  0.14796928964E+03  0.47000000000E+01 0.  1.
         -5    1    1    2    0  503  0.13085535409E+01  0.35601106438E+01  0.14268008638E+02  0.15493636457E+02  0.47000000000E+01 0. -1.
<mgrwt>
<rscale>  2 0.60395944E+01</rscale>
<asrwt>0</asrwt>
<pdfrwt beam="1">  1       21 0.25044347E-01 0.60395944E+01</pdfrwt>
<pdfrwt beam="2">  1       21 0.10376450E-03 0.60395944E+01</pdfrwt>
<totfact> 0.57605337E+08</totfact>
</mgrwt>
</event>
<event>
 4    1  0.3931501E+006  0.6956698E+01  0.7546771E-02  0.2305381E+00
         21   -1    0    0  503  502  0.00000000000E+00  0.00000000000E+00  0.78916866990E+03  0.78916866990E+03  0.00000000000E+00 0.  1.
         21   -1    0    0  501  503 -0.00000000000E+00 -0.00000000000E+00 -0.61350048643E-01  0.61350048643E-01  0.00000000000E+00 0.  1.
          5    1    1    2  501    0 -0.30958802079E+01  0.40891528397E+01  0.40255219363E+03  0.40261230017E+03  0.47000000000E+01 0.  1.
         -5    1    1    2    0  502  0.30958802079E+01 -0.40891528397E+01  0.38655512622E+03  0.38661771978E+03  0.47000000000E+01 0.  1.
<mgrwt>
<rscale>  2 0.69566979E+01</rscale>
<asrwt>0</asrwt>
<pdfrwt beam="1">  1       21 0.12140244E+00 0.69566979E+01</pdfrwt>
<pdfrwt beam="2">  1       21 0.94391010E-05 0.69566979E+01</pdfrwt>
<totfact> 0.84248371E+08</totfact>
</mgrwt>
</event>
<event>
 4    1  0.3931501E+006  0.5831191E+01  0.7546771E-02  0.2437926E+00
         21   -1    0    0  501  502  0.00000000000E+00  0.00000000000E+00  0.10911580581E+02  0.10911580581E+02  0.00000000000E+00 0.  1.
         21   -1    0    0  502  503 -0.00000000000E+00 -0.00000000000E+00 -0.47237875050E+01  0.47237875050E+01  0.00000000000E+00 0.  1.
          5    1    1    2  501    0  0.70744826912E+00  0.33782111181E+01  0.76544619458E+01  0.96225558503E+01  0.47000000000E+01 0.  1.
         -5    1    1    2    0  503 -0.70744826912E+00 -0.33782111181E+01 -0.14666688696E+01  0.60128122360E+01  0.47000000000E+01 0.  1.
<mgrwt>
<rscale>  2 0.58311914E+01</rscale>
<asrwt>0</asrwt>
<pdfrwt beam="1">  1       21 0.16787047E-02 0.58311914E+01</pdfrwt>
<pdfrwt beam="2">  1       21 0.72673654E-03 0.58311914E+01</pdfrwt>
<totfact> 0.23103841E+09</totfact>
</mgrwt>
</event>
<event>
 4    1  0.3931501E+006  0.1159345E+02  0.7546771E-02  0.1994238E+00
         21   -1    0    0  503  502  0.00000000000E+00  0.00000000000E+00  0.44525641900E+03  0.44525641900E+03  0.00000000000E+00 0.  1.
         21   -1    0    0  501  503 -0.00000000000E+00 -0.00000000000E+00 -0.11751249778E+01  0.11751249778E+01  0.00000000000E+00 0. -1.
          5    1    1    2  501    0 -0.10597743892E+02 -0.76992701630E-01  0.29618881663E+02  0.31807015806E+02  0.47000000000E+01 0. -1.
         -5    1    1    2    0  502  0.10597743892E+02  0.76992701630E-01  0.41446241236E+03  0.41462452817E+03  0.47000000000E+01 0.  1.
<mgrwt>
<rscale>  2 0.11593451E+02</rscale>
<asrwt>0</asrwt>
<pdfrwt beam="1">  1       21 0.68500853E-01 0.11593451E+02</pdfrwt>
<pdfrwt beam="2">  1       21 0.18078881E-03 0.11593451E+02</pdfrwt>
<totfact> 0.61854118E+07</totfact>
</mgrwt>
</event>
<event>
 4    1  0.3931501E+006  0.4762110E+01  0.7546771E-02  0.2611168E+00
         21   -1    0    0  501  502  0.00000000000E+00  0.00000000000E+00  0.16315267551E+02  0.16315267551E+02  0.00000000000E+00 0. -1.
         21   -1    0    0  502  503 -0.00000000000E+00 -0.00000000000E+00 -0.16885272771E+01  0.16885272771E+01  0.00000000000E+00 0. -1.
          5    1    1    2  501    0  0.88922858766E-01 -0.76143262386E+00  0.11098631561E+02  0.12077139953E+02  0.47000000000E+01 0. -1.
         -5    1    1    2    0  503 -0.88922858766E-01  0.76143262386E+00  0.35281087120E+01  0.59266548743E+01  0.47000000000E+01 0. -1.
<mgrwt>
<rscale>  2 0.47621095E+01</rscale>
<asrwt>0</asrwt>
<pdfrwt beam="1">  1       21 0.25100410E-02 0.47621095E+01</pdfrwt>
<pdfrwt beam="2">  1       21 0.25977344E-03 0.47621095E+01</pdfrwt>
<totfact> 0.43836022E+09</totfact>
</mgrwt>
</event>
<event>
 4    1  0.3931501E+006  0.6127663E+01  0.7546771E-02  0.2399098E+00
         21   -1    0    0  503  502  0.00000000000E+00  0.00000000000E+00  0.17484323043E+02  0.17484323043E+02  0.00000000000E+00 0. -1.
         21   -1    0    0  501  503 -0.00000000000E+00 -0.00000000000E+00 -0.21786164851E+01  0.21786164851E+01  0.00000000000E+00 0. -1.
          5    1    1    2  501    0  0.38937016548E+01 -0.54529526882E+00  0.64786225723E+01  0.89174441373E+01  0.47000000000E+01 0.  1.
         -5    1    1    2    0  502 -0.38937016548E+01  0.54529526882E+00  0.88270839851E+01  0.10745495390E+02  0.47000000000E+01 0.  1.
<mgrwt>
<rscale>  2 0.61276635E+01</rscale>
<asrwt>0</asrwt>
<pdfrwt beam="1">  1       21 0.26898958E-02 0.61276635E+01</pdfrwt>
<pdfrwt beam="2">  1       21 0.33517178E-03 0.61276635E+01</pdfrwt>
<totfact> 0.35881683E+09</totfact>
</mgrwt>
</event>
<event>
 4    1  0.3931501E+006  0.4958522E+01  0.7546771E-02  0.2574565E+00
         21   -1    0    0  503  502  0.00000000000E+00  0.00000000000E+00  0.27575347428E+00  0.27575347428E+00  0.00000000000E+00 0.  1.
         21   -1    0    0  501  503 -0.00000000000E+00 -0.00000000000E+00 -0.11935499295E+03  0.11935499295E+03  0.00000000000E+00 0.  1.
          5    1    1    2  501    0  0.14016800522E+01 -0.72954206421E+00 -0.89623939546E+02  0.89761001990E+02  0.47000000000E+01 0.  1.
         -5    1    1    2    0  502 -0.14016800522E+01  0.72954206421E+00 -0.29455299933E+02  0.29869744437E+02  0.47000000000E+01 0.  1.
<mgrwt>
<rscale>  2 0.49585218E+01</rscale>
<asrwt>0</asrwt>
<pdfrwt beam="1">  1       21 0.42423603E-04 0.49585218E+01</pdfrwt>
<pdfrwt beam="2">  1       21 0.18362310E-01 0.49585218E+01</pdfrwt>
<totfact> 0.26514101E+09</totfact>
</mgrwt>
</event>
<event>
 4    1  0.3931501E+006  0.8333896E+01  0.7546771E-02  0.2184397E+00
         21   -1    0    0  503  502  0.00000000000E+00  0.00000000000E+00  0.48536186237E+00  0.48536186237E+00  0.00000000000E+00 0.  1.
         21   -1    0    0  501  503 -0.00000000000E+00 -0.00000000000E+00 -0.15964220524E+03  0.15964220524E+03  0.00000000000E+00 0.  1.
          5    1    1    2  501    0 -0.61099510554E+01 -0.31673834369E+01 -0.10535341199E+03  0.10568252096E+03  0.47000000000E+01 0.  1.
         -5    1    1    2    0  502  0.61099510554E+01  0.31673834369E+01 -0.53803431385E+02  0.54445046134E+02  0.47000000000E+01 0.  1.
<mgrwt>
<rscale>  2 0.83338958E+01</rscale>
<asrwt>0</asrwt>
<pdfrwt beam="1">  1       21 0.74670990E-04 0.83338958E+01</pdfrwt>
<pdfrwt beam="2">  1       21 0.24560361E-01 0.83338958E+01</pdfrwt>
<totfact> 0.11537920E+09</totfact>
</mgrwt>
</event>
<event>
 4    1  0.3931501E+006  0.8583687E+01  0.7546771E-02  0.2165860E+00
         21   -1    0    0  501  502  0.00000000000E+00  0.00000000000E+00  0.29773971494E+02  0.29773971494E+02  0.00000000000E+00 0.  1.
         21   -1    0    0  502  503 -0.00000000000E+00 -0.00000000000E+00 -0.30486682691E+01  0.30486682691E+01  0.00000000000E+00 0. -1.
          5    1    1    2  501    0 -0.54741943879E+01 -0.46500408689E+01  0.20483919258E+02  0.22209696811E+02  0.47000000000E+01 0.  1.
         -5    1    1    2    0  503  0.54741943879E+01  0.46500408689E+01  0.62413839672E+01  0.10612942952E+02  0.47000000000E+01 0. -1.
<mgrwt>
<rscale>  2 0.85836871E+01</rscale>
<asrwt>0</asrwt>
<pdfrwt beam="1">  1       21 0.45806108E-02 0.85836871E+01</pdfrwt>
<pdfrwt beam="2">  1       21 0.46902591E-03 0.85836871E+01</pdfrwt>
<totfact> 0.13180673E+09</totfact>
</mgrwt>
</event>
<event>
 4    1  0.3931501E+006  0.6134575E+01  0.7546771E-02  0.2398231E+00
         21   -1    0    0  503  502  0.00000000000E+00  0.00000000000E+00  0.14568158347E+01  0.14568158347E+01  0.00000000000E+00 0.  1.
         21   -1    0    0  501  503 -0.00000000000E+00 -0.00000000000E+00 -0.26484715746E+02  0.26484715746E+02  0.00000000000E+00 0. -1.
          5    1    1    2  501    0  0.35991041518E+01  0.16091814927E+01 -0.14706548704E+02  0.15934729070E+02  0.47000000000E+01 0. -1.
         -5    1    1    2    0  502 -0.35991041518E+01 -0.16091814927E+01 -0.10321351207E+02  0.12006802510E+02  0.47000000000E+01 0.  1.
<mgrwt>
<rscale>  2 0.61345754E+01</rscale>
<asrwt>0</asrwt>
<pdfrwt beam="1">  1       21 0.22412550E-03 0.61345754E+01</pdfrwt>
<pdfrwt beam="2">  1       21 0.40745718E-02 0.61345754E+01</pdfrwt>
<totfact> 0.34011254E+09</totfact>
</mgrwt>
</event>
<event>
 4    1  0.3931501E+006  0.1476570E+02  0.7546771E-02  0.1875303E+00
         21   -1    0    0  501  502  0.00000000000E+00  0.00000000000E+00  0.55124987633E+03  0.55124987633E+03  0.00000000000E+00 0.  1.
         21   -1    0    0  502  503 -0.00000000000E+00 -0.00000000000E+00 -0.68618922529E+00  0.68618922529E+00  0.00000000000E+00 0. -1.
          5    1    1    2  501    0  0.92186527396E+01  0.10533395826E+02  0.45489670710E+03  0.45513628741E+03  0.47000000000E+01 0.  1.
         -5    1    1    2    0  503 -0.92186527396E+01 -0.10533395826E+02  0.95666980006E+02  0.96799778148E+02  0.47000000000E+01 0. -1.
<mgrwt>
<rscale>  2 0.14765703E+02</rscale>
<asrwt>0</asrwt>
<pdfrwt beam="1">  1       21 0.84807319E-01 0.14765703E+02</pdfrwt>
<pdfrwt beam="2">  1       21 0.10556801E-03 0.14765703E+02</pdfrwt>
<totfact> 0.92661239E+07</totfact>
</mgrwt>
</event>
<event>
 4    1  0.3931501E+006  0.1007139E+02  0.7546771E-02  0.2070947E+00
         21   -1    0    0  501  502  0.00000000000E+00  0.00000000000E+00  0.82733207176E+01  0.82733207176E+01  0.00000000000E+00 0. -1.
         21   -1    0    0  502  503 -0.00000000000E+00 -0.00000000000E+00 -0.44017303376E+02  0.44017303376E+02  0.00000000000E+00 0. -1.
          5    1    1    2  501    0 -0.68113395592E+01 -0.57400847881E+01  0.43356411958E+01  0.10964976267E+02  0.47000000000E+01 0. -1.
         -5    1    1    2    0  503  0.68113395592E+01  0.57400847881E+01 -0.40079623854E+02  0.41325647826E+02  0.47000000000E+01 0. -1.
<mgrwt>
<rscale>  2 0.10071391E+02</rscale>
<asrwt>0</asrwt>
<pdfrwt beam="1">  1       21 0.12728186E-02 0.10071391E+02</pdfrwt>
<pdfrwt beam="2">  1       21 0.67718927E-02 0.10071391E+02</pdfrwt>
<totfact> 0.18898360E+08</totfact>
</mgrwt>
</event>
<event>
 4    1  0.3931501E+006  0.4998062E+01  0.7546771E-02  0.2567498E+00
         21   -1    0    0  503  502  0.00000000000E+00  0.00000000000E+00  0.12467960883E+00  0.12467960883E+00  0.00000000000E+00 0.  1.
         21   -1    0    0  501  503 -0.00000000000E+00 -0.00000000000E+00 -0.67572871841E+03  0.67572871841E+03  0.00000000000E+00 0.  1.
          5    1    1    2  501    0 -0.73517213415E+00 -0.15330181605E+01 -0.62123624423E+03  0.62125634948E+03  0.47000000000E+01 0.  1.
         -5    1    1    2    0  502  0.73517213415E+00  0.15330181605E+01 -0.54367794570E+02  0.54597048539E+02  0.47000000000E+01 0.  1.
<mgrwt>
<rscale>  2 0.49980619E+01</rscale>
<asrwt>0</asrwt>
<pdfrwt beam="1">  1       21 0.19181334E-04 0.49980619E+01</pdfrwt>
<pdfrwt beam="2">  1       21 0.10395905E+00 0.49980619E+01</pdfrwt>
<totfact> 0.36207578E+08</totfact>
</mgrwt>
</event>
<event>
 4    1  0.3931501E+006  0.4762781E+01  0.7546771E-02  0.2611039E+00
         21   -1    0    0  501  502  0.00000000000E+00  0.00000000000E+00  0.27037121772E+02  0.27037121772E+02  0.00000000000E+00 0.  1.
         21   -1    0    0  502  503 -0.00000000000E+00 -0.00000000000E+00 -0.13556099794E+01  0.13556099794E+01  0.00000000000E+00 0.  1.
          5    1    1    2  501    0  0.28019170322E+00 -0.71803304309E+00  0.21604551333E+02  0.22123307102E+02  0.47000000000E+01 0.  1.
         -5    1    1    2    0  503 -0.28019170322E+00  0.71803304309E+00  0.40769604593E+01  0.62694246489E+01  0.47000000000E+01 0.  1.
<mgrwt>
<rscale>  2 0.47627806E+01</rscale>
<asrwt>0</asrwt>
<pdfrwt beam="1">  1       21 0.41595568E-02 0.47627806E+01</pdfrwt>
<pdfrwt beam="2">  1       21 0.20855540E-03 0.47627806E+01</pdfrwt>
<totfact> 0.28565059E+09</totfact>
</mgrwt>
</event>
<event>
 4    1  0.3931501E+006  0.1465068E+02  0.7546771E-02  0.1878919E+00
         21   -1    0    0  503  502  0.00000000000E+00  0.00000000000E+00  0.12210901020E+02  0.12210901020E+02  0.00000000000E+00 0. -1.
         21   -1    0    0  501  503 -0.00000000000E+00 -0.00000000000E+00 -0.33889389871E+02  0.33889389871E+02  0.00000000000E+00 0. -1.
          5    1    1    2  501    0  0.13399745983E+02 -0.36054540400E+01 -0.26830702790E+02  0.30570068751E+02  0.47000000000E+01 0. -1.
         -5    1    1    2    0  502 -0.13399745983E+02  0.36054540400E+01  0.51522139394E+01  0.15530222140E+02  0.47000000000E+01 0. -1.
<mgrwt>
<rscale>  2 0.14650682E+02</rscale>
<asrwt>0</asrwt>
<pdfrwt beam="1">  1       21 0.18786002E-02 0.14650682E+02</pdfrwt>
<pdfrwt beam="2">  1       21 0.52137523E-02 0.14650682E+02</pdfrwt>
<totfact> 0.18833134E+08</totfact>
</mgrwt>
</event>
<event>
 4    1  0.3931501E+006  0.4728185E+01  0.7546771E-02  0.2617757E+00
         21   -1    0    0  501  502  0.00000000000E+00  0.00000000000E+00  0.15001969908E+00  0.15001969908E+00  0.00000000000E+00 0.  1.
         21   -1    0    0  502  503 -0.00000000000E+00 -0.00000000000E+00 -0.22619196885E+03  0.22619196885E+03  0.00000000000E+00 0.  1.
          5    1    1    2  501    0  0.20670768731E+00 -0.47223539127E+00 -0.46916614504E+02  0.47154262277E+02  0.47000000000E+01 0.  1.
         -5    1    1    2    0  503 -0.20670768731E+00  0.47223539127E+00 -0.17912533465E+03  0.17918772627E+03  0.47000000000E+01 0.  1.
<mgrwt>
<rscale>  2 0.47281851E+01</rscale>
<asrwt>0</asrwt>
<pdfrwt beam="1">  1       21 0.23079916E-04 0.47281851E+01</pdfrwt>
<pdfrwt beam="2">  1       21 0.34798822E-01 0.47281851E+01</pdfrwt>
<totfact> 0.20054274E+09</totfact>
</mgrwt>
</event>
<event>
 4    1  0.3931501E+006  0.6461454E+01  0.7546771E-02  0.2358974E+00
         21   -1    0    0  503  502  0.00000000000E+00  0.00000000000E+00  0.27606845706E+00  0.27606845706E+00  0.00000000000E+00 0.  1.
         21   -1    0    0  501  503 -0.00000000000E+00 -0.00000000000E+00 -0.80255241445E+03  0.80255241445E+03  0.00000000000E+00 0.  1.
          5    1    1    2  501    0 -0.28273931825E+01  0.34155872071E+01 -0.76275898322E+03  0.76278635073E+03  0.47000000000E+01 0.  1.
         -5    1    1    2    0  502  0.28273931825E+01 -0.34155872071E+01 -0.39517362772E+02  0.40042132169E+02  0.47000000000E+01 0.  1.
<mgrwt>
<rscale>  2 0.64614540E+01</rscale>
<asrwt>0</asrwt>
<pdfrwt beam="1">  1       21 0.42472255E-04 0.64614540E+01</pdfrwt>
<pdfrwt beam="2">  1       21 0.12346906E+00 0.64614540E+01</pdfrwt>
<totfact> 0.10398598E+08</totfact>
</mgrwt>
</event>
<event>
 4    1  0.3931501E+006  0.6457957E+01  0.7546771E-02  0.2359376E+00
         21   -1    0    0  503  502  0.00000000000E+00  0.00000000000E+00  0.87910036944E+00  0.87910036944E+00  0.00000000000E+00 0.  1.
         21   -1    0    0  501  503 -0.00000000000E+00 -0.00000000000E+00 -0.21343566136E+03  0.21343566136E+03  0.00000000000E+00 0.  1.
          5    1    1    2  501    0 -0.42874054569E+01 -0.11105700964E+01 -0.20077917944E+03  0.20088301100E+03  0.47000000000E+01 0.  1.
         -5    1    1    2    0  502  0.42874054569E+01  0.11105700964E+01 -0.11777381550E+02  0.13431750730E+02  0.47000000000E+01 0.  1.
<mgrwt>
<rscale>  2 0.64579572E+01</rscale>
<asrwt>0</asrwt>
<pdfrwt beam="1">  1       21 0.13524619E-03 0.64579572E+01</pdfrwt>
<pdfrwt beam="2">  1       21 0.32836260E-01 0.64579572E+01</pdfrwt>
<totfact> 0.26756250E+08</totfact>
</mgrwt>
</event>
<event>
 4    1  0.3931501E+006  0.6807850E+01  0.7546771E-02  0.2320812E+00
         21   -1    0    0  503  502  0.00000000000E+00  0.00000000000E+00  0.82481452897E+02  0.82481452897E+02  0.00000000000E+00 0. -1.
         21   -1    0    0  501  503 -0.00000000000E+00 -0.00000000000E+00 -0.82212305616E+00  0.82212305616E+00  0.00000000000E+00 0.  1.
          5    1    1    2  501    0  0.36036433704E+01 -0.33571674373E+01  0.17396380677E+02  0.18681029934E+02  0.47000000000E+01 0.  1.
         -5    1    1    2    0  502 -0.36036433704E+01  0.33571674373E+01  0.64262949163E+02  0.64622546018E+02  0.47000000000E+01 0. -1.
<mgrwt>
<rscale>  2 0.68078498E+01</rscale>
<asrwt>0</asrwt>
<pdfrwt beam="1">  1       21 0.12689448E-01 0.68078498E+01</pdfrwt>
<pdfrwt beam="2">  1       21 0.12648053E-03 0.68078498E+01</pdfrwt>
<totfact> 0.14376083E+09</totfact>
</mgrwt>
</event>
<event>
 4    1  0.3931501E+006  0.8292031E+01  0.7546771E-02  0.2187591E+00
         21   -1    0    0  501  502  0.00000000000E+00  0.00000000000E+00  0.46955028983E+03  0.46955028983E+03  0.00000000000E+00 0.  1.
         21   -1    0    0  502  503 -0.00000000000E+00 -0.00000000000E+00 -0.18174937108E+00  0.18174937108E+00  0.00000000000E+00 0. -1.
          5    1    1    2  501    0 -0.67126824563E+01  0.12679374178E+01  0.33821523932E+03  0.33831687200E+03  0.47000000000E+01 0.  1.
         -5    1    1    2    0  503  0.67126824563E+01 -0.12679374178E+01  0.13115330114E+03  0.13141516720E+03  0.47000000000E+01 0. -1.
<mgrwt>
<rscale>  2 0.82920306E+01</rscale>
<asrwt>0</asrwt>
<pdfrwt beam="1">  1       21 0.72237535E-01 0.82920306E+01</pdfrwt>
<pdfrwt beam="2">  1       21 0.27961818E-04 0.82920306E+01</pdfrwt>
<totfact> 0.62195078E+08</totfact>
</mgrwt>
</event>
<event>
 4    1  0.3931501E+006  0.5621697E+01  0.7546771E-02  0.2467425E+00
         21   -1    0    0  501  502  0.00000000000E+00  0.00000000000E+00  0.15567706617E+02  0.15567706617E+02  0.00000000000E+00 0.  1.
         21   -1    0    0  502  503 -0.00000000000E+00 -0.00000000000E+00 -0.36135319490E+02  0.36135319490E+02  0.00000000000E+00 0. -1.
          5    1    1    2  501    0 -0.13346488665E+01  0.27806807217E+01  0.14831047568E+02  0.15860751711E+02  0.47000000000E+01 0.  1.
         -5    1    1    2    0  503  0.13346488665E+01 -0.27806807217E+01 -0.35398660441E+02  0.35842274396E+02  0.47000000000E+01 0. -1.
<mgrwt>
<rscale>  2 0.56216966E+01</rscale>
<asrwt>0</asrwt>
<pdfrwt beam="1">  1       21 0.23950318E-02 0.56216966E+01</pdfrwt>
<pdfrwt beam="2">  1       21 0.55592799E-02 0.56216966E+01</pdfrwt>
<totfact> 0.72882539E+07</totfact>
</mgrwt>
</event>
<event>
 4    1  0.3931501E+006  0.5328485E+01  0.7546771E-02  0.2511984E+00
         21   -1    0    0  501  502  0.00000000000E+00  0.00000000000E+00  0.59085282011E+02  0.59085282011E+02  0.00000000000E+00 0. -1.
         21   -1    0    0  502  503 -0.00000000000E+00 -0.00000000000E+00 -0.48057572770E+00  0.48057572770E+00  0.00000000000E+00 0. -1.
          5    1    1    2  501    0  0.24193448638E+01 -0.67046814747E+00  0.29564227490E+02  0.30040577627E+02  0.47000000000E+01 0. -1.
         -5    1    1    2    0  503 -0.24193448638E+01  0.67046814747E+00  0.29040478793E+02  0.29525280111E+02  0.47000000000E+01 0. -1.
<mgrwt>
<rscale>  2 0.53284854E+01</rscale>
<asrwt>0</asrwt>
<pdfrwt beam="1">  1       21 0.90900376E-02 0.53284854E+01</pdfrwt>
<pdfrwt beam="2">  1       21 0.73934774E-04 0.53284854E+01</pdfrwt>
<totfact> 0.40246307E+09</totfact>
</mgrwt>
</event>
<event>
 4    1  0.3931501E+006  0.6055975E+01  0.7546771E-02  0.2408195E+00
         21   -1    0    0  503  502  0.00000000000E+00  0.00000000000E+00  0.35641301972E-01  0.35641301972E-01  0.00000000000E+00 0. -1.
         21   -1    0    0  501  503 -0.00000000000E+00 -0.00000000000E+00 -0.15355827184E+04  0.15355827184E+04  0.00000000000E+00 0.  1.
          5    1    1    2  501    0  0.26505577660E+01  0.27494325796E+01 -0.12087776557E+04  0.12087928258E+04  0.47000000000E+01 0.  1.
         -5    1    1    2    0  502 -0.26505577660E+01 -0.27494325796E+01 -0.32676942137E+03  0.32682553386E+03  0.47000000000E+01 0. -1.
<mgrwt>
<rscale>  2 0.60559752E+01</rscale>
<asrwt>0</asrwt>
<pdfrwt beam="1">  1       21 0.54841828E-05 0.60559752E+01</pdfrwt>
<pdfrwt beam="2">  1       21 0.23620449E+00 0.60559752E+01</pdfrwt>
<totfact> 0.37217174E+08</totfact>
</mgrwt>
</event>
<event>
 4    1  0.3931501E+006  0.4756024E+01  0.7546771E-02  0.2612344E+00
         21   -1    0    0  503  502  0.00000000000E+00  0.00000000000E+00  0.76795587319E+02  0.76795587319E+02  0.00000000000E+00 0.  1.
         21   -1    0    0  501  503 -0.00000000000E+00 -0.00000000000E+00 -0.58113121907E+00  0.58113121907E+00  0.00000000000E+00 0. -1.
          5    1    1    2  501    0 -0.19496312626E+00  0.70125447441E+00  0.10938410342E+02  0.11927639719E+02  0.47000000000E+01 0. -1.
         -5    1    1    2    0  502  0.19496312626E+00 -0.70125447441E+00  0.65276045758E+02  0.65449078820E+02  0.47000000000E+01 0.  1.
<mgrwt>
<rscale>  2 0.47560244E+01</rscale>
<asrwt>0</asrwt>
<pdfrwt beam="1">  1       21 0.11814698E-01 0.47560244E+01</pdfrwt>
<pdfrwt beam="2">  1       21 0.89404864E-04 0.47560244E+01</pdfrwt>
<totfact> 0.18792518E+09</totfact>
</mgrwt>
</event>
<event>
 4    1  0.3931501E+006  0.6624859E+01  0.7546771E-02  0.2340561E+00
         21   -1    0    0  501  502  0.00000000000E+00  0.00000000000E+00  0.18155863435E+00  0.18155863435E+00  0.00000000000E+00 0.  1.
         21   -1    0    0  502  503 -0.00000000000E+00 -0.00000000000E+00 -0.24212083656E+03  0.24212083656E+03  0.00000000000E+00 0. -1.
          5    1    1    2  501    0 -0.46104668621E+01 -0.73644931161E+00 -0.11612250415E+03  0.11631132676E+03  0.47000000000E+01 0. -1.
         -5    1    1    2    0  503  0.46104668621E+01  0.73644931161E+00 -0.12581677378E+03  0.12599106844E+03  0.47000000000E+01 0.  1.
<mgrwt>
<rscale>  2 0.66248594E+01</rscale>
<asrwt>0</asrwt>
<pdfrwt beam="1">  1       21 0.27932107E-04 0.66248594E+01</pdfrwt>
<pdfrwt beam="2">  1       21 0.37249347E-01 0.66248594E+01</pdfrwt>
<totfact> 0.18286383E+09</totfact>
</mgrwt>
</event>
<event>
 4    1  0.3931501E+006  0.5082241E+01  0.7546771E-02  0.2552768E+00
         21   -1    0    0  503  502  0.00000000000E+00  0.00000000000E+00  0.61971383785E+02  0.61971383785E+02  0.00000000000E+00 0.  1.
         21   -1    0    0  501  503 -0.00000000000E+00 -0.00000000000E+00 -0.47407275136E+00  0.47407275136E+00  0.00000000000E+00 0.  1.
          5    1    1    2  501    0  0.10567064010E+01  0.16194274528E+01  0.19895577942E+02  0.20534439250E+02  0.47000000000E+01 0.  1.
         -5    1    1    2    0  502 -0.10567064010E+01 -0.16194274528E+01  0.41601733092E+02  0.41911017286E+02  0.47000000000E+01 0.  1.
<mgrwt>
<rscale>  2 0.50822410E+01</rscale>
<asrwt>0</asrwt>
<pdfrwt beam="1">  1       21 0.95340526E-02 0.50822410E+01</pdfrwt>
<pdfrwt beam="2">  1       21 0.72934319E-04 0.50822410E+01</pdfrwt>
<totfact> 0.36394881E+09</totfact>
</mgrwt>
</event>
<event>
 4    1  0.3931501E+006  0.6920558E+01  0.7546771E-02  0.2309078E+00
         21   -1    0    0  503  502  0.00000000000E+00  0.00000000000E+00  0.69379743394E+01  0.69379743394E+01  0.00000000000E+00 0. -1.
         21   -1    0    0  501  503 -0.00000000000E+00 -0.00000000000E+00 -0.91842081754E+01  0.91842081754E+01  0.00000000000E+00 0.  1.
          5    1    1    2  501    0 -0.43435457192E+01  0.26339570356E+01 -0.51404500358E+01  0.86208088745E+01  0.47000000000E+01 0.  1.
         -5    1    1    2    0  502  0.43435457192E+01 -0.26339570356E+01  0.28942161998E+01  0.75013736403E+01  0.47000000000E+01 0. -1.
<mgrwt>
<rscale>  2 0.69205577E+01</rscale>
<asrwt>0</asrwt>
<pdfrwt beam="1">  1       21 0.10673807E-02 0.69205577E+01</pdfrwt>
<pdfrwt beam="2">  1       21 0.14129551E-02 0.69205577E+01</pdfrwt>
<totfact> 0.19825635E+09</totfact>
</mgrwt>
</event>
<event>
 4    1  0.3931501E+006  0.9857732E+01  0.7546771E-02  0.2083176E+00
         21   -1    0    0  503  502  0.00000000000E+00  0.00000000000E+00  0.37877320723E+00  0.37877320723E+00  0.00000000000E+00 0. -1.
         21   -1    0    0  501  503 -0.00000000000E+00 -0.00000000000E+00 -0.29482195184E+03  0.29482195184E+03  0.00000000000E+00 0.  1.
          5    1    1    2  501    0 -0.21115898657E+01  0.84039316164E+01 -0.20040040399E+03  0.20064270931E+03  0.47000000000E+01 0. -1.
         -5    1    1    2    0  502  0.21115898657E+01 -0.84039316164E+01 -0.94042774643E+02  0.94558015741E+02  0.47000000000E+01 0. -1.
<mgrwt>
<rscale>  2 0.98577319E+01</rscale>
<asrwt>0</asrwt>
<pdfrwt beam="1">  1       21 0.58272911E-04 0.98577319E+01</pdfrwt>
<pdfrwt beam="2">  1       21 0.45357138E-01 0.98577319E+01</pdfrwt>
<totfact> 0.60591816E+08</totfact>
</mgrwt>
</event>
<event>
 4    1  0.3931501E+006  0.6437397E+01  0.7546771E-02  0.2361750E+00
         21   -1    0    0  501  502  0.00000000000E+00  0.00000000000E+00  0.12944964988E+01  0.12944964988E+01  0.00000000000E+00 0. -1.
         21   -1    0    0  502  503 -0.00000000000E+00 -0.00000000000E+00 -0.36501843583E+02  0.36501843583E+02  0.00000000000E+00 0.  1.
          5    1    1    2  501    0 -0.31927143417E+01 -0.30259964822E+01 -0.10976117850E+02  0.12724592042E+02  0.47000000000E+01 0. -1.
         -5    1    1    2    0  503  0.31927143417E+01  0.30259964822E+01 -0.24231229234E+02  0.25071748040E+02  0.47000000000E+01 0. -1.
<mgrwt>
<rscale>  2 0.64373970E+01</rscale>
<asrwt>0</asrwt>
<pdfrwt beam="1">  1       21 0.19915334E-03 0.64373970E+01</pdfrwt>
<pdfrwt beam="2">  1       21 0.56156674E-02 0.64373970E+01</pdfrwt>
<totfact> 0.25865533E+09</totfact>
</mgrwt>
</event>
<event>
 4    1  0.3931501E+006  0.4909357E+01  0.7546771E-02  0.2583489E+00
         21   -1    0    0  501  502  0.00000000000E+00  0.00000000000E+00  0.12408189873E+03  0.12408189873E+03  0.00000000000E+00 0. -1.
         21   -1    0    0  502  503 -0.00000000000E+00 -0.00000000000E+00 -0.24413757659E+00  0.24413757659E+00  0.00000000000E+00 0. -1.
          5    1    1    2  501    0 -0.13191867185E+01  0.52108517165E+00  0.90021736635E+02  0.90155503715E+02  0.47000000000E+01 0. -1.
         -5    1    1    2    0  503  0.13191867185E+01 -0.52108517165E+00  0.33816024521E+02  0.34170532594E+02  0.47000000000E+01 0. -1.
<mgrwt>
<rscale>  2 0.49093567E+01</rscale>
<asrwt>0</asrwt>
<pdfrwt beam="1">  1       21 0.19089473E-01 0.49093567E+01</pdfrwt>
<pdfrwt beam="2">  1       21 0.37559726E-04 0.49093567E+01</pdfrwt>
<totfact> 0.29016528E+09</totfact>
</mgrwt>
</event>
<event>
 4    1  0.3931501E+006  0.5217607E+01  0.7546771E-02  0.2529940E+00
         21   -1    0    0  501  502  0.00000000000E+00  0.00000000000E+00  0.61817162046E+01  0.61817162046E+01  0.00000000000E+00 0.  1.
         21   -1    0    0  502  503 -0.00000000000E+00 -0.00000000000E+00 -0.70357254799E+01  0.70357254799E+01  0.00000000000E+00 0.  1.
          5    1    1    2  501    0  0.69566633725E+00 -0.21562631660E+01  0.36149801801E+01  0.63475589164E+01  0.47000000000E+01 0.  1.
         -5    1    1    2    0  503 -0.69566633725E+00  0.21562631660E+01 -0.44689894555E+01  0.68698827681E+01  0.47000000000E+01 0.  1.
<mgrwt>
<rscale>  2 0.52176070E+01</rscale>
<asrwt>0</asrwt>
<pdfrwt beam="1">  1       21 0.95103326E-03 0.52176070E+01</pdfrwt>
<pdfrwt beam="2">  1       21 0.10824193E-02 0.52176070E+01</pdfrwt>
<totfact> 0.26589123E+09</totfact>
</mgrwt>
</event>
<event>
 4    1  0.3931501E+006  0.6950422E+01  0.7546771E-02  0.2306021E+00
         21   -1    0    0  503  502  0.00000000000E+00  0.00000000000E+00  0.29359174544E+02  0.29359174544E+02  0.00000000000E+00 0.  1.
         21   -1    0    0  501  503 -0.00000000000E+00 -0.00000000000E+00 -0.33536988623E+01  0.33536988623E+01  0.00000000000E+00 0.  1.
          5    1    1    2  501    0 -0.34158001141E+01  0.38145348135E+01  0.13291269739E+01  0.70763652235E+01  0.47000000000E+01 0.  1.
         -5    1    1    2    0  502  0.34158001141E+01 -0.38145348135E+01  0.24676348708E+02  0.25636508183E+02  0.47000000000E+01 0.  1.
<mgrwt>
<rscale>  2 0.69504220E+01</rscale>
<asrwt>0</asrwt>
<pdfrwt beam="1">  1       21 0.45167959E-02 0.69504220E+01</pdfrwt>
<pdfrwt beam="2">  1       21 0.51595369E-03 0.69504220E+01</pdfrwt>
<totfact> 0.10174420E+09</totfact>
</mgrwt>
</event>
<event>
 4    1  0.3931501E+006  0.8307320E+01  0.7546771E-02  0.2186422E+00
         21   -1    0    0  501  502  0.00000000000E+00  0.00000000000E+00  0.60646711918E+00  0.60646711918E+00  0.00000000000E+00 0.  1.
         21   -1    0    0  502  503 -0.00000000000E+00 -0.00000000000E+00 -0.83863947581E+03  0.83863947581E+03  0.00000000000E+00 0.  1.
          5    1    1    2  501    0 -0.64259247038E+01  0.23725628054E+01 -0.28899667455E+02  0.30069957459E+02  0.47000000000E+01 0.  1.
         -5    1    1    2    0  503  0.64259247038E+01 -0.23725628054E+01 -0.80913334123E+03  0.80917598547E+03  0.47000000000E+01 0.  1.
<mgrwt>
<rscale>  2 0.83073198E+01</rscale>
<asrwt>0</asrwt>
<pdfrwt beam="1">  1       21 0.93302458E-04 0.83073198E+01</pdfrwt>
<pdfrwt beam="2">  1       21 0.12902170E+00 0.83073198E+01</pdfrwt>
<totfact> 0.36791143E+07</totfact>
</mgrwt>
</event>
<event>
 4    1  0.3931501E+006  0.5500767E+01  0.7546771E-02  0.2485313E+00
         21   -1    0    0  501  502  0.00000000000E+00  0.00000000000E+00  0.26310363068E+01  0.26310363068E+01  0.00000000000E+00 0. -1.
         21   -1    0    0  502  503 -0.00000000000E+00 -0.00000000000E+00 -0.27459872036E+02  0.27459872036E+02  0.00000000000E+00 0. -1.
          5    1    1    2  501    0 -0.19017769756E+01  0.21334670124E+01 -0.94443176715E+00  0.55812533109E+01  0.47000000000E+01 0. -1.
         -5    1    1    2    0  503  0.19017769756E+01 -0.21334670124E+01 -0.23884403962E+02  0.24509655031E+02  0.47000000000E+01 0. -1.
<mgrwt>
<rscale>  2 0.55007670E+01</rscale>
<asrwt>0</asrwt>
<pdfrwt beam="1">  1       21 0.40477482E-03 0.55007670E+01</pdfrwt>
<pdfrwt beam="2">  1       21 0.42245957E-02 0.55007670E+01</pdfrwt>
<totfact> 0.13044360E+09</totfact>
</mgrwt>
</event>
<event>
 4    1  0.3931501E+006  0.9280232E+01  0.7546771E-02  0.2118424E+00
         21   -1    0    0  501  502  0.00000000000E+00  0.00000000000E+00  0.36506783763E+00  0.36506783763E+00  0.00000000000E+00 0.  1.
         21   -1    0    0  502  503 -0.00000000000E+00 -0.00000000000E+00 -0.23655680711E+03  0.23655680711E+03  0.00000000000E+00 0. -1.
          5    1    1    2  501    0 -0.51237192403E+01 -0.61465602035E+01 -0.12429613753E+03  0.12464209764E+03  0.47000000000E+01 0. -1.
         -5    1    1    2    0  503  0.51237192403E+01  0.61465602035E+01 -0.11189560174E+03  0.11227977730E+03  0.47000000000E+01 0.  1.
<mgrwt>
<rscale>  2 0.92802317E+01</rscale>
<asrwt>0</asrwt>
<pdfrwt beam="1">  1       21 0.56164349E-04 0.92802317E+01</pdfrwt>
<pdfrwt beam="2">  1       21 0.36393312E-01 0.92802317E+01</pdfrwt>
<totfact> 0.91816730E+08</totfact>
</mgrwt>
</event>
<event>
 4    1  0.3931501E+006  0.8672221E+01  0.7546771E-02  0.2159496E+00
         21   -1    0    0  503  502  0.00000000000E+00  0.00000000000E+00  0.65484760959E+00  0.65484760959E+00  0.00000000000E+00 0. -1.
         21   -1    0    0  501  503 -0.00000000000E+00 -0.00000000000E+00 -0.20624479047E+03  0.20624479047E+03  0.00000000000E+00 0.  1.
          5    1    1    2  501    0 -0.20223048345E+01  0.70019782192E+01 -0.17166109057E+03  0.17188000882E+03  0.47000000000E+01 0.  1.
         -5    1    1    2    0  502  0.20223048345E+01 -0.70019782192E+01 -0.33928852290E+02  0.35019629260E+02  0.47000000000E+01 0. -1.
<mgrwt>
<rscale>  2 0.86722209E+01</rscale>
<asrwt>0</asrwt>
<pdfrwt beam="1">  1       21 0.10074576E-03 0.86722209E+01</pdfrwt>
<pdfrwt beam="2">  1       21 0.31729975E-01 0.86722209E+01</pdfrwt>
<totfact> 0.50596864E+08</totfact>
</mgrwt>
</event>
<event>
 4    1  0.3931501E+006  0.6223402E+01  0.7546771E-02  0.2387224E+00
         21   -1    0    0  503  502  0.00000000000E+00  0.00000000000E+00  0.72055315322E+02  0.72055315322E+02  0.00000000000E+00 0. -1.
         21   -1    0    0  501  503 -0.00000000000E+00 -0.00000000000E+00 -0.10012670791E+01  0.10012670791E+01  0.00000000000E+00 0.  1.
          5    1    1    2  501    0  0.37962653519E+01  0.14930165227E+01  0.10667210546E+02  0.12349903230E+02  0.47000000000E+01 0.  1.
         -5    1    1    2    0  502 -0.37962653519E+01 -0.14930165227E+01  0.60386837696E+02  0.60706679171E+02  0.47000000000E+01 0. -1.
<mgrwt>
<rscale>  2 0.62234017E+01</rscale>
<asrwt>0</asrwt>
<pdfrwt beam="1">  1       21 0.11085429E-01 0.62234017E+01</pdfrwt>
<pdfrwt beam="2">  1       21 0.15404115E-03 0.62234017E+01</pdfrwt>
<totfact> 0.12685974E+09</totfact>
</mgrwt>
</event>
<event>
 4    1  0.3931501E+006  0.7361651E+01  0.7546771E-02  0.2266008E+00
         21   -1    0    0  503  502  0.00000000000E+00  0.00000000000E+00  0.70326728268E+01  0.70326728268E+01  0.00000000000E+00 0.  1.
         21   -1    0    0  501  503 -0.00000000000E+00 -0.00000000000E+00 -0.11960558748E+02  0.11960558748E+02  0.00000000000E+00 0. -1.
          5    1    1    2  501    0  0.54574695436E+01 -0.15231328727E+01 -0.81278934308E+01  0.10966155169E+02  0.47000000000E+01 0. -1.
         -5    1    1    2    0  502 -0.54574695436E+01  0.15231328727E+01  0.32000075094E+01  0.80270764060E+01  0.47000000000E+01 0.  1.
<mgrwt>
<rscale>  2 0.73616511E+01</rscale>
<asrwt>0</asrwt>
<pdfrwt beam="1">  1       21 0.10819497E-02 0.73616511E+01</pdfrwt>
<pdfrwt beam="2">  1       21 0.18400859E-02 0.73616511E+01</pdfrwt>
<totfact> 0.13916238E+09</totfact>
</mgrwt>
</event>
<event>
 4    1  0.3931501E+006  0.7349969E+01  0.7546771E-02  0.2267094E+00
         21   -1    0    0  503  502  0.00000000000E+00  0.00000000000E+00  0.11452618854E+04  0.11452618854E+04  0.00000000000E+00 0.  1.
         21   -1    0    0  501  503 -0.00000000000E+00 -0.00000000000E+00 -0.58165140364E-01  0.58165140364E-01  0.00000000000E+00 0.  1.
          5    1    1    2  501    0  0.56012766724E+01 -0.74681846699E+00  0.32362140158E+03  0.32370485569E+03  0.47000000000E+01 0.  1.
         -5    1    1    2    0  502 -0.56012766724E+01  0.74681846699E+00  0.82158231873E+03  0.82161519489E+03  0.47000000000E+01 0.  1.
<mgrwt>
<rscale>  2 0.73499686E+01</rscale>
<asrwt>0</asrwt>
<pdfrwt beam="1">  1       21 0.17617608E+00 0.73499686E+01</pdfrwt>
<pdfrwt beam="2">  1       21 0.89494004E-05 0.73499686E+01</pdfrwt>
<totfact> 0.41540070E+08</totfact>
</mgrwt>
</event>
<event>
 4    1  0.3931501E+006  0.6645179E+01  0.7546771E-02  0.2338324E+00
         21   -1    0    0  501  502  0.00000000000E+00  0.00000000000E+00  0.11066066859E+03  0.11066066859E+03  0.00000000000E+00 0. -1.
         21   -1    0    0  502  503 -0.00000000000E+00 -0.00000000000E+00 -0.17977060792E+01  0.17977060792E+01  0.00000000000E+00 0. -1.
          5    1    1    2  501    0  0.37751707627E+01 -0.27957984476E+01  0.10402888752E+03  0.10424091252E+03  0.47000000000E+01 0. -1.
         -5    1    1    2    0  503 -0.37751707627E+01  0.27957984476E+01  0.48340749914E+01  0.82174621550E+01  0.47000000000E+01 0. -1.
<mgrwt>
<rscale>  2 0.66451789E+01</rscale>
<asrwt>0</asrwt>
<pdfrwt beam="1">  1       21 0.17024713E-01 0.66451789E+01</pdfrwt>
<pdfrwt beam="2">  1       21 0.27657025E-03 0.66451789E+01</pdfrwt>
<totfact> 0.30387607E+08</totfact>
</mgrwt>
</event>
<event>
 4    1  0.3931501E+006  0.7805543E+01  0.7546771E-02  0.2226710E+00
         21   -1    0    0  503  502  0.00000000000E+00  0.00000000000E+00  0.24146960196E+01  0.24146960196E+01  0.00000000000E+00 0. -1.
         21   -1    0    0  501  503 -0.00000000000E+00 -0.00000000000E+00 -0.83226822506E+02  0.83226822506E+02  0.00000000000E+00 0. -1.
          5    1    1    2  501    0 -0.26479281761E+01 -0.56413632645E+01 -0.76151370510E+02  0.76550360767E+02  0.47000000000E+01 0. -1.
         -5    1    1    2    0  502  0.26479281761E+01  0.56413632645E+01 -0.46607559766E+01  0.90911577580E+01  0.47000000000E+01 0. -1.
<mgrwt>
<rscale>  2 0.78055431E+01</rscale>
<asrwt>0</asrwt>
<pdfrwt beam="1">  1       21 0.37149164E-03 0.78055431E+01</pdfrwt>
<pdfrwt beam="2">  1       21 0.12804128E-01 0.78055431E+01</pdfrwt>
<totfact> 0.35174102E+08</totfact>
</mgrwt>
</event>
<event>
 4    1  0.3931501E+006  0.9298497E+01  0.7546771E-02  0.2117257E+00
         21   -1    0    0  501  502  0.00000000000E+00  0.00000000000E+00  0.17338942150E+00  0.17338942150E+00  0.00000000000E+00 0.  1.
         21   -1    0    0  502  503 -0.00000000000E+00 -0.00000000000E+00 -0.68579959237E+03  0.68579959237E+03  0.00000000000E+00 0.  1.
          5    1    1    2  501    0  0.41086367694E+01 -0.68913816964E+01 -0.16364385829E+03  0.16390782285E+03  0.47000000000E+01 0.  1.
         -5    1    1    2    0  503 -0.41086367694E+01  0.68913816964E+01 -0.52198234467E+03  0.52206515894E+03  0.47000000000E+01 0.  1.
<mgrwt>
<rscale>  2 0.92984965E+01</rscale>
<asrwt>0</asrwt>
<pdfrwt beam="1">  1       21 0.26675478E-04 0.92984965E+01</pdfrwt>
<pdfrwt beam="2">  1       21 0.10550691E+00 0.92984965E+01</pdfrwt>
<totfact> 0.32628898E+08</totfact>
</mgrwt>
</event>
<event>
 4    1  0.3931501E+006  0.5010414E+01  0.7546771E-02  0.2565310E+00
         21   -1    0    0  503  502  0.00000000000E+00  0.00000000000E+00  0.87111591057E+03  0.87111591057E+03  0.00000000000E+00 0.  1.
         21   -1    0    0  501  503 -0.00000000000E+00 -0.00000000000E+00 -0.42927610572E-01  0.42927610572E-01  0.00000000000E+00 0.  1.
          5    1    1    2  501    0  0.28777583865E+00  0.17121439698E+01  0.18581906718E+03  0.18588660516E+03  0.47000000000E+01 0.  1.
         -5    1    1    2    0  502 -0.28777583865E+00 -0.17121439698E+01  0.68525391578E+03  0.68527223302E+03  0.47000000000E+01 0.  1.
<mgrwt>
<rscale>  2 0.50104143E+01</rscale>
<asrwt>0</asrwt>
<pdfrwt beam="1">  1       21 0.13400368E+00 0.50104143E+01</pdfrwt>
<pdfrwt beam="2">  1       21 0.66049455E-05 0.50104143E+01</pdfrwt>
<totfact> 0.88609040E+08</totfact>
</mgrwt>
</event>
<event>
 4    1  0.3931501E+006  0.7838862E+01  0.7546771E-02  0.2223907E+00
         21   -1    0    0  501  502  0.00000000000E+00  0.00000000000E+00  0.31224293801E+02  0.31224293801E+02  0.00000000000E+00 0.  1.
         21   -1    0    0  502  503 -0.00000000000E+00 -0.00000000000E+00 -0.36917795094E+01  0.36917795094E+01  0.00000000000E+00 0. -1.
          5    1    1    2  501    0  0.58501976198E+01 -0.22656016599E+01  0.25695833621E+02  0.26864914453E+02  0.47000000000E+01 0.  1.
         -5    1    1    2    0  503 -0.58501976198E+01  0.22656016599E+01  0.18366806711E+01  0.80511588582E+01  0.47000000000E+01 0. -1.
<mgrwt>
<rscale>  2 0.78388624E+01</rscale>
<asrwt>0</asrwt>
<pdfrwt beam="1">  1       21 0.48037373E-02 0.78388624E+01</pdfrwt>
<pdfrwt beam="2">  1       21 0.56796610E-03 0.78388624E+01</pdfrwt>
<totfact> 0.88194999E+08</totfact>
</mgrwt>
</event>
<event>
 4    1  0.3931501E+006  0.4884210E+01  0.7546771E-02  0.2588114E+00
         21   -1    0    0  501  502  0.00000000000E+00  0.00000000000E+00  0.10060072696E+02  0.10060072696E+02  0.00000000000E+00 0. -1.
         21   -1    0    0  502  503 -0.00000000000E+00 -0.00000000000E+00 -0.24940682752E+01  0.24940682752E+01  0.00000000000E+00 0.  1.
          5    1    1    2  501    0 -0.27839708895E+00 -0.12992316548E+01  0.23903719982E+01  0.54377740043E+01  0.47000000000E+01 0.  1.
         -5    1    1    2    0  503  0.27839708895E+00  0.12992316548E+01  0.51756324225E+01  0.71163669667E+01  0.47000000000E+01 0. -1.
<mgrwt>
<rscale>  2 0.48842101E+01</rscale>
<asrwt>0</asrwt>
<pdfrwt beam="1">  1       21 0.15477035E-02 0.48842101E+01</pdfrwt>
<pdfrwt beam="2">  1       21 0.38370282E-03 0.48842101E+01</pdfrwt>
<totfact> 0.52588883E+09</totfact>
</mgrwt>
</event>
<event>
 4    1  0.3931501E+006  0.6333890E+01  0.7546771E-02  0.2373893E+00
         21   -1    0    0  503  502  0.00000000000E+00  0.00000000000E+00  0.13176960707E+03  0.13176960707E+03  0.00000000000E+00 0. -1.
         21   -1    0    0  501  503 -0.00000000000E+00 -0.00000000000E+00 -0.48746107030E+01  0.48746107030E+01  0.00000000000E+00 0. -1.
          5    1    1    2  501    0  0.28717038036E+01  0.31275349511E+01 -0.27065926693E+01  0.68879461005E+01  0.47000000000E+01 0. -1.
         -5    1    1    2    0  502 -0.28717038036E+01 -0.31275349511E+01  0.12960158904E+03  0.12975627167E+03  0.47000000000E+01 0. -1.
<mgrwt>
<rscale>  2 0.63338896E+01</rscale>
<asrwt>0</asrwt>
<pdfrwt beam="1">  1       21 0.20272245E-01 0.63338896E+01</pdfrwt>
<pdfrwt beam="2">  1       21 0.74994021E-03 0.63338896E+01</pdfrwt>
<totfact> 0.55467939E+07</totfact>
</mgrwt>
</event>
<event>
 4    1  0.3931501E+006  0.8447126E+01  0.7546771E-02  0.2175886E+00
         21   -1    0    0  503  502  0.00000000000E+00  0.00000000000E+00  0.69147059370E+01  0.69147059370E+01  0.00000000000E+00 0.  1.
         21   -1    0    0  501  503 -0.00000000000E+00 -0.00000000000E+00 -0.14345061738E+02  0.14345061738E+02  0.00000000000E+00 0.  1.
          5    1    1    2  501    0 -0.50082507084E+01  0.49174549099E+01 -0.93464827841E+01  0.12598042641E+02  0.47000000000E+01 0.  1.
         -5    1    1    2    0  502  0.50082507084E+01 -0.49174549099E+01  0.19161269832E+01  0.86617250340E+01  0.47000000000E+01 0.  1.
<mgrwt>
<rscale>  2 0.84471260E+01</rscale>
<asrwt>0</asrwt>
<pdfrwt beam="1">  1       21 0.10638009E-02 0.84471260E+01</pdfrwt>
<pdfrwt beam="2">  1       21 0.22069326E-02 0.84471260E+01</pdfrwt>
<totfact> 0.12029855E+09</totfact>
</mgrwt>
</event>
<event>
 4    1  0.3931501E+006  0.9582236E+01  0.7546771E-02  0.2099573E+00
         21   -1    0    0  503  502  0.00000000000E+00  0.00000000000E+00  0.91503720382E+03  0.91503720382E+03  0.00000000000E+00 0. -1.
         21   -1    0    0  501  503 -0.00000000000E+00 -0.00000000000E+00 -0.22149261872E+00  0.22149261872E+00  0.00000000000E+00 0.  1.
          5    1    1    2  501    0 -0.80284848836E+01 -0.22962326378E+01  0.11895983157E+03  0.11934513304E+03  0.47000000000E+01 0.  1.
         -5    1    1    2    0  502  0.80284848836E+01  0.22962326378E+01  0.79585587963E+03  0.79591356340E+03  0.47000000000E+01 0. -1.
<mgrwt>
<rscale>  2 0.95822364E+01</rscale>
<asrwt>0</asrwt>
<pdfrwt beam="1">  1       21 0.14077193E+00 0.95822364E+01</pdfrwt>
<pdfrwt beam="2">  1       21 0.34076520E-04 0.95822364E+01</pdfrwt>
<totfact> 0.12723733E+08</totfact>
</mgrwt>
</event>
<event>
 4    1  0.3931501E+006  0.2385643E+02  0.7546771E-02  0.1677992E+00
         21   -1    0    0  503  502  0.00000000000E+00  0.00000000000E+00  0.95004764375E+01  0.95004764375E+01  0.00000000000E+00 0. -1.
         21   -1    0    0  501  503 -0.00000000000E+00 -0.00000000000E+00 -0.64166195559E+02  0.64166195559E+02  0.00000000000E+00 0.  1.
          5    1    1    2  501    0 -0.19210096448E+02 -0.13342084185E+02 -0.36824421462E+02  0.43876725402E+02  0.47000000000E+01 0.  1.
         -5    1    1    2    0  502  0.19210096448E+02  0.13342084185E+02 -0.17841297659E+02  0.29789946595E+02  0.47000000000E+01 0. -1.
<mgrwt>
<rscale>  2 0.23856425E+02</rscale>
<asrwt>0</asrwt>
<pdfrwt beam="1">  1       21 0.14616118E-02 0.23856425E+02</pdfrwt>
<pdfrwt beam="2">  1       21 0.98717224E-02 0.23856425E+02</pdfrwt>
<totfact> 0.11617791E+08</totfact>
</mgrwt>
</event>
<event>
 4    1  0.3931501E+006  0.6464992E+01  0.7546771E-02  0.2358567E+00
         21   -1    0    0  501  502  0.00000000000E+00  0.00000000000E+00  0.10799663426E+02  0.10799663426E+02  0.00000000000E+00 0.  1.
         21   -1    0    0  502  503 -0.00000000000E+00 -0.00000000000E+00 -0.72093927742E+01  0.72093927742E+01  0.00000000000E+00 0. -1.
          5    1    1    2  501    0  0.51891764463E+00 -0.44087231927E+01  0.79233902973E+01  0.10226251978E+02  0.47000000000E+01 0.  1.
         -5    1    1    2    0  503 -0.51891764463E+00  0.44087231927E+01 -0.43331196451E+01  0.77828042228E+01  0.47000000000E+01 0. -1.
<mgrwt>
<rscale>  2 0.64649915E+01</rscale>
<asrwt>0</asrwt>
<pdfrwt beam="1">  1       21 0.16614867E-02 0.64649915E+01</pdfrwt>
<pdfrwt beam="2">  1       21 0.11091373E-02 0.64649915E+01</pdfrwt>
<totfact> 0.14102408E+09</totfact>
</mgrwt>
</event>
<event>
 4    1  0.3931501E+006  0.7287679E+01  0.7546771E-02  0.2272933E+00
         21   -1    0    0  501  502  0.00000000000E+00  0.00000000000E+00  0.25266600481E+03  0.25266600481E+03  0.00000000000E+00 0.  1.
         21   -1    0    0  502  503 -0.00000000000E+00 -0.00000000000E+00 -0.34093958638E+00  0.34093958638E+00  0.00000000000E+00 0. -1.
          5    1    1    2  501    0 -0.55667195448E+01 -0.17860775449E+00  0.20449974606E+03  0.20462955897E+03  0.47000000000E+01 0.  1.
         -5    1    1    2    0  503  0.55667195448E+01  0.17860775449E+00  0.47825319165E+02  0.48377385424E+02  0.47000000000E+01 0. -1.
<mgrwt>
<rscale>  2 0.72876791E+01</rscale>
<asrwt>0</asrwt>
<pdfrwt beam="1">  1       21 0.38871543E-01 0.72876791E+01</pdfrwt>
<pdfrwt beam="2">  1       21 0.52452446E-04 0.72876791E+01</pdfrwt>
<totfact> 0.77607164E+08</totfact>
</mgrwt>
</event>
<event>
 4    1  0.3931501E+006  0.5546664E+01  0.7546771E-02  0.2478446E+00
         21   -1    0    0  503  502  0.00000000000E+00  0.00000000000E+00  0.14063843391E+01  0.14063843391E+01  0.00000000000E+00 0. -1.
         21   -1    0    0  501  503 -0.00000000000E+00 -0.00000000000E+00 -0.90551893635E+02  0.90551893635E+02  0.00000000000E+00 0. -1.
          5    1    1    2  501    0  0.28815051617E+01  0.61025146159E+00 -0.84614734313E+02  0.84796336842E+02  0.47000000000E+01 0. -1.
         -5    1    1    2    0  502 -0.28815051617E+01 -0.61025146159E+00 -0.45307749825E+01  0.71619411325E+01  0.47000000000E+01 0. -1.
<mgrwt>
<rscale>  2 0.55466638E+01</rscale>
<asrwt>0</asrwt>
<pdfrwt beam="1">  1       21 0.21636682E-03 0.55466638E+01</pdfrwt>
<pdfrwt beam="2">  1       21 0.13931061E-01 0.55466638E+01</pdfrwt>
<totfact> 0.51262529E+08</totfact>
</mgrwt>
</event>
<event>
 4    1  0.3931501E+006  0.5267403E+01  0.7546771E-02  0.2521796E+00
         21   -1    0    0  503  502  0.00000000000E+00  0.00000000000E+00  0.46656227674E+03  0.46656227674E+03  0.00000000000E+00 0. -1.
         21   -1    0    0  501  503 -0.00000000000E+00 -0.00000000000E+00 -0.26565241305E+00  0.26565241305E+00  0.00000000000E+00 0.  1.
          5    1    1    2  501    0 -0.23743938143E+01  0.13335407778E+00  0.27512922038E+02  0.28012611595E+02  0.47000000000E+01 0.  1.
         -5    1    1    2    0  502  0.23743938143E+01 -0.13335407778E+00  0.43878370229E+03  0.43881531756E+03  0.47000000000E+01 0. -1.
<mgrwt>
<rscale>  2 0.52674025E+01</rscale>
<asrwt>0</asrwt>
<pdfrwt beam="1">  1       21 0.71778156E-01 0.52674025E+01</pdfrwt>
<pdfrwt beam="2">  1       21 0.40869975E-04 0.52674025E+01</pdfrwt>
<totfact> 0.28417375E+08</totfact>
</mgrwt>
</event>
<event>
 4    1  0.3931501E+006  0.7330337E+01  0.7546771E-02  0.2268926E+00
         21   -1    0    0  501  502  0.00000000000E+00  0.00000000000E+00  0.19125822124E+02  0.19125822124E+02  0.00000000000E+00 0. -1.
         21   -1    0    0  502  503 -0.00000000000E+00 -0.00000000000E+00 -0.86123977074E+01  0.86123977074E+01  0.00000000000E+00 0.  1.
          5    1    1    2  501    0 -0.84509080591E+00 -0.55614443706E+01  0.16641090357E+02  0.18184051535E+02  0.47000000000E+01 0. -1.
         -5    1    1    2    0  503  0.84509080591E+00  0.55614443706E+01 -0.61276659404E+01  0.95541682963E+01  0.47000000000E+01 0.  1.
<mgrwt>
<rscale>  2 0.73303371E+01</rscale>
<asrwt>0</asrwt>
<pdfrwt beam="1">  1       21 0.29424342E-02 0.73303371E+01</pdfrwt>
<pdfrwt beam="2">  1       21 0.13249843E-02 0.73303371E+01</pdfrwt>
<totfact> 0.52244564E+08</totfact>
</mgrwt>
</event>
<event>
 4    1  0.3931501E+006  0.8548167E+01  0.7546771E-02  0.2168443E+00
         21   -1    0    0  501  502  0.00000000000E+00  0.00000000000E+00  0.10873662767E+02  0.10873662767E+02  0.00000000000E+00 0. -1.
         21   -1    0    0  502  503 -0.00000000000E+00 -0.00000000000E+00 -0.16369712565E+02  0.16369712565E+02  0.00000000000E+00 0.  1.
          5    1    1    2  501    0 -0.34491725384E+01 -0.62517493313E+01  0.77104239191E+01  0.11511811235E+02  0.47000000000E+01 0. -1.
         -5    1    1    2    0  503  0.34491725384E+01  0.62517493313E+01 -0.13206473717E+02  0.15731564097E+02  0.47000000000E+01 0.  1.
<mgrwt>
<rscale>  2 0.85481671E+01</rscale>
<asrwt>0</asrwt>
<pdfrwt beam="1">  1       21 0.16728712E-02 0.85481671E+01</pdfrwt>
<pdfrwt beam="2">  1       21 0.25184173E-02 0.85481671E+01</pdfrwt>
<totfact> 0.51747439E+08</totfact>
</mgrwt>
</event>
<event>
 4    1  0.3931501E+006  0.6067812E+01  0.7546771E-02  0.2406680E+00
         21   -1    0    0  501  502  0.00000000000E+00  0.00000000000E+00  0.48648046795E+00  0.48648046795E+00  0.00000000000E+00 0.  1.
         21   -1    0    0  502  503 -0.00000000000E+00 -0.00000000000E+00 -0.55030663175E+03  0.55030663175E+03  0.00000000000E+00 0.  1.
          5    1    1    2  501    0 -0.35695692867E+01  0.14094393193E+01 -0.19151166721E+02  0.20089438291E+02  0.47000000000E+01 0.  1.
         -5    1    1    2    0  503  0.35695692867E+01 -0.14094393193E+01 -0.53066898456E+03  0.53070367392E+03  0.47000000000E+01 0.  1.
<mgrwt>
<rscale>  2 0.60678121E+01</rscale>
<asrwt>0</asrwt>
<pdfrwt beam="1">  1       21 0.74842847E-04 0.60678121E+01</pdfrwt>
<pdfrwt beam="2">  1       21 0.84662901E-01 0.60678121E+01</pdfrwt>
<totfact> 0.10125438E+08</totfact>
</mgrwt>
</event>
<event>
 4    1  0.3931501E+006  0.5238822E+01  0.7546771E-02  0.2526454E+00
         21   -1    0    0  503  502  0.00000000000E+00  0.00000000000E+00  0.40197288117E+02  0.40197288117E+02  0.00000000000E+00 0. -1.
         21   -1    0    0  501  503 -0.00000000000E+00 -0.00000000000E+00 -0.10731504062E+01  0.10731504062E+01  0.00000000000E+00 0. -1.
          5    1    1    2  501    0  0.17639799943E+01 -0.14978748972E+01  0.71161712042E+01  0.88365800645E+01  0.47000000000E+01 0. -1.
         -5    1    1    2    0  502 -0.17639799943E+01  0.14978748972E+01  0.32007966507E+02  0.32433858459E+02  0.47000000000E+01 0. -1.
<mgrwt>
<rscale>  2 0.52388219E+01</rscale>
<asrwt>0</asrwt>
<pdfrwt beam="1">  1       21 0.61841970E-02 0.52388219E+01</pdfrwt>
<pdfrwt beam="2">  1       21 0.16510009E-03 0.52388219E+01</pdfrwt>
<totfact> 0.24083022E+09</totfact>
</mgrwt>
</event>
<event>
 4    1  0.3931501E+006  0.6653137E+01  0.7546771E-02  0.2337451E+00
         21   -1    0    0  503  502  0.00000000000E+00  0.00000000000E+00  0.30174381080E+03  0.30174381080E+03  0.00000000000E+00 0. -1.
         21   -1    0    0  501  503 -0.00000000000E+00 -0.00000000000E+00 -0.34097670810E+00  0.34097670810E+00  0.00000000000E+00 0.  1.
          5    1    1    2  501    0 -0.41574711385E+01 -0.22112584282E+01  0.36688843398E+02  0.37287202362E+02  0.47000000000E+01 0.  1.
         -5    1    1    2    0  502  0.41574711385E+01  0.22112584282E+01  0.26471399070E+03  0.26479758515E+03  0.47000000000E+01 0. -1.
<mgrwt>
<rscale>  2 0.66531369E+01</rscale>
<asrwt>0</asrwt>
<pdfrwt beam="1">  1       21 0.46421911E-01 0.66531369E+01</pdfrwt>
<pdfrwt beam="2">  1       21 0.52458196E-04 0.66531369E+01</pdfrwt>
<totfact> 0.53344235E+08</totfact>
</mgrwt>
</event>
<event>
 4    1  0.3931501E+006  0.9123430E+01  0.7546771E-02  0.2128599E+00
         21   -1    0    0  503  502  0.00000000000E+00  0.00000000000E+00  0.73259408204E+00  0.73259408204E+00  0.00000000000E+00 0. -1.
         21   -1    0    0  501  503 -0.00000000000E+00 -0.00000000000E+00 -0.28130288195E+03  0.28130288195E+03  0.00000000000E+00 0. -1.
          5    1    1    2  501    0  0.76860504212E+01  0.14393083097E+01 -0.24916101802E+03  0.24932799659E+03  0.47000000000E+01 0. -1.
         -5    1    1    2    0  502 -0.76860504212E+01 -0.14393083097E+01 -0.31409269840E+02  0.32707479441E+02  0.47000000000E+01 0. -1.
<mgrwt>
<rscale>  2 0.91234302E+01</rscale>
<asrwt>0</asrwt>
<pdfrwt beam="1">  1       21 0.11270676E-03 0.91234302E+01</pdfrwt>
<pdfrwt beam="2">  1       21 0.43277375E-01 0.91234302E+01</pdfrwt>
<totfact> 0.25674948E+08</totfact>
</mgrwt>
</event>
<event>
 4    1  0.3931501E+006  0.5624380E+01  0.7546771E-02  0.2467035E+00
         21   -1    0    0  503  502  0.00000000000E+00  0.00000000000E+00  0.15680588411E+01  0.15680588411E+01  0.00000000000E+00 0.  1.
         21   -1    0    0  501  503 -0.00000000000E+00 -0.00000000000E+00 -0.26025651432E+02  0.26025651432E+02  0.00000000000E+00 0.  1.
          5    1    1    2  501    0 -0.15485452504E+01 -0.26731360981E+01 -0.18771048493E+02  0.19595558438E+02  0.47000000000E+01 0.  1.
         -5    1    1    2    0  502  0.15485452504E+01  0.26731360981E+01 -0.56865440983E+01  0.79981518349E+01  0.47000000000E+01 0.  1.
<mgrwt>
<rscale>  2 0.56243799E+01</rscale>
<asrwt>0</asrwt>
<pdfrwt beam="1">  1       21 0.24123981E-03 0.56243799E+01</pdfrwt>
<pdfrwt beam="2">  1       21 0.40039466E-02 0.56243799E+01</pdfrwt>
<totfact> 0.29214539E+09</totfact>
</mgrwt>
</event>
<event>
 4    1  0.3931501E+006  0.5969726E+01  0.7546771E-02  0.2419380E+00
         21   -1    0    0  503  502  0.00000000000E+00  0.00000000000E+00  0.34715632561E+02  0.34715632561E+02  0.00000000000E+00 0. -1.
         21   -1    0    0  501  503 -0.00000000000E+00 -0.00000000000E+00 -0.31106780394E+01  0.31106780394E+01  0.00000000000E+00 0.  1.
          5    1    1    2  501    0 -0.24845213974E+01  0.27156553402E+01  0.31283432725E+02  0.31847932328E+02  0.47000000000E+01 0. -1.
         -5    1    1    2    0  502  0.24845213974E+01 -0.27156553402E+01  0.32152179637E+00  0.59783782723E+01  0.47000000000E+01 0.  1.
<mgrwt>
<rscale>  2 0.59697262E+01</rscale>
<asrwt>0</asrwt>
<pdfrwt beam="1">  1       21 0.53408663E-02 0.59697262E+01</pdfrwt>
<pdfrwt beam="2">  1       21 0.47856588E-03 0.59697262E+01</pdfrwt>
<totfact> 0.78397577E+08</totfact>
</mgrwt>
</event>
<event>
 4    1  0.3931501E+006  0.4882124E+01  0.7546771E-02  0.2588499E+00
         21   -1    0    0  503  502  0.00000000000E+00  0.00000000000E+00  0.58130810656E+01  0.58130810656E+01  0.00000000000E+00 0.  1.
         21   -1    0    0  501  503 -0.00000000000E+00 -0.00000000000E+00 -0.42770021180E+01  0.42770021180E+01  0.00000000000E+00 0.  1.
          5    1    1    2  501    0 -0.31086378879E+00 -0.12839385786E+01  0.17936134462E+01  0.52011713838E+01  0.47000000000E+01 0.  1.
         -5    1    1    2    0  502  0.31086378879E+00  0.12839385786E+01 -0.25753449863E+00  0.48889117999E+01  0.47000000000E+01 0.  1.
<mgrwt>
<rscale>  2 0.48821240E+01</rscale>
<asrwt>0</asrwt>
<pdfrwt beam="1">  1       21 0.89432017E-03 0.48821240E+01</pdfrwt>
<pdfrwt beam="2">  1       21 0.65800032E-03 0.48821240E+01</pdfrwt>
<totfact> 0.53992923E+09</totfact>
</mgrwt>
</event>
<event>
 4    1  0.3931501E+006  0.8593143E+01  0.7546771E-02  0.2165175E+00
         21   -1    0    0  501  502  0.00000000000E+00  0.00000000000E+00  0.12099968212E+03  0.12099968212E+03  0.00000000000E+00 0.  1.
         21   -1    0    0  502  503 -0.00000000000E+00 -0.00000000000E+00 -0.71079097340E+00  0.71079097340E+00  0.00000000000E+00 0. -1.
          5    1    1    2  501    0 -0.69995258531E+01 -0.16609483684E+01  0.83030021726E+02  0.83473508489E+02  0.47000000000E+01 0.  1.
         -5    1    1    2    0  503  0.69995258531E+01  0.16609483684E+01  0.37258869419E+02  0.38236964603E+02  0.47000000000E+01 0. -1.
<mgrwt>
<rscale>  2 0.85931433E+01</rscale>
<asrwt>0</asrwt>
<pdfrwt beam="1">  1       21 0.18615319E-01 0.85931433E+01</pdfrwt>
<pdfrwt beam="2">  1       21 0.10935255E-03 0.85931433E+01</pdfrwt>
<totfact> 0.11075705E+09</totfact>
</mgrwt>
</event>
<event>
 4    1  0.3931501E+006  0.1265206E+02  0.7546771E-02  0.1949507E+00
         21   -1    0    0  501  502  0.00000000000E+00  0.00000000000E+00  0.11900397892E+01  0.11900397892E+01  0.00000000000E+00 0.  1.
         21   -1    0    0  502  503 -0.00000000000E+00 -0.00000000000E+00 -0.16284285188E+03  0.16284285188E+03  0.00000000000E+00 0. -1.
          5    1    1    2  501    0 -0.11455907272E+02  0.25974580911E+01 -0.46616914489E+02  0.48303326143E+02  0.47000000000E+01 0.  1.
         -5    1    1    2    0  503  0.11455907272E+02 -0.25974580911E+01 -0.11503589760E+03  0.11572956552E+03  0.47000000000E+01 0. -1.
<mgrwt>
<rscale>  2 0.12652059E+02</rscale>
<asrwt>0</asrwt>
<pdfrwt beam="1">  1       21 0.18308295E-03 0.12652059E+02</pdfrwt>
<pdfrwt beam="2">  1       21 0.25052759E-01 0.12652059E+02</pdfrwt>
<totfact> 0.40082898E+08</totfact>
</mgrwt>
</event>
<event>
 4    1  0.3931501E+006  0.5298687E+01  0.7546771E-02  0.2516747E+00
         21   -1    0    0  501  502  0.00000000000E+00  0.00000000000E+00  0.88641241094E+02  0.88641241094E+02  0.00000000000E+00 0. -1.
         21   -1    0    0  502  503 -0.00000000000E+00 -0.00000000000E+00 -0.15483264619E+01  0.15483264619E+01  0.00000000000E+00 0. -1.
          5    1    1    2  501    0 -0.29562370243E+00 -0.24287219182E+01  0.83765134170E+02  0.83932554984E+02  0.47000000000E+01 0. -1.
         -5    1    1    2    0  503  0.29562370243E+00  0.24287219182E+01  0.33277804623E+01  0.62570125727E+01  0.47000000000E+01 0. -1.
<mgrwt>
<rscale>  2 0.52986870E+01</rscale>
<asrwt>0</asrwt>
<pdfrwt beam="1">  1       21 0.13637110E-01 0.52986870E+01</pdfrwt>
<pdfrwt beam="2">  1       21 0.23820414E-03 0.52986870E+01</pdfrwt>
<totfact> 0.44829652E+08</totfact>
</mgrwt>
</event>
<event>
 4    1  0.3931501E+006  0.5714021E+01  0.7546771E-02  0.2454200E+00
         21   -1    0    0  501  502  0.00000000000E+00  0.00000000000E+00  0.90803990128E+01  0.90803990128E+01  0.00000000000E+00 0. -1.
         21   -1    0    0  502  503 -0.00000000000E+00 -0.00000000000E+00 -0.35967720201E+01  0.35967720201E+01  0.00000000000E+00 0.  1.
          5    1    1    2  501    0 -0.92160858901E+00  0.31161947152E+01  0.26303845519E+01  0.62903859012E+01  0.47000000000E+01 0.  1.
         -5    1    1    2    0  503  0.92160858901E+00 -0.31161947152E+01  0.28532424407E+01  0.63867851318E+01  0.47000000000E+01 0. -1.
<mgrwt>
<rscale>  2 0.57140206E+01</rscale>
<asrwt>0</asrwt>
<pdfrwt beam="1">  1       21 0.13969845E-02 0.57140206E+01</pdfrwt>
<pdfrwt beam="2">  1       21 0.55334954E-03 0.57140206E+01</pdfrwt>
<totfact> 0.43060106E+09</totfact>
</mgrwt>
</event>
<event>
 4    1  0.3931501E+006  0.5360562E+01  0.7546771E-02  0.2506908E+00
         21   -1    0    0  501  502  0.00000000000E+00  0.00000000000E+00  0.52684625006E+01  0.52684625006E+01  0.00000000000E+00 0. -1.
         21   -1    0    0  502  503 -0.00000000000E+00 -0.00000000000E+00 -0.10135139418E+02  0.10135139418E+02  0.00000000000E+00 0.  1.
          5    1    1    2  501    0  0.25547759311E+01  0.34458966473E+00  0.28007450195E+01  0.60481232428E+01  0.47000000000E+01 0. -1.
         -5    1    1    2    0  503 -0.25547759311E+01 -0.34458966473E+00 -0.76674219371E+01  0.93554786760E+01  0.47000000000E+01 0.  1.
<mgrwt>
<rscale>  2 0.53605617E+01</rscale>
<asrwt>0</asrwt>
<pdfrwt beam="1">  1       21 0.81053271E-03 0.53605617E+01</pdfrwt>
<pdfrwt beam="2">  1       21 0.15592522E-02 0.53605617E+01</pdfrwt>
<totfact> 0.20411562E+09</totfact>
</mgrwt>
</event>
<event>
 4    1  0.3931501E+006  0.7019841E+01  0.7546771E-02  0.2298998E+00
         21   -1    0    0  503  502  0.00000000000E+00  0.00000000000E+00  0.69616818675E+02  0.69616818675E+02  0.00000000000E+00 0. -1.
         21   -1    0    0  501  503 -0.00000000000E+00 -0.00000000000E+00 -0.77281873687E+00  0.77281873687E+00  0.00000000000E+00 0.  1.
          5    1    1    2  501    0 -0.76664664199E+00  0.51575601989E+01  0.24217388293E+02  0.25214283055E+02  0.47000000000E+01 0.  1.
         -5    1    1    2    0  502  0.76664664199E+00 -0.51575601989E+01  0.44626611646E+02  0.45175354357E+02  0.47000000000E+01 0. -1.
<mgrwt>
<rscale>  2 0.70198415E+01</rscale>
<asrwt>0</asrwt>
<pdfrwt beam="1">  1       21 0.10710275E-01 0.70198415E+01</pdfrwt>
<pdfrwt beam="2">  1       21 0.11889525E-03 0.70198415E+01</pdfrwt>
<totfact> 0.20860619E+09</totfact>
</mgrwt>
</event>
<event>
 4    1  0.3931501E+006  0.7313421E+01  0.7546771E-02  0.2270510E+00
         21   -1    0    0  501  502  0.00000000000E+00  0.00000000000E+00  0.86414225692E+00  0.86414225692E+00  0.00000000000E+00 0. -1.
         21   -1    0    0  502  503 -0.00000000000E+00 -0.00000000000E+00 -0.80865779046E+02  0.80865779046E+02  0.00000000000E+00 0. -1.
          5    1    1    2  501    0 -0.46062609737E+01 -0.31903730523E+01 -0.20207855434E+02  0.21490545401E+02  0.47000000000E+01 0. -1.
         -5    1    1    2    0  503  0.46062609737E+01  0.31903730523E+01 -0.59793781355E+02  0.60239375903E+02  0.47000000000E+01 0. -1.
<mgrwt>
<rscale>  2 0.73134206E+01</rscale>
<asrwt>0</asrwt>
<pdfrwt beam="1">  1       21 0.13294498E-03 0.73134206E+01</pdfrwt>
<pdfrwt beam="2">  1       21 0.12440887E-01 0.73134206E+01</pdfrwt>
<totfact> 0.14592723E+09</totfact>
</mgrwt>
</event>
<event>
 4    1  0.3931501E+006  0.5538392E+01  0.7546771E-02  0.2479677E+00
         21   -1    0    0  501  502  0.00000000000E+00  0.00000000000E+00  0.30380406544E+00  0.30380406544E+00  0.00000000000E+00 0. -1.
         21   -1    0    0  502  503 -0.00000000000E+00 -0.00000000000E+00 -0.15451008437E+03  0.15451008437E+03  0.00000000000E+00 0. -1.
          5    1    1    2  501    0 -0.26947981813E+01  0.11497171715E+01 -0.31535292309E+02  0.32017939469E+02  0.47000000000E+01 0. -1.
         -5    1    1    2    0  503  0.26947981813E+01 -0.11497171715E+01 -0.12267098800E+03  0.12279594897E+03  0.47000000000E+01 0. -1.
<mgrwt>
<rscale>  2 0.55383921E+01</rscale>
<asrwt>0</asrwt>
<pdfrwt beam="1">  1       21 0.46739065E-04 0.55383921E+01</pdfrwt>
<pdfrwt beam="2">  1       21 0.23770793E-01 0.55383921E+01</pdfrwt>
<totfact> 0.17032091E+09</totfact>
</mgrwt>
</event>
<event>
 4    1  0.3931501E+006  0.6188106E+01  0.7546771E-02  0.2391566E+00
         21   -1    0    0  501  502  0.00000000000E+00  0.00000000000E+00  0.44702896662E+02  0.44702896662E+02  0.00000000000E+00 0. -1.
         21   -1    0    0  502  503 -0.00000000000E+00 -0.00000000000E+00 -0.17096139525E+01  0.17096139525E+01  0.00000000000E+00 0.  1.
          5    1    1    2  501    0  0.29960161257E+01 -0.26882231487E+01  0.37888689601E+02  0.38390694914E+02  0.47000000000E+01 0. -1.
         -5    1    1    2    0  503 -0.29960161257E+01  0.26882231487E+01  0.51045931083E+01  0.80218157000E+01  0.47000000000E+01 0.  1.
<mgrwt>
<rscale>  2 0.61881060E+01</rscale>
<asrwt>0</asrwt>
<pdfrwt beam="1">  1       21 0.68773678E-02 0.61881060E+01</pdfrwt>
<pdfrwt beam="2">  1       21 0.26301757E-03 0.61881060E+01</pdfrwt>
<totfact> 0.12620948E+09</totfact>
</mgrwt>
</event>
<event>
 4    1  0.3931501E+006  0.7739108E+01  0.7546771E-02  0.2232359E+00
         21   -1    0    0  501  502  0.00000000000E+00  0.00000000000E+00  0.19484311979E+00  0.19484311979E+00  0.00000000000E+00 0. -1.
         21   -1    0    0  502  503 -0.00000000000E+00 -0.00000000000E+00 -0.62436522201E+03  0.62436522201E+03  0.00000000000E+00 0.  1.
          5    1    1    2  501    0  0.35881424865E+01 -0.49928976240E+01 -0.89583085142E+02  0.89916755595E+02  0.47000000000E+01 0. -1.
         -5    1    1    2    0  503 -0.35881424865E+01  0.49928976240E+01 -0.53458729375E+03  0.53464330953E+03  0.47000000000E+01 0.  1.
<mgrwt>
<rscale>  2 0.77391080E+01</rscale>
<asrwt>0</asrwt>
<pdfrwt beam="1">  1       21 0.29976402E-04 0.77391080E+01</pdfrwt>
<pdfrwt beam="2">  1       21 0.96054464E-01 0.77391080E+01</pdfrwt>
<totfact> 0.30866960E+08</totfact>
</mgrwt>
</event>
<event>
 4    1  0.3931501E+006  0.8729735E+01  0.7546771E-02  0.2155416E+00
         21   -1    0    0  501  502  0.00000000000E+00  0.00000000000E+00  0.36690115273E+02  0.36690115273E+02  0.00000000000E+00 0. -1.
         21   -1    0    0  502  503 -0.00000000000E+00 -0.00000000000E+00 -0.21458773764E+01  0.21458773764E+01  0.00000000000E+00 0. -1.
          5    1    1    2  501    0  0.51501303586E+01  0.52530398400E+01  0.20749008207E+02  0.22510655518E+02  0.47000000000E+01 0. -1.
         -5    1    1    2    0  503 -0.51501303586E+01 -0.52530398400E+01  0.13795229690E+02  0.16325337132E+02  0.47000000000E+01 0. -1.
<mgrwt>
<rscale>  2 0.87297348E+01</rscale>
<asrwt>0</asrwt>
<pdfrwt beam="1">  1       21 0.56446327E-02 0.87297348E+01</pdfrwt>
<pdfrwt beam="2">  1       21 0.33013501E-03 0.87297348E+01</pdfrwt>
<totfact> 0.15915082E+09</totfact>
</mgrwt>
</event>
<event>
 4    1  0.3931501E+006  0.5409670E+01  0.7546771E-02  0.2499236E+00
         21   -1    0    0  503  502  0.00000000000E+00  0.00000000000E+00  0.78136761715E+02  0.78136761715E+02  0.00000000000E+00 0. -1.
         21   -1    0    0  501  503 -0.00000000000E+00 -0.00000000000E+00 -0.19061348322E+01  0.19061348322E+01  0.00000000000E+00 0.  1.
          5    1    1    2  501    0  0.26781100525E+01  0.47491452233E-01  0.22405195489E+01  0.58552930533E+01  0.47000000000E+01 0.  1.
         -5    1    1    2    0  502 -0.26781100525E+01 -0.47491452233E-01  0.73990107333E+02  0.74187603493E+02  0.47000000000E+01 0. -1.
<mgrwt>
<rscale>  2 0.54096699E+01</rscale>
<asrwt>0</asrwt>
<pdfrwt beam="1">  1       21 0.12021038E-01 0.54096699E+01</pdfrwt>
<pdfrwt beam="2">  1       21 0.29325157E-03 0.54096699E+01</pdfrwt>
<totfact> 0.41772364E+08</totfact>
</mgrwt>
</event>
<event>
 4    1  0.3931501E+006  0.6109064E+01  0.7546771E-02  0.2401441E+00
         21   -1    0    0  501  502  0.00000000000E+00  0.00000000000E+00  0.60392876999E+01  0.60392876999E+01  0.00000000000E+00 0.  1.
         21   -1    0    0  502  503 -0.00000000000E+00 -0.00000000000E+00 -0.78063445424E+01  0.78063445424E+01  0.00000000000E+00 0. -1.
          5    1    1    2  501    0 -0.25415188965E+01 -0.29616453463E+01  0.22766561385E+01  0.65194957345E+01  0.47000000000E+01 0. -1.
         -5    1    1    2    0  503  0.25415188965E+01  0.29616453463E+01 -0.40437129810E+01  0.73261365078E+01  0.47000000000E+01 0. -1.
<mgrwt>
<rscale>  2 0.61090639E+01</rscale>
<asrwt>0</asrwt>
<pdfrwt beam="1">  1       21 0.92912119E-03 0.61090639E+01</pdfrwt>
<pdfrwt beam="2">  1       21 0.12009761E-02 0.61090639E+01</pdfrwt>
<totfact> 0.27452826E+09</totfact>
</mgrwt>
</event>
<event>
 4    1  0.3931501E+006  0.5113988E+01  0.7546771E-02  0.2547321E+00
         21   -1    0    0  503  502  0.00000000000E+00  0.00000000000E+00  0.48422287251E+03  0.48422287251E+03  0.00000000000E+00 0.  1.
         21   -1    0    0  501  503 -0.00000000000E+00 -0.00000000000E+00 -0.12215342498E+00  0.12215342498E+00  0.00000000000E+00 0.  1.
          5    1    1    2  501    0 -0.14886094296E+01  0.13590111782E+01  0.61173064209E+02  0.61386453344E+02  0.47000000000E+01 0.  1.
         -5    1    1    2    0  502  0.14886094296E+01 -0.13590111782E+01  0.42292765488E+03  0.42295857259E+03  0.47000000000E+01 0.  1.
<mgrwt>
<rscale>  2 0.51139876E+01</rscale>
<asrwt>0</asrwt>
<pdfrwt beam="1">  1       21 0.74494290E-01 0.51139876E+01</pdfrwt>
<pdfrwt beam="2">  1       21 0.18793222E-04 0.51139876E+01</pdfrwt>
<totfact> 0.72577499E+08</totfact>
</mgrwt>
</event>
<event>
 4    1  0.3931501E+006  0.6994786E+01  0.7546771E-02  0.2301520E+00
         21   -1    0    0  501  502  0.00000000000E+00  0.00000000000E+00  0.53405965518E+01  0.53405965518E+01  0.00000000000E+00 0. -1.
         21   -1    0    0  502  503 -0.00000000000E+00 -0.00000000000E+00 -0.93063780547E+01  0.93063780547E+01  0.00000000000E+00 0. -1.
          5    1    1    2  501    0 -0.81851735367E+00 -0.51153754110E+01 -0.28971392211E+01  0.75710271377E+01  0.47000000000E+01 0. -1.
         -5    1    1    2    0  503  0.81851735367E+00  0.51153754110E+01 -0.10686422819E+01  0.70759474688E+01  0.47000000000E+01 0. -1.
<mgrwt>
<rscale>  2 0.69947864E+01</rscale>
<asrwt>0</asrwt>
<pdfrwt beam="1">  1       21 0.82163024E-03 0.69947864E+01</pdfrwt>
<pdfrwt beam="2">  1       21 0.14317505E-02 0.69947864E+01</pdfrwt>
<totfact> 0.28454684E+09</totfact>
</mgrwt>
</event>
<event>
 4    1  0.3931501E+006  0.6989418E+01  0.7546771E-02  0.2302062E+00
         21   -1    0    0  503  502  0.00000000000E+00  0.00000000000E+00  0.41942403920E+01  0.41942403920E+01  0.00000000000E+00 0. -1.
         21   -1    0    0  501  503 -0.00000000000E+00 -0.00000000000E+00 -0.22312540388E+02  0.22312540388E+02  0.00000000000E+00 0. -1.
          5    1    1    2  501    0 -0.29679255070E+01  0.42371429164E+01 -0.18222112989E+02  0.19516592010E+02  0.47000000000E+01 0. -1.
         -5    1    1    2    0  502  0.29679255070E+01 -0.42371429164E+01  0.10381299231E+00  0.69901887704E+01  0.47000000000E+01 0. -1.
<mgrwt>
<rscale>  2 0.69894179E+01</rscale>
<asrwt>0</asrwt>
<pdfrwt beam="1">  1       21 0.64526774E-03 0.69894179E+01</pdfrwt>
<pdfrwt beam="2">  1       21 0.34326986E-02 0.69894179E+01</pdfrwt>
<totfact> 0.11208685E+09</totfact>
</mgrwt>
</event>
<event>
 4    1  0.3931501E+006  0.7119277E+01  0.7546771E-02  0.2289134E+00
         21   -1    0    0  503  502  0.00000000000E+00  0.00000000000E+00  0.23672336990E+01  0.23672336990E+01  0.00000000000E+00 0. -1.
         21   -1    0    0  501  503 -0.00000000000E+00 -0.00000000000E+00 -0.98551121142E+02  0.98551121142E+02  0.00000000000E+00 0. -1.
          5    1    1    2  501    0  0.50265577316E+01 -0.18242321533E+01 -0.92734639744E+02  0.93007513213E+02  0.47000000000E+01 0. -1.
         -5    1    1    2    0  502 -0.50265577316E+01  0.18242321533E+01 -0.34492476991E+01  0.79108416283E+01  0.47000000000E+01 0. -1.
<mgrwt>
<rscale>  2 0.71192770E+01</rscale>
<asrwt>0</asrwt>
<pdfrwt beam="1">  1       21 0.36418993E-03 0.71192770E+01</pdfrwt>
<pdfrwt beam="2">  1       21 0.15161706E-01 0.71192770E+01</pdfrwt>
<totfact> 0.26098560E+08</totfact>
</mgrwt>
</event>
<event>
 4    1  0.3931501E+006  0.5788378E+01  0.7546771E-02  0.2443808E+00
         21   -1    0    0  503  502  0.00000000000E+00  0.00000000000E+00  0.20364297958E+01  0.20364297958E+01  0.00000000000E+00 0.  1.
         21   -1    0    0  501  503 -0.00000000000E+00 -0.00000000000E+00 -0.22072591188E+03  0.22072591188E+03  0.00000000000E+00 0.  1.
          5    1    1    2  501    0 -0.33781817964E+01  0.56591171201E-01 -0.21649433821E+03  0.21657170589E+03  0.47000000000E+01 0.  1.
         -5    1    1    2    0  502  0.33781817964E+01 -0.56591171201E-01 -0.21951438738E+01  0.61906357861E+01  0.47000000000E+01 0.  1.
<mgrwt>
<rscale>  2 0.57883776E+01</rscale>
<asrwt>0</asrwt>
<pdfrwt beam="1">  1       21 0.31329710E-03 0.57883776E+01</pdfrwt>
<pdfrwt beam="2">  1       21 0.33957810E-01 0.57883776E+01</pdfrwt>
<totfact> 0.74970913E+07</totfact>
</mgrwt>
</event>
<event>
 4    1  0.3931501E+006  0.5778632E+01  0.7546771E-02  0.2445157E+00
         21   -1    0    0  503  502  0.00000000000E+00  0.00000000000E+00  0.29821302185E+01  0.29821302185E+01  0.00000000000E+00 0. -1.
         21   -1    0    0  501  503 -0.00000000000E+00 -0.00000000000E+00 -0.11900606224E+02  0.11900606224E+02  0.00000000000E+00 0. -1.
          5    1    1    2  501    0 -0.25301078307E+01  0.22138516322E+01 -0.62679104381E+01  0.85252147154E+01  0.47000000000E+01 0. -1.
         -5    1    1    2    0  502  0.25301078307E+01 -0.22138516322E+01 -0.26505655674E+01  0.63575217272E+01  0.47000000000E+01 0. -1.
<mgrwt>
<rscale>  2 0.57786317E+01</rscale>
<asrwt>0</asrwt>
<pdfrwt beam="1">  1       21 0.45878926E-03 0.57786317E+01</pdfrwt>
<pdfrwt beam="2">  1       21 0.18308625E-02 0.57786317E+01</pdfrwt>
<totfact> 0.38385673E+09</totfact>
</mgrwt>
</event>
<event>
 4    1  0.3931501E+006  0.6849718E+01  0.7546771E-02  0.2316416E+00
         21   -1    0    0  503  502  0.00000000000E+00  0.00000000000E+00  0.23462229088E+00  0.23462229088E+00  0.00000000000E+00 0. -1.
         21   -1    0    0  501  503 -0.00000000000E+00 -0.00000000000E+00 -0.22130334075E+03  0.22130334075E+03  0.00000000000E+00 0.  1.
          5    1    1    2  501    0 -0.14669454198E+01  0.47620061175E+01 -0.14492189395E+03  0.14508367922E+03  0.47000000000E+01 0.  1.
         -5    1    1    2    0  502  0.14669454198E+01 -0.47620061175E+01 -0.76146824518E+02  0.76454283826E+02  0.47000000000E+01 0. -1.
<mgrwt>
<rscale>  2 0.68497176E+01</rscale>
<asrwt>0</asrwt>
<pdfrwt beam="1">  1       21 0.36095731E-04 0.68497176E+01</pdfrwt>
<pdfrwt beam="2">  1       21 0.34046673E-01 0.68497176E+01</pdfrwt>
<totfact> 0.15515207E+09</totfact>
</mgrwt>
</event>
<event>
 4    1  0.3931501E+006  0.7465678E+01  0.7546771E-02  0.2256459E+00
         21   -1    0    0  501  502  0.00000000000E+00  0.00000000000E+00  0.13210194164E+02  0.13210194164E+02  0.00000000000E+00 0. -1.
         21   -1    0    0  502  503 -0.00000000000E+00 -0.00000000000E+00 -0.44819547521E+01  0.44819547521E+01  0.00000000000E+00 0.  1.
          5    1    1    2  501    0  0.55608537920E+01  0.16502261653E+01  0.65060188788E+01  0.99027583503E+01  0.47000000000E+01 0.  1.
         -5    1    1    2    0  503 -0.55608537920E+01 -0.16502261653E+01  0.22222205334E+01  0.77893905661E+01  0.47000000000E+01 0. -1.
<mgrwt>
<rscale>  2 0.74656776E+01</rscale>
<asrwt>0</asrwt>
<pdfrwt beam="1">  1       21 0.20323376E-02 0.74656776E+01</pdfrwt>
<pdfrwt beam="2">  1       21 0.68953150E-03 0.74656776E+01</pdfrwt>
<totfact> 0.23114486E+09</totfact>
</mgrwt>
</event>
<event>
 4    1  0.3931501E+006  0.5450763E+01  0.7546771E-02  0.2492907E+00
         21   -1    0    0  503  502  0.00000000000E+00  0.00000000000E+00  0.10072994819E+01  0.10072994819E+01  0.00000000000E+00 0. -1.
         21   -1    0    0  501  503 -0.00000000000E+00 -0.00000000000E+00 -0.51142953266E+02  0.51142953266E+02  0.00000000000E+00 0. -1.
          5    1    1    2  501    0  0.24433036751E+01  0.12849467929E+01 -0.42032157760E+02  0.42384113853E+02  0.47000000000E+01 0. -1.
         -5    1    1    2    0  502 -0.24433036751E+01 -0.12849467929E+01 -0.81034960237E+01  0.97661388949E+01  0.47000000000E+01 0. -1.
<mgrwt>
<rscale>  2 0.54507634E+01</rscale>
<asrwt>0</asrwt>
<pdfrwt beam="1">  1       21 0.15496915E-03 0.54507634E+01</pdfrwt>
<pdfrwt beam="2">  1       21 0.78681467E-02 0.54507634E+01</pdfrwt>
<totfact> 0.19003796E+09</totfact>
</mgrwt>
</event>
<event>
 4    1  0.3931501E+006  0.6329788E+01  0.7546771E-02  0.2374381E+00
         21   -1    0    0  501  502  0.00000000000E+00  0.00000000000E+00  0.17414516174E+00  0.17414516174E+00  0.00000000000E+00 0.  1.
         21   -1    0    0  502  503 -0.00000000000E+00 -0.00000000000E+00 -0.23784914169E+03  0.23784914169E+03  0.00000000000E+00 0.  1.
          5    1    1    2  501    0 -0.35631449630E+01  0.22978710411E+01 -0.97319467125E+02  0.97525098794E+02  0.47000000000E+01 0.  1.
         -5    1    1    2    0  503  0.35631449630E+01 -0.22978710411E+01 -0.14035552940E+03  0.14049818806E+03  0.47000000000E+01 0.  1.
<mgrwt>
<rscale>  2 0.63297878E+01</rscale>
<asrwt>0</asrwt>
<pdfrwt beam="1">  1       21 0.26791337E-04 0.63297878E+01</pdfrwt>
<pdfrwt beam="2">  1       21 0.36592485E-01 0.63297878E+01</pdfrwt>
<totfact> 0.19286121E+09</totfact>
</mgrwt>
</event>
<event>
 4    1  0.3931501E+006  0.5950288E+01  0.7546771E-02  0.2421939E+00
         21   -1    0    0  501  502  0.00000000000E+00  0.00000000000E+00  0.37229521566E+03  0.37229521566E+03  0.00000000000E+00 0. -1.
         21   -1    0    0  502  503 -0.00000000000E+00 -0.00000000000E+00 -0.24457419107E+00  0.24457419107E+00  0.00000000000E+00 0. -1.
          5    1    1    2  501    0 -0.11509179970E+01  0.34628479983E+01  0.33164427656E+03  0.33169765164E+03  0.47000000000E+01 0. -1.
         -5    1    1    2    0  503  0.11509179970E+01 -0.34628479983E+01  0.40406364907E+02  0.40842138209E+02  0.47000000000E+01 0. -1.
<mgrwt>
<rscale>  2 0.59502881E+01</rscale>
<asrwt>0</asrwt>
<pdfrwt beam="1">  1       21 0.57275734E-01 0.59502881E+01</pdfrwt>
<pdfrwt beam="2">  1       21 0.37627096E-04 0.59502881E+01</pdfrwt>
<totfact> 0.52709673E+08</totfact>
</mgrwt>
</event>
<event>
 4    1  0.3931501E+006  0.8429597E+01  0.7546771E-02  0.2177191E+00
         21   -1    0    0  501  502  0.00000000000E+00  0.00000000000E+00  0.46565496527E+02  0.46565496527E+02  0.00000000000E+00 0.  1.
         21   -1    0    0  502  503 -0.00000000000E+00 -0.00000000000E+00 -0.14114545856E+02  0.14114545856E+02  0.00000000000E+00 0. -1.
          5    1    1    2  501    0  0.69367816074E+01  0.92150124921E+00  0.44878503131E+02  0.45663312921E+02  0.47000000000E+01 0.  1.
         -5    1    1    2    0  503 -0.69367816074E+01 -0.92150124921E+00 -0.12427552459E+02  0.15016729463E+02  0.47000000000E+01 0. -1.
<mgrwt>
<rscale>  2 0.84295969E+01</rscale>
<asrwt>0</asrwt>
<pdfrwt beam="1">  1       21 0.71639225E-02 0.84295969E+01</pdfrwt>
<pdfrwt beam="2">  1       21 0.21714686E-02 0.84295969E+01</pdfrwt>
<totfact> 0.72482544E+07</totfact>
</mgrwt>
</event>
<event>
 4    1  0.3931501E+006  0.8223815E+01  0.7546771E-02  0.2192851E+00
         21   -1    0    0  503  502  0.00000000000E+00  0.00000000000E+00  0.52971614594E+02  0.52971614594E+02  0.00000000000E+00 0.  1.
         21   -1    0    0  501  503 -0.00000000000E+00 -0.00000000000E+00 -0.12932756770E+01  0.12932756770E+01  0.00000000000E+00 0. -1.
          5    1    1    2  501    0  0.15135720127E+01  0.65764910392E+01  0.22771448611E+02  0.24210948071E+02  0.47000000000E+01 0. -1.
         -5    1    1    2    0  502 -0.15135720127E+01 -0.65764910392E+01  0.28906890305E+02  0.30053942200E+02  0.47000000000E+01 0.  1.
<mgrwt>
<rscale>  2 0.82238151E+01</rscale>
<asrwt>0</asrwt>
<pdfrwt beam="1">  1       21 0.81494775E-02 0.82238151E+01</pdfrwt>
<pdfrwt beam="2">  1       21 0.19896553E-03 0.82238151E+01</pdfrwt>
<totfact> 0.17619811E+09</totfact>
</mgrwt>
</event>
<event>
 4    1  0.3931501E+006  0.5930701E+01  0.7546771E-02  0.2424531E+00
         21   -1    0    0  501  502  0.00000000000E+00  0.00000000000E+00  0.12910875334E+03  0.12910875334E+03  0.00000000000E+00 0. -1.
         21   -1    0    0  502  503 -0.00000000000E+00 -0.00000000000E+00 -0.65347525294E+00  0.65347525294E+00  0.00000000000E+00 0. -1.
          5    1    1    2  501    0 -0.34847839856E+00  0.36002471049E+01  0.11377168627E+03  0.11392615947E+03  0.47000000000E+01 0. -1.
         -5    1    1    2    0  503  0.34847839856E+00 -0.36002471049E+01  0.14683591821E+02  0.15836069120E+02  0.47000000000E+01 0. -1.
<mgrwt>
<rscale>  2 0.59307012E+01</rscale>
<asrwt>0</asrwt>
<pdfrwt beam="1">  1       21 0.19862865E-01 0.59307012E+01</pdfrwt>
<pdfrwt beam="2">  1       21 0.10053476E-03 0.59307012E+01</pdfrwt>
<totfact> 0.86545540E+08</totfact>
</mgrwt>
</event>
<event>
 4    1  0.3931501E+006  0.7049312E+01  0.7546771E-02  0.2296051E+00
         21   -1    0    0  501  502  0.00000000000E+00  0.00000000000E+00  0.71438310390E+03  0.71438310390E+03  0.00000000000E+00 0.  1.
         21   -1    0    0  502  503 -0.00000000000E+00 -0.00000000000E+00 -0.69624912602E-01  0.69624912602E-01  0.00000000000E+00 0. -1.
          5    1    1    2  501    0  0.34734543730E+01  0.39418152909E+01  0.34628508214E+03  0.34635682598E+03  0.47000000000E+01 0.  1.
         -5    1    1    2    0  503 -0.34734543730E+01 -0.39418152909E+01  0.36802839685E+03  0.36809590283E+03  0.47000000000E+01 0. -1.
<mgrwt>
<rscale>  2 0.70493115E+01</rscale>
<asrwt>0</asrwt>
<pdfrwt beam="1">  1       21 0.10989922E+00 0.70493115E+01</pdfrwt>
<pdfrwt beam="2">  1       21 0.10712097E-04 0.70493115E+01</pdfrwt>
<totfact> 0.88319542E+08</totfact>
</mgrwt>
</event>
<event>
 4    1  0.3931501E+006  0.6030447E+01  0.7546771E-02  0.2411478E+00
         21   -1    0    0  503  502  0.00000000000E+00  0.00000000000E+00  0.26434014426E+03  0.26434014426E+03  0.00000000000E+00 0.  1.
         21   -1    0    0  501  503 -0.00000000000E+00 -0.00000000000E+00 -0.13774637541E+00  0.13774637541E+00  0.00000000000E+00 0.  1.
          5    1    1    2  501    0  0.28780501546E+01 -0.24480840561E+01  0.12742103934E+03  0.12756366079E+03  0.47000000000E+01 0.  1.
         -5    1    1    2    0  502 -0.28780501546E+01  0.24480840561E+01  0.13678135855E+03  0.13691422985E+03  0.47000000000E+01 0.  1.
<mgrwt>
<rscale>  2 0.60304468E+01</rscale>
<asrwt>0</asrwt>
<pdfrwt beam="1">  1       21 0.40667308E-01 0.60304468E+01</pdfrwt>
<pdfrwt beam="2">  1       21 0.21191962E-04 0.60304468E+01</pdfrwt>
<totfact> 0.21158415E+09</totfact>
</mgrwt>
</event>
<event>
 4    1  0.3931501E+006  0.5079130E+01  0.7546771E-02  0.2553305E+00
         21   -1    0    0  501  502  0.00000000000E+00  0.00000000000E+00  0.57125683597E+03  0.57125683597E+03  0.00000000000E+00 0. -1.
         21   -1    0    0  502  503 -0.00000000000E+00 -0.00000000000E+00 -0.69753306306E-01  0.69753306306E-01  0.00000000000E+00 0. -1.
          5    1    1    2  501    0 -0.16568970891E+01  0.98094328734E+00  0.45521730659E+03  0.45524564114E+03  0.47000000000E+01 0. -1.
         -5    1    1    2    0  503  0.16568970891E+01 -0.98094328734E+00  0.11596977607E+03  0.11608094814E+03  0.47000000000E+01 0. -1.
<mgrwt>
<rscale>  2 0.50791296E+01</rscale>
<asrwt>0</asrwt>
<pdfrwt beam="1">  1       21 0.87881921E-01 0.50791296E+01</pdfrwt>
<pdfrwt beam="2">  1       21 0.10731735E-04 0.50791296E+01</pdfrwt>
<totfact> 0.11029727E+09</totfact>
</mgrwt>
</event>
<event>
 4    1  0.3931501E+006  0.6037107E+01  0.7546771E-02  0.2410619E+00
         21   -1    0    0  503  502  0.00000000000E+00  0.00000000000E+00  0.19449100126E+01  0.19449100126E+01  0.00000000000E+00 0.  1.
         21   -1    0    0  501  503 -0.00000000000E+00 -0.00000000000E+00 -0.21709460913E+02  0.21709460913E+02  0.00000000000E+00 0.  1.
          5    1    1    2  501    0  0.28043597688E+01 -0.25479859968E+01 -0.14256804532E+02  0.15482349363E+02  0.47000000000E+01 0.  1.
         -5    1    1    2    0  502 -0.28043597688E+01  0.25479859968E+01 -0.55077463689E+01  0.81720215624E+01  0.47000000000E+01 0.  1.
<mgrwt>
<rscale>  2 0.60371074E+01</rscale>
<asrwt>0</asrwt>
<pdfrwt beam="1">  1       21 0.29921695E-03 0.60371074E+01</pdfrwt>
<pdfrwt beam="2">  1       21 0.33399168E-02 0.60371074E+01</pdfrwt>
<totfact> 0.30212021E+09</totfact>
</mgrwt>
</event>
<event>
 4    1  0.3931501E+006  0.7702487E+01  0.7546771E-02  0.2235506E+00
         21   -1    0    0  503  502  0.00000000000E+00  0.00000000000E+00  0.13523146283E+01  0.13523146283E+01  0.00000000000E+00 0.  1.
         21   -1    0    0  501  503 -0.00000000000E+00 -0.00000000000E+00 -0.49212497971E+02  0.49212497971E+02  0.00000000000E+00 0. -1.
          5    1    1    2  501    0 -0.31877277151E+01  0.52035273971E+01 -0.15601244974E+02  0.17399056012E+02  0.47000000000E+01 0.  1.
         -5    1    1    2    0  502  0.31877277151E+01 -0.52035273971E+01 -0.32258938368E+02  0.33165756587E+02  0.47000000000E+01 0. -1.
<mgrwt>
<rscale>  2 0.77024870E+01</rscale>
<asrwt>0</asrwt>
<pdfrwt beam="1">  1       21 0.20804839E-03 0.77024870E+01</pdfrwt>
<pdfrwt beam="2">  1       21 0.75711542E-02 0.77024870E+01</pdfrwt>
<totfact> 0.17742331E+09</totfact>
</mgrwt>
</event>
<event>
 4    1  0.3931501E+006  0.5007316E+01  0.7546771E-02  0.2565858E+00
         21   -1    0    0  503  502  0.00000000000E+00  0.00000000000E+00  0.49744040055E+03  0.49744040055E+03  0.00000000000E+00 0. -1.
         21   -1    0    0  501  503 -0.00000000000E+00 -0.00000000000E+00 -0.11682803893E+00  0.11682803893E+00  0.00000000000E+00 0. -1.
          5    1    1    2  501    0 -0.17053650936E+01  0.27375885393E+00  0.61075691568E+02  0.61280611244E+02  0.47000000000E+01 0. -1.
         -5    1    1    2    0  502  0.17053650936E+01 -0.27375885393E+00  0.43624788094E+03  0.43627661734E+03  0.47000000000E+01 0. -1.
<mgrwt>
<rscale>  2 0.50073160E+01</rscale>
<asrwt>0</asrwt>
<pdfrwt beam="1">  1       21 0.76527597E-01 0.50073160E+01</pdfrwt>
<pdfrwt beam="2">  1       21 0.17973943E-04 0.50073160E+01</pdfrwt>
<totfact> 0.71936366E+08</totfact>
</mgrwt>
</event>
<event>
 4    1  0.3931501E+006  0.1725968E+02  0.7546771E-02  0.1806044E+00
         21   -1    0    0  503  502  0.00000000000E+00  0.00000000000E+00  0.26396908155E+02  0.26396908155E+02  0.00000000000E+00 0. -1.
         21   -1    0    0  501  503 -0.00000000000E+00 -0.00000000000E+00 -0.15343678015E+02  0.15343678015E+02  0.00000000000E+00 0. -1.
          5    1    1    2  501    0 -0.10662473727E+02  0.12732563434E+02 -0.52068782898E+01  0.18027981005E+02  0.47000000000E+01 0. -1.
         -5    1    1    2    0  502  0.10662473727E+02 -0.12732563434E+02  0.16260108430E+02  0.23712605165E+02  0.47000000000E+01 0. -1.
<mgrwt>
<rscale>  2 0.17259679E+02</rscale>
<asrwt>0</asrwt>
<pdfrwt beam="1">  1       21 0.40610628E-02 0.17259679E+02</pdfrwt>
<pdfrwt beam="2">  1       21 0.23605658E-02 0.17259679E+02</pdfrwt>
<totfact> 0.20954445E+08</totfact>
</mgrwt>
</event>
<event>
 4    1  0.3931501E+006  0.5807798E+01  0.7546771E-02  0.2441131E+00
         21   -1    0    0  503  502  0.00000000000E+00  0.00000000000E+00  0.69099173222E+03  0.69099173222E+03  0.00000000000E+00 0. -1.
         21   -1    0    0  501  503 -0.00000000000E+00 -0.00000000000E+00 -0.95648048313E-01  0.95648048313E-01  0.00000000000E+00 0. -1.
          5    1    1    2  501    0  0.12606628201E+00 -0.34094906031E+01  0.10365558358E+03  0.10381816087E+03  0.47000000000E+01 0. -1.
         -5    1    1    2    0  502 -0.12606628201E+00  0.34094906031E+01  0.58724050060E+03  0.58726921940E+03  0.47000000000E+01 0. -1.
<mgrwt>
<rscale>  2 0.58077981E+01</rscale>
<asrwt>0</asrwt>
<pdfrwt beam="1">  1       21 0.10630242E+00 0.58077981E+01</pdfrwt>
<pdfrwt beam="2">  1       21 0.14715638E-04 0.58077981E+01</pdfrwt>
<totfact> 0.54740550E+08</totfact>
</mgrwt>
</event>
<event>
 4    1  0.3931501E+006  0.1051777E+02  0.7546771E-02  0.2046665E+00
         21   -1    0    0  503  502  0.00000000000E+00  0.00000000000E+00  0.30900055602E+00  0.30900055602E+00  0.00000000000E+00 0. -1.
         21   -1    0    0  501  503 -0.00000000000E+00 -0.00000000000E+00 -0.38421604031E+03  0.38421604031E+03  0.00000000000E+00 0. -1.
          5    1    1    2  501    0  0.88229746968E+01  0.32693381468E+01 -0.24217121548E+03  0.24239950714E+03  0.47000000000E+01 0. -1.
         -5    1    1    2    0  502 -0.88229746968E+01 -0.32693381468E+01 -0.14173582427E+03  0.14212553372E+03  0.47000000000E+01 0. -1.
<mgrwt>
<rscale>  2 0.10517769E+02</rscale>
<asrwt>0</asrwt>
<pdfrwt beam="1">  1       21 0.47538726E-04 0.10517769E+02</pdfrwt>
<pdfrwt beam="2">  1       21 0.59109937E-01 0.10517769E+02</pdfrwt>
<totfact> 0.50312131E+08</totfact>
</mgrwt>
</event>
<event>
 4    1  0.3931501E+006  0.6866662E+01  0.7546771E-02  0.2314650E+00
         21   -1    0    0  501  502  0.00000000000E+00  0.00000000000E+00  0.13280716157E+02  0.13280716157E+02  0.00000000000E+00 0. -1.
         21   -1    0    0  502  503 -0.00000000000E+00 -0.00000000000E+00 -0.56421096923E+01  0.56421096923E+01  0.00000000000E+00 0. -1.
          5    1    1    2  501    0 -0.18845118820E+01 -0.46378503730E+01  0.95802292456E+01  0.11786934865E+02  0.47000000000E+01 0. -1.
         -5    1    1    2    0  503  0.18845118820E+01  0.46378503730E+01 -0.19416227809E+01  0.71358909842E+01  0.47000000000E+01 0. -1.
<mgrwt>
<rscale>  2 0.68666616E+01</rscale>
<asrwt>0</asrwt>
<pdfrwt beam="1">  1       21 0.20431871E-02 0.68666616E+01</pdfrwt>
<pdfrwt beam="2">  1       21 0.86801688E-03 0.68666616E+01</pdfrwt>
<totfact> 0.15531680E+09</totfact>
</mgrwt>
</event>
<event>
 4    1  0.3931501E+006  0.1021602E+02  0.7546771E-02  0.2062898E+00
         21   -1    0    0  501  502  0.00000000000E+00  0.00000000000E+00  0.61861876119E+00  0.61861876119E+00  0.00000000000E+00 0.  1.
         21   -1    0    0  502  503 -0.00000000000E+00 -0.00000000000E+00 -0.24254555855E+03  0.24254555855E+03  0.00000000000E+00 0. -1.
          5    1    1    2  501    0  0.20392994757E+00  0.90683766634E+01 -0.53881419320E+02  0.54841356572E+02  0.47000000000E+01 0.  1.
         -5    1    1    2    0  503 -0.20392994757E+00 -0.90683766634E+01 -0.18804552047E+03  0.18832282074E+03  0.47000000000E+01 0. -1.
<mgrwt>
<rscale>  2 0.10216019E+02</rscale>
<asrwt>0</asrwt>
<pdfrwt beam="1">  1       21 0.95172073E-04 0.10216019E+02</pdfrwt>
<pdfrwt beam="2">  1       21 0.37314719E-01 0.10216019E+02</pdfrwt>
<totfact> 0.44792342E+08</totfact>
</mgrwt>
</event>
<event>
 4    1  0.3931501E+006  0.1057885E+02  0.7546771E-02  0.2043468E+00
         21   -1    0    0  503  502  0.00000000000E+00  0.00000000000E+00  0.10950740587E+01  0.10950740587E+01  0.00000000000E+00 0. -1.
         21   -1    0    0  501  503 -0.00000000000E+00 -0.00000000000E+00 -0.25491604469E+03  0.25491604469E+03  0.00000000000E+00 0.  1.
          5    1    1    2  501    0 -0.90569215478E+01 -0.27918101203E+01 -0.22598876814E+03  0.22623623794E+03  0.47000000000E+01 0.  1.
         -5    1    1    2    0  502  0.90569215478E+01  0.27918101203E+01 -0.27832202489E+02  0.29774880807E+02  0.47000000000E+01 0. -1.
<mgrwt>
<rscale>  2 0.10578848E+02</rscale>
<asrwt>0</asrwt>
<pdfrwt beam="1">  1       21 0.16847276E-03 0.10578848E+02</pdfrwt>
<pdfrwt beam="2">  1       21 0.39217893E-01 0.10578848E+02</pdfrwt>
<totfact> 0.18847988E+08</totfact>
</mgrwt>
</event>
<event>
 4    1  0.3931501E+006  0.6296895E+01  0.7546771E-02  0.2378313E+00
         21   -1    0    0  503  502  0.00000000000E+00  0.00000000000E+00  0.38988507294E+00  0.38988507294E+00  0.00000000000E+00 0.  1.
         21   -1    0    0  501  503 -0.00000000000E+00 -0.00000000000E+00 -0.12445897791E+03  0.12445897791E+03  0.00000000000E+00 0.  1.
          5    1    1    2  501    0  0.33401812465E+01 -0.25306265931E+01 -0.88729451775E+02  0.88952608135E+02  0.47000000000E+01 0.  1.
         -5    1    1    2    0  502 -0.33401812465E+01  0.25306265931E+01 -0.35339641058E+02  0.35896254844E+02  0.47000000000E+01 0.  1.
<mgrwt>
<rscale>  2 0.62968946E+01</rscale>
<asrwt>0</asrwt>
<pdfrwt beam="1">  1       21 0.59982289E-04 0.62968946E+01</pdfrwt>
<pdfrwt beam="2">  1       21 0.19147545E-01 0.62968946E+01</pdfrwt>
<totfact> 0.19239217E+09</totfact>
</mgrwt>
</event>
<event>
 4    1  0.3931501E+006  0.4940587E+01  0.7546771E-02  0.2577803E+00
         21   -1    0    0  503  502  0.00000000000E+00  0.00000000000E+00  0.71560403865E+02  0.71560403865E+02  0.00000000000E+00 0. -1.
         21   -1    0    0  501  503 -0.00000000000E+00 -0.00000000000E+00 -0.75501055548E+00  0.75501055548E+00  0.00000000000E+00 0. -1.
          5    1    1    2  501    0  0.16163255960E+00 -0.15143572287E+01  0.86309609105E+01  0.99449931694E+01  0.47000000000E+01 0. -1.
         -5    1    1    2    0  502 -0.16163255960E+00  0.15143572287E+01  0.62174432399E+02  0.62370421251E+02  0.47000000000E+01 0. -1.
<mgrwt>
<rscale>  2 0.49405873E+01</rscale>
<asrwt>0</asrwt>
<pdfrwt beam="1">  1       21 0.11009288E-01 0.49405873E+01</pdfrwt>
<pdfrwt beam="2">  1       21 0.11615553E-03 0.49405873E+01</pdfrwt>
<totfact> 0.15342517E+09</totfact>
</mgrwt>
</event>
<event>
 4    1  0.3931501E+006  0.5225155E+01  0.7546771E-02  0.2528697E+00
         21   -1    0    0  503  502  0.00000000000E+00  0.00000000000E+00  0.17315763227E+02  0.17315763227E+02  0.00000000000E+00 0. -1.
         21   -1    0    0  501  503 -0.00000000000E+00 -0.00000000000E+00 -0.29473626348E+01  0.29473626348E+01  0.00000000000E+00 0. -1.
          5    1    1    2  501    0 -0.22685947713E+01  0.25635441048E+00  0.27511440029E+00  0.52323921636E+01  0.47000000000E+01 0. -1.
         -5    1    1    2    0  502  0.22685947713E+01 -0.25635441048E+00  0.14093286192E+02  0.15030733698E+02  0.47000000000E+01 0. -1.
<mgrwt>
<rscale>  2 0.52251545E+01</rscale>
<asrwt>0</asrwt>
<pdfrwt beam="1">  1       21 0.26639635E-02 0.52251545E+01</pdfrwt>
<pdfrwt beam="2">  1       21 0.45344042E-03 0.52251545E+01</pdfrwt>
<totfact> 0.20741680E+09</totfact>
</mgrwt>
</event>
<event>
 4    1  0.3931501E+006  0.4842779E+01  0.7546771E-02  0.2595824E+00
         21   -1    0    0  503  502  0.00000000000E+00  0.00000000000E+00  0.70270342992E+03  0.70270342992E+03  0.00000000000E+00 0.  1.
         21   -1    0    0  501  503 -0.00000000000E+00 -0.00000000000E+00 -0.77640710021E-01  0.77640710021E-01  0.00000000000E+00 0.  1.
          5    1    1    2  501    0 -0.90686533310E+00 -0.73491557568E+00  0.85986428341E+02  0.86122693667E+02  0.47000000000E+01 0.  1.
         -5    1    1    2    0  502  0.90686533310E+00  0.73491557568E+00  0.61663936087E+03  0.61665837696E+03  0.47000000000E+01 0.  1.
<mgrwt>
<rscale>  2 0.48427787E+01</rscale>
<asrwt>0</asrwt>
<pdfrwt beam="1">  1       21 0.10810313E+00 0.48427787E+01</pdfrwt>
<pdfrwt beam="2">  1       21 0.11945287E-04 0.48427787E+01</pdfrwt>
<totfact> 0.61095668E+08</totfact>
</mgrwt>
</event>
<event>
 4    1  0.3931501E+006  0.5833174E+01  0.7546771E-02  0.2437655E+00
         21   -1    0    0  503  502  0.00000000000E+00  0.00000000000E+00  0.22426875571E+03  0.22426875571E+03  0.00000000000E+00 0. -1.
         21   -1    0    0  501  503 -0.00000000000E+00 -0.00000000000E+00 -0.17450020969E+00  0.17450020969E+00  0.00000000000E+00 0. -1.
          5    1    1    2  501    0 -0.11780948587E+01  0.32477703505E+01  0.71499708122E+02  0.71737257972E+02  0.47000000000E+01 0. -1.
         -5    1    1    2    0  502  0.11780948587E+01 -0.32477703505E+01  0.15259454738E+03  0.15270599795E+03  0.47000000000E+01 0. -1.
<mgrwt>
<rscale>  2 0.58331741E+01</rscale>
<asrwt>0</asrwt>
<pdfrwt beam="1">  1       21 0.34502655E-01 0.58331741E+01</pdfrwt>
<pdfrwt beam="2">  1       21 0.26846366E-04 0.58331741E+01</pdfrwt>
<totfact> 0.19979793E+09</totfact>
</mgrwt>
</event>
<event>
 4    1  0.3931501E+006  0.5638028E+01  0.7546771E-02  0.2465059E+00
         21   -1    0    0  501  502  0.00000000000E+00  0.00000000000E+00  0.25913111880E+00  0.25913111880E+00  0.00000000000E+00 0.  1.
         21   -1    0    0  502  503 -0.00000000000E+00 -0.00000000000E+00 -0.21283906685E+03  0.21283906685E+03  0.00000000000E+00 0.  1.
          5    1    1    2  501    0 -0.30963086587E+01  0.33200542754E+00 -0.36938555984E+02  0.37366352151E+02  0.47000000000E+01 0.  1.
         -5    1    1    2    0  503  0.30963086587E+01 -0.33200542754E+00 -0.17564137975E+03  0.17573184582E+03  0.47000000000E+01 0.  1.
<mgrwt>
<rscale>  2 0.56380276E+01</rscale>
<asrwt>0</asrwt>
<pdfrwt beam="1">  1       21 0.39866188E-04 0.56380276E+01</pdfrwt>
<pdfrwt beam="2">  1       21 0.32744585E-01 0.56380276E+01</pdfrwt>
<totfact> 0.12547856E+09</totfact>
</mgrwt>
</event>
<event>
 4    1  0.3931501E+006  0.5452398E+01  0.7546771E-02  0.2492657E+00
         21   -1    0    0  501  502  0.00000000000E+00  0.00000000000E+00  0.27087468033E+01  0.27087468033E+01  0.00000000000E+00 0.  1.
         21   -1    0    0  502  503 -0.00000000000E+00 -0.00000000000E+00 -0.16375869968E+03  0.16375869968E+03  0.00000000000E+00 0.  1.
          5    1    1    2  501    0 -0.64304283807E+00  0.26879614543E+01 -0.12876813894E+00  0.54539180508E+01  0.47000000000E+01 0.  1.
         -5    1    1    2    0  503  0.64304283807E+00 -0.26879614543E+01 -0.16092118474E+03  0.16101352844E+03  0.47000000000E+01 0.  1.
<mgrwt>
<rscale>  2 0.54523977E+01</rscale>
<asrwt>0</asrwt>
<pdfrwt beam="1">  1       21 0.41673024E-03 0.54523977E+01</pdfrwt>
<pdfrwt beam="2">  1       21 0.25193648E-01 0.54523977E+01</pdfrwt>
<totfact> 0.80324859E+07</totfact>
</mgrwt>
</event>
<event>
 4    1  0.3931501E+006  0.9672075E+01  0.7546771E-02  0.2094145E+00
         21   -1    0    0  503  502  0.00000000000E+00  0.00000000000E+00  0.80322393940E+01  0.80322393940E+01  0.00000000000E+00 0.  1.
         21   -1    0    0  501  503 -0.00000000000E+00 -0.00000000000E+00 -0.20850714994E+02  0.20850714994E+02  0.00000000000E+00 0.  1.
          5    1    1    2  501    0 -0.82921758443E+01  0.16428211875E+01 -0.16004126063E+02  0.18699761836E+02  0.47000000000E+01 0.  1.
         -5    1    1    2    0  502  0.82921758443E+01 -0.16428211875E+01  0.31856504626E+01  0.10183192552E+02  0.47000000000E+01 0.  1.
<mgrwt>
<rscale>  2 0.96720754E+01</rscale>
<asrwt>0</asrwt>
<pdfrwt beam="1">  1       21 0.12357292E-02 0.96720754E+01</pdfrwt>
<pdfrwt beam="2">  1       21 0.32078023E-02 0.96720754E+01</pdfrwt>
<totfact> 0.60408863E+08</totfact>
</mgrwt>
</event>
<event>
 4    1  0.3931501E+006  0.5353635E+01  0.7546771E-02  0.2508000E+00
         21   -1    0    0  503  502  0.00000000000E+00  0.00000000000E+00  0.32864907208E+02  0.32864907208E+02  0.00000000000E+00 0.  1.
         21   -1    0    0  501  503 -0.00000000000E+00 -0.00000000000E+00 -0.13284261763E+01  0.13284261763E+01  0.00000000000E+00 0.  1.
          5    1    1    2  501    0 -0.71590667116E+00 -0.24614809110E+01  0.57479224145E+01  0.78549362009E+01  0.47000000000E+01 0.  1.
         -5    1    1    2    0  502  0.71590667116E+00  0.24614809110E+01  0.25788558617E+02  0.26338397183E+02  0.47000000000E+01 0.  1.
<mgrwt>
<rscale>  2 0.53536353E+01</rscale>
<asrwt>0</asrwt>
<pdfrwt beam="1">  1       21 0.50561390E-02 0.53536353E+01</pdfrwt>
<pdfrwt beam="2">  1       21 0.20437328E-03 0.53536353E+01</pdfrwt>
<totfact> 0.24826921E+09</totfact>
</mgrwt>
</event>
<event>
 4    1  0.3931501E+006  0.1480087E+02  0.7546771E-02  0.1874207E+00
         21   -1    0    0  501  502  0.00000000000E+00  0.00000000000E+00  0.76041525990E+02  0.76041525990E+02  0.00000000000E+00 0.  1.
         21   -1    0    0  502  503 -0.00000000000E+00 -0.00000000000E+00 -0.33190791424E+01  0.33190791424E+01  0.00000000000E+00 0.  1.
          5    1    1    2  501    0 -0.65034277192E+01 -0.12437088712E+02  0.50779286103E+02  0.52892359040E+02  0.47000000000E+01 0.  1.
         -5    1    1    2    0  503  0.65034277192E+01  0.12437088712E+02  0.21943160745E+02  0.26468246092E+02  0.47000000000E+01 0.  1.
<mgrwt>
<rscale>  2 0.14800870E+02</rscale>
<asrwt>0</asrwt>
<pdfrwt beam="1">  1       21 0.11698695E-01 0.14800870E+02</pdfrwt>
<pdfrwt beam="2">  1       21 0.51062762E-03 0.14800870E+02</pdfrwt>
<totfact> 0.35548065E+08</totfact>
</mgrwt>
</event>
<event>
 4    1  0.3931501E+006  0.1002422E+02  0.7546771E-02  0.2073612E+00
         21   -1    0    0  503  502  0.00000000000E+00  0.00000000000E+00  0.31590114659E+01  0.31590114659E+01  0.00000000000E+00 0. -1.
         21   -1    0    0  501  503 -0.00000000000E+00 -0.00000000000E+00 -0.64100431112E+02  0.64100431112E+02  0.00000000000E+00 0.  1.
          5    1    1    2  501    0  0.76513933568E+01 -0.44554646221E+01 -0.54339832767E+02  0.55256695616E+02  0.47000000000E+01 0.  1.
         -5    1    1    2    0  502 -0.76513933568E+01  0.44554646221E+01 -0.66015868790E+01  0.12002746961E+02  0.47000000000E+01 0. -1.
<mgrwt>
<rscale>  2 0.10024220E+02</rscale>
<asrwt>0</asrwt>
<pdfrwt beam="1">  1       21 0.48600180E-03 0.10024220E+02</pdfrwt>
<pdfrwt beam="2">  1       21 0.98616041E-02 0.10024220E+02</pdfrwt>
<totfact> 0.41927604E+08</totfact>
</mgrwt>
</event>
<event>
 4    1  0.3931501E+006  0.5579494E+01  0.7546771E-02  0.2473593E+00
         21   -1    0    0  503  502  0.00000000000E+00  0.00000000000E+00  0.81897023916E+01  0.81897023916E+01  0.00000000000E+00 0.  1.
         21   -1    0    0  501  503 -0.00000000000E+00 -0.00000000000E+00 -0.77407796551E+01  0.77407796551E+01  0.00000000000E+00 0.  1.
          5    1    1    2  501    0 -0.21585366301E+01  0.20931967668E+01 -0.54579298815E+01  0.78051106129E+01  0.47000000000E+01 0.  1.
         -5    1    1    2    0  502  0.21585366301E+01 -0.20931967668E+01  0.59068526180E+01  0.81253714339E+01  0.47000000000E+01 0.  1.
<mgrwt>
<rscale>  2 0.55794940E+01</rscale>
<asrwt>0</asrwt>
<pdfrwt beam="1">  1       21 0.12599542E-02 0.55794940E+01</pdfrwt>
<pdfrwt beam="2">  1       21 0.11908892E-02 0.55794940E+01</pdfrwt>
<totfact> 0.16687076E+09</totfact>
</mgrwt>
</event>
<event>
 4    1  0.3931501E+006  0.5610701E+01  0.7546771E-02  0.2469024E+00
         21   -1    0    0  503  502  0.00000000000E+00  0.00000000000E+00  0.15125975410E+01  0.15125975410E+01  0.00000000000E+00 0.  1.
         21   -1    0    0  501  503 -0.00000000000E+00 -0.00000000000E+00 -0.21580067635E+02  0.21580067635E+02  0.00000000000E+00 0. -1.
          5    1    1    2  501    0  0.47429620958E+00  0.30273773387E+01 -0.12212230028E+02  0.13439439449E+02  0.47000000000E+01 0. -1.
         -5    1    1    2    0  502 -0.47429620958E+00 -0.30273773387E+01 -0.78552400660E+01  0.96532257272E+01  0.47000000000E+01 0.  1.
<mgrwt>
<rscale>  2 0.56107014E+01</rscale>
<asrwt>0</asrwt>
<pdfrwt beam="1">  1       21 0.23270730E-03 0.56107014E+01</pdfrwt>
<pdfrwt beam="2">  1       21 0.33200106E-02 0.56107014E+01</pdfrwt>
<totfact> 0.40220281E+09</totfact>
</mgrwt>
</event>
<event>
 4    1  0.3931501E+006  0.7402940E+01  0.7546771E-02  0.2262192E+00
         21   -1    0    0  503  502  0.00000000000E+00  0.00000000000E+00  0.97925890214E+00  0.97925890214E+00  0.00000000000E+00 0.  1.
         21   -1    0    0  501  503 -0.00000000000E+00 -0.00000000000E+00 -0.15762492288E+03  0.15762492288E+03  0.00000000000E+00 0. -1.
          5    1    1    2  501    0 -0.31277708336E+01  0.47885877344E+01 -0.14200951247E+03  0.14220233878E+03  0.47000000000E+01 0. -1.
         -5    1    1    2    0  502  0.31277708336E+01 -0.47885877344E+01 -0.14636151511E+02  0.16401843004E+02  0.47000000000E+01 0.  1.
<mgrwt>
<rscale>  2 0.74029402E+01</rscale>
<asrwt>0</asrwt>
<pdfrwt beam="1">  1       21 0.15065521E-03 0.74029402E+01</pdfrwt>
<pdfrwt beam="2">  1       21 0.24249989E-01 0.74029402E+01</pdfrwt>
<totfact> 0.42012395E+08</totfact>
</mgrwt>
</event>
<event>
 4    1  0.3931501E+006  0.4838092E+01  0.7546771E-02  0.2596703E+00
         21   -1    0    0  501  502  0.00000000000E+00  0.00000000000E+00  0.99617238417E+01  0.99617238417E+01  0.00000000000E+00 0.  1.
         21   -1    0    0  502  503 -0.00000000000E+00 -0.00000000000E+00 -0.33341607997E+01  0.33341607997E+01  0.00000000000E+00 0.  1.
          5    1    1    2  501    0  0.44624377675E+00 -0.10573544783E+01  0.69261467002E+01  0.84485880544E+01  0.47000000000E+01 0.  1.
         -5    1    1    2    0  503 -0.44624377675E+00  0.10573544783E+01 -0.29858365814E+00  0.48472965870E+01  0.47000000000E+01 0.  1.
<mgrwt>
<rscale>  2 0.48380918E+01</rscale>
<asrwt>0</asrwt>
<pdfrwt beam="1">  1       21 0.15325729E-02 0.48380918E+01</pdfrwt>
<pdfrwt beam="2">  1       21 0.51294782E-03 0.48380918E+01</pdfrwt>
<totfact> 0.35489156E+09</totfact>
</mgrwt>
</event>
<event>
 4    1  0.3931501E+006  0.6727159E+01  0.7546771E-02  0.2329412E+00
         21   -1    0    0  503  502  0.00000000000E+00  0.00000000000E+00  0.11370495848E+01  0.11370495848E+01  0.00000000000E+00 0. -1.
         21   -1    0    0  501  503 -0.00000000000E+00 -0.00000000000E+00 -0.71741642988E+02  0.71741642988E+02  0.00000000000E+00 0. -1.
          5    1    1    2  501    0  0.20431899011E+01 -0.43577562987E+01 -0.59616665336E+02  0.59995011882E+02  0.47000000000E+01 0. -1.
         -5    1    1    2    0  502 -0.20431899011E+01  0.43577562987E+01 -0.10987928067E+02  0.12883680690E+02  0.47000000000E+01 0. -1.
<mgrwt>
<rscale>  2 0.67271588E+01</rscale>
<asrwt>0</asrwt>
<pdfrwt beam="1">  1       21 0.17493071E-03 0.67271588E+01</pdfrwt>
<pdfrwt beam="2">  1       21 0.11037176E-01 0.67271588E+01</pdfrwt>
<totfact> 0.11398081E+09</totfact>
</mgrwt>
</event>
<event>
 4    1  0.3931501E+006  0.5667463E+01  0.7546771E-02  0.2460823E+00
         21   -1    0    0  503  502  0.00000000000E+00  0.00000000000E+00  0.11501031706E+02  0.11501031706E+02  0.00000000000E+00 0. -1.
         21   -1    0    0  501  503 -0.00000000000E+00 -0.00000000000E+00 -0.58811654794E+01  0.58811654794E+01  0.00000000000E+00 0.  1.
          5    1    1    2  501    0 -0.19581970278E+01  0.24890974964E+01 -0.34881291700E+01  0.66548619109E+01  0.47000000000E+01 0.  1.
         -5    1    1    2    0  502  0.19581970278E+01 -0.24890974964E+01  0.91079953968E+01  0.10727335275E+02  0.47000000000E+01 0. -1.
<mgrwt>
<rscale>  2 0.56674634E+01</rscale>
<asrwt>0</asrwt>
<pdfrwt beam="1">  1       21 0.17693895E-02 0.56674634E+01</pdfrwt>
<pdfrwt beam="2">  1       21 0.90479469E-03 0.56674634E+01</pdfrwt>
<totfact> 0.15378879E+09</totfact>
</mgrwt>
</event>
<event>
 4    1  0.3931501E+006  0.6447860E+01  0.7546771E-02  0.2360540E+00
         21   -1    0    0  501  502  0.00000000000E+00  0.00000000000E+00  0.12761161710E+01  0.12761161710E+01  0.00000000000E+00 0.  1.
         21   -1    0    0  502  503 -0.00000000000E+00 -0.00000000000E+00 -0.90335435893E+03  0.90335435893E+03  0.00000000000E+00 0.  1.
          5    1    1    2  501    0 -0.16583242248E+01  0.40908255296E+01 -0.69550946747E+01  0.94841043163E+01  0.47000000000E+01 0.  1.
         -5    1    1    2    0  503  0.16583242248E+01 -0.40908255296E+01 -0.89512314808E+03  0.89514637078E+03  0.47000000000E+01 0.  1.
<mgrwt>
<rscale>  2 0.64478595E+01</rscale>
<asrwt>0</asrwt>
<pdfrwt beam="1">  1       21 0.19632507E-03 0.64478595E+01</pdfrwt>
<pdfrwt beam="2">  1       21 0.13897795E+00 0.64478595E+01</pdfrwt>
<totfact> 0.10229307E+07</totfact>
</mgrwt>
</event>
<event>
 4    1  0.3931501E+006  0.6012498E+01  0.7546771E-02  0.2413800E+00
         21   -1    0    0  503  502  0.00000000000E+00  0.00000000000E+00  0.10632977715E+01  0.10632977715E+01  0.00000000000E+00 0.  1.
         21   -1    0    0  501  503 -0.00000000000E+00 -0.00000000000E+00 -0.39381343418E+02  0.39381343418E+02  0.00000000000E+00 0.  1.
          5    1    1    2  501    0  0.30753293680E+01 -0.21453382452E+01 -0.11682375999E+02  0.13138798875E+02  0.47000000000E+01 0.  1.
         -5    1    1    2    0  502 -0.30753293680E+01  0.21453382452E+01 -0.26635669648E+02  0.27305842314E+02  0.47000000000E+01 0.  1.
<mgrwt>
<rscale>  2 0.60124976E+01</rscale>
<asrwt>0</asrwt>
<pdfrwt beam="1">  1       21 0.16358429E-03 0.60124976E+01</pdfrwt>
<pdfrwt beam="2">  1       21 0.60586677E-02 0.60124976E+01</pdfrwt>
<totfact> 0.28478437E+09</totfact>
</mgrwt>
</event>
<event>
 4    1  0.3931501E+006  0.8116710E+01  0.7546771E-02  0.2201254E+00
         21   -1    0    0  503  502  0.00000000000E+00  0.00000000000E+00  0.48294931786E+01  0.48294931786E+01  0.00000000000E+00 0. -1.
         21   -1    0    0  501  503 -0.00000000000E+00 -0.00000000000E+00 -0.13973646765E+02  0.13973646765E+02  0.00000000000E+00 0.  1.
          5    1    1    2  501    0 -0.44350088890E+01  0.49113825597E+01 -0.60217989642E+01  0.10106584253E+02  0.47000000000E+01 0.  1.
         -5    1    1    2    0  502  0.44350088890E+01 -0.49113825597E+01 -0.31223546221E+01  0.86965556906E+01  0.47000000000E+01 0. -1.
<mgrwt>
<rscale>  2 0.81167101E+01</rscale>
<asrwt>0</asrwt>
<pdfrwt beam="1">  1       21 0.74299895E-03 0.81167101E+01</pdfrwt>
<pdfrwt beam="2">  1       21 0.21497918E-02 0.81167101E+01</pdfrwt>
<totfact> 0.20355488E+09</totfact>
</mgrwt>
</event>
<event>
 4    1  0.3931501E+006  0.1009931E+02  0.7546771E-02  0.2069379E+00
         21   -1    0    0  501  502  0.00000000000E+00  0.00000000000E+00  0.18707283213E+03  0.18707283213E+03  0.00000000000E+00 0. -1.
         21   -1    0    0  502  503 -0.00000000000E+00 -0.00000000000E+00 -0.57815792974E+00  0.57815792974E+00  0.00000000000E+00 0.  1.
          5    1    1    2  501    0  0.37074623322E+01  0.81339290254E+01  0.11564164820E+03  0.11608181114E+03  0.47000000000E+01 0. -1.
         -5    1    1    2    0  503 -0.37074623322E+01 -0.81339290254E+01  0.70853025994E+02  0.71569178916E+02  0.47000000000E+01 0.  1.
<mgrwt>
<rscale>  2 0.10099311E+02</rscale>
<asrwt>0</asrwt>
<pdfrwt beam="1">  1       21 0.28780388E-01 0.10099311E+02</pdfrwt>
<pdfrwt beam="2">  1       21 0.88947523E-04 0.10099311E+02</pdfrwt>
<totfact> 0.77272015E+08</totfact>
</mgrwt>
</event>
<event>
 4    1  0.3931501E+006  0.8912276E+01  0.7546771E-02  0.2142748E+00
         21   -1    0    0  503  502  0.00000000000E+00  0.00000000000E+00  0.33106035400E+02  0.33106035400E+02  0.00000000000E+00 0.  1.
         21   -1    0    0  501  503 -0.00000000000E+00 -0.00000000000E+00 -0.25847460881E+01  0.25847460881E+01  0.00000000000E+00 0.  1.
          5    1    1    2  501    0  0.39724539995E+01  0.64465701218E+01  0.10479633096E+02  0.13756866174E+02  0.47000000000E+01 0.  1.
         -5    1    1    2    0  502 -0.39724539995E+01 -0.64465701218E+01  0.20041656216E+02  0.21933915314E+02  0.47000000000E+01 0.  1.
<mgrwt>
<rscale>  2 0.89122756E+01</rscale>
<asrwt>0</asrwt>
<pdfrwt beam="1">  1       21 0.50932359E-02 0.89122756E+01</pdfrwt>
<pdfrwt beam="2">  1       21 0.39765327E-03 0.89122756E+01</pdfrwt>
<totfact> 0.14517801E+09</totfact>
</mgrwt>
</event>
<event>
 4    1  0.3931501E+006  0.5927964E+01  0.7546771E-02  0.2424895E+00
         21   -1    0    0  501  502  0.00000000000E+00  0.00000000000E+00  0.24921795079E+01  0.24921795079E+01  0.00000000000E+00 0.  1.
         21   -1    0    0  502  503 -0.00000000000E+00 -0.00000000000E+00 -0.17616451712E+02  0.17616451712E+02  0.00000000000E+00 0.  1.
          5    1    1    2  501    0 -0.30381979040E+01 -0.19545091923E+01 -0.30703371609E+01  0.66759061533E+01  0.47000000000E+01 0.  1.
         -5    1    1    2    0  503  0.30381979040E+01  0.19545091923E+01 -0.12053935043E+02  0.13432725067E+02  0.47000000000E+01 0.  1.
<mgrwt>
<rscale>  2 0.59279636E+01</rscale>
<asrwt>0</asrwt>
<pdfrwt beam="1">  1       21 0.38341224E-03 0.59279636E+01</pdfrwt>
<pdfrwt beam="2">  1       21 0.27102233E-02 0.59279636E+01</pdfrwt>
<totfact> 0.28631685E+09</totfact>
</mgrwt>
</event>
<event>
 4    1  0.3931501E+006  0.7056695E+01  0.7546771E-02  0.2295316E+00
         21   -1    0    0  501  502  0.00000000000E+00  0.00000000000E+00  0.63298212384E+03  0.63298212384E+03  0.00000000000E+00 0. -1.
         21   -1    0    0  502  503 -0.00000000000E+00 -0.00000000000E+00 -0.14123223356E+00  0.14123223356E+00  0.00000000000E+00 0. -1.
          5    1    1    2  501    0 -0.51520202417E+01 -0.10787200885E+01  0.52711155030E+03  0.52715878387E+03  0.47000000000E+01 0. -1.
         -5    1    1    2    0  503  0.51520202417E+01  0.10787200885E+01  0.10572934131E+03  0.10596457221E+03  0.47000000000E+01 0. -1.
<mgrwt>
<rscale>  2 0.70566954E+01</rscale>
<asrwt>0</asrwt>
<pdfrwt beam="1">  1       21 0.97379594E-01 0.70566954E+01</pdfrwt>
<pdfrwt beam="2">  1       21 0.21728543E-04 0.70566954E+01</pdfrwt>
<totfact> 0.43953031E+08</totfact>
</mgrwt>
</event>
<event>
 4    1  0.3931501E+006  0.5297634E+01  0.7546771E-02  0.2516916E+00
         21   -1    0    0  501  502  0.00000000000E+00  0.00000000000E+00  0.13158955363E+03  0.13158955363E+03  0.00000000000E+00 0. -1.
         21   -1    0    0  502  503 -0.00000000000E+00 -0.00000000000E+00 -0.21328030061E+00  0.21328030061E+00  0.00000000000E+00 0. -1.
          5    1    1    2  501    0 -0.21306209913E+01 -0.11980725966E+01  0.65400191155E+02  0.65614403349E+02  0.47000000000E+01 0. -1.
         -5    1    1    2    0  503  0.21306209913E+01  0.11980725966E+01  0.65976082179E+02  0.66188430586E+02  0.47000000000E+01 0. -1.
<mgrwt>
<rscale>  2 0.52976338E+01</rscale>
<asrwt>0</asrwt>
<pdfrwt beam="1">  1       21 0.20244482E-01 0.52976338E+01</pdfrwt>
<pdfrwt beam="2">  1       21 0.32812459E-04 0.52976338E+01</pdfrwt>
<totfact> 0.33978584E+09</totfact>
</mgrwt>
</event>
<event>
 4    1  0.3931501E+006  0.7567835E+01  0.7546771E-02  0.2247290E+00
         21   -1    0    0  501  502  0.00000000000E+00  0.00000000000E+00  0.17745395230E+00  0.17745395230E+00  0.00000000000E+00 0.  1.
         21   -1    0    0  502  503 -0.00000000000E+00 -0.00000000000E+00 -0.42435314872E+03  0.42435314872E+03  0.00000000000E+00 0.  1.
          5    1    1    2  501    0 -0.40659296022E+01 -0.43186046865E+01 -0.10821966727E+03  0.10848395509E+03  0.47000000000E+01 0.  1.
         -5    1    1    2    0  503  0.40659296022E+01  0.43186046865E+01 -0.31595602751E+03  0.31604664758E+03  0.47000000000E+01 0.  1.
<mgrwt>
<rscale>  2 0.75678352E+01</rscale>
<asrwt>0</asrwt>
<pdfrwt beam="1">  1       21 0.27300915E-04 0.75678352E+01</pdfrwt>
<pdfrwt beam="2">  1       21 0.65284365E-01 0.75678352E+01</pdfrwt>
<totfact> 0.74099207E+08</totfact>
</mgrwt>
</event>
<event>
 4    1  0.3931501E+006  0.4927125E+01  0.7546771E-02  0.2580246E+00
         21   -1    0    0  503  502  0.00000000000E+00  0.00000000000E+00  0.45581511013E+00  0.45581511013E+00  0.00000000000E+00 0. -1.
         21   -1    0    0  501  503 -0.00000000000E+00 -0.00000000000E+00 -0.42089453218E+03  0.42089453218E+03  0.00000000000E+00 0. -1.
          5    1    1    2  501    0 -0.12025212347E+01  0.86052314773E+00 -0.40711453142E+03  0.40714434572E+03  0.47000000000E+01 0. -1.
         -5    1    1    2    0  502  0.12025212347E+01 -0.86052314773E+00 -0.13324185646E+02  0.14206001568E+02  0.47000000000E+01 0. -1.
<mgrwt>
<rscale>  2 0.49271247E+01</rscale>
<asrwt>0</asrwt>
<pdfrwt beam="1">  1       21 0.70124956E-04 0.49271247E+01</pdfrwt>
<pdfrwt beam="2">  1       21 0.64753416E-01 0.49271247E+01</pdfrwt>
<totfact> 0.16023025E+08</totfact>
</mgrwt>
</event>
<event>
 4    1  0.3931501E+006  0.8376663E+01  0.7546771E-02  0.2181161E+00
         21   -1    0    0  503  502  0.00000000000E+00  0.00000000000E+00  0.12013767700E+02  0.12013767700E+02  0.00000000000E+00 0. -1.
         21   -1    0    0  501  503 -0.00000000000E+00 -0.00000000000E+00 -0.18018860551E+02  0.18018860551E+02  0.00000000000E+00 0.  1.
          5    1    1    2  501    0  0.16507234038E+01  0.67345077233E+01 -0.15347544355E+02  0.17484724755E+02  0.47000000000E+01 0.  1.
         -5    1    1    2    0  502 -0.16507234038E+01 -0.67345077233E+01  0.93424515045E+01  0.12547903496E+02  0.47000000000E+01 0. -1.
<mgrwt>
<rscale>  2 0.83766629E+01</rscale>
<asrwt>0</asrwt>
<pdfrwt beam="1">  1       21 0.18482720E-02 0.83766629E+01</pdfrwt>
<pdfrwt beam="2">  1       21 0.27721324E-02 0.83766629E+01</pdfrwt>
<totfact> 0.38341149E+08</totfact>
</mgrwt>
</event>
<event>
 4    1  0.3931501E+006  0.8349855E+01  0.7546771E-02  0.2183186E+00
         21   -1    0    0  501  502  0.00000000000E+00  0.00000000000E+00  0.10825331025E+03  0.10825331025E+03  0.00000000000E+00 0.  1.
         21   -1    0    0  502  503 -0.00000000000E+00 -0.00000000000E+00 -0.64405803458E+00  0.64405803458E+00  0.00000000000E+00 0.  1.
          5    1    1    2  501    0  0.57743820977E+01 -0.37797598042E+01  0.53565794871E+02  0.54212677973E+02  0.47000000000E+01 0.  1.
         -5    1    1    2    0  503 -0.57743820977E+01  0.37797598042E+01  0.54043457343E+02  0.54684690311E+02  0.47000000000E+01 0.  1.
<mgrwt>
<rscale>  2 0.83498547E+01</rscale>
<asrwt>0</asrwt>
<pdfrwt beam="1">  1       21 0.16654341E-01 0.83498547E+01</pdfrwt>
<pdfrwt beam="2">  1       21 0.99085938E-04 0.83498547E+01</pdfrwt>
<totfact> 0.14939721E+09</totfact>
</mgrwt>
</event>
<event>
 4    1  0.3931501E+006  0.4979472E+01  0.7546771E-02  0.2570808E+00
         21   -1    0    0  503  502  0.00000000000E+00  0.00000000000E+00  0.74204788494E+01  0.74204788494E+01  0.00000000000E+00 0.  1.
         21   -1    0    0  501  503 -0.00000000000E+00 -0.00000000000E+00 -0.49045506463E+01  0.49045506463E+01  0.00000000000E+00 0. -1.
          5    1    1    2  501    0 -0.11744501737E+01 -0.11514394160E+01 -0.22210170564E+01  0.54523446978E+01  0.47000000000E+01 0. -1.
         -5    1    1    2    0  502  0.11744501737E+01  0.11514394160E+01  0.47369452595E+01  0.68726847979E+01  0.47000000000E+01 0.  1.
<mgrwt>
<rscale>  2 0.49794725E+01</rscale>
<asrwt>0</asrwt>
<pdfrwt beam="1">  1       21 0.11416121E-02 0.49794725E+01</pdfrwt>
<pdfrwt beam="2">  1       21 0.75454625E-03 0.49794725E+01</pdfrwt>
<totfact> 0.32471188E+09</totfact>
</mgrwt>
</event>
<event>
 4    1  0.3931501E+006  0.7845741E+01  0.7546771E-02  0.2223330E+00
         21   -1    0    0  503  502  0.00000000000E+00  0.00000000000E+00  0.11122262696E+02  0.11122262696E+02  0.00000000000E+00 0. -1.
         21   -1    0    0  501  503 -0.00000000000E+00 -0.00000000000E+00 -0.55426957953E+01  0.55426957953E+01  0.00000000000E+00 0. -1.
          5    1    1    2  501    0 -0.19252534254E+01  0.59798875722E+01  0.24684816817E+01  0.82249047375E+01  0.47000000000E+01 0. -1.
         -5    1    1    2    0  502  0.19252534254E+01 -0.59798875722E+01  0.31110852191E+01  0.84400537539E+01  0.47000000000E+01 0. -1.
<mgrwt>
<rscale>  2 0.78457413E+01</rscale>
<asrwt>0</asrwt>
<pdfrwt beam="1">  1       21 0.17111173E-02 0.78457413E+01</pdfrwt>
<pdfrwt beam="2">  1       21 0.85272244E-03 0.78457413E+01</pdfrwt>
<totfact> 0.22780544E+09</totfact>
</mgrwt>
</event>
<event>
 4    1  0.3931501E+006  0.5602654E+01  0.7546771E-02  0.2470198E+00
         21   -1    0    0  503  502  0.00000000000E+00  0.00000000000E+00  0.15137550515E+01  0.15137550515E+01  0.00000000000E+00 0. -1.
         21   -1    0    0  501  503 -0.00000000000E+00 -0.00000000000E+00 -0.38168130017E+02  0.38168130017E+02  0.00000000000E+00 0. -1.
          5    1    1    2  501    0 -0.27687330536E+01 -0.12782224396E+01 -0.49186044913E+01  0.74553608544E+01  0.47000000000E+01 0. -1.
         -5    1    1    2    0  502  0.27687330536E+01  0.12782224396E+01 -0.31735770474E+02  0.32226524214E+02  0.47000000000E+01 0. -1.
<mgrwt>
<rscale>  2 0.56026543E+01</rscale>
<asrwt>0</asrwt>
<pdfrwt beam="1">  1       21 0.23288539E-03 0.56026543E+01</pdfrwt>
<pdfrwt beam="2">  1       21 0.58720200E-02 0.56026543E+01</pdfrwt>
<totfact> 0.17374644E+09</totfact>
</mgrwt>
</event>
<event>
 4    1  0.3931501E+006  0.6278852E+01  0.7546771E-02  0.2380485E+00
         21   -1    0    0  501  502  0.00000000000E+00  0.00000000000E+00  0.16279767402E+02  0.16279767402E+02  0.00000000000E+00 0.  1.
         21   -1    0    0  502  503 -0.00000000000E+00 -0.00000000000E+00 -0.24590043790E+01  0.24590043790E+01  0.00000000000E+00 0.  1.
          5    1    1    2  501    0  0.13597492484E+01  0.39351064651E+01  0.80650914103E+01  0.10221041061E+02  0.47000000000E+01 0.  1.
         -5    1    1    2    0  503 -0.13597492484E+01 -0.39351064651E+01  0.57556716128E+01  0.85177307203E+01  0.47000000000E+01 0.  1.
<mgrwt>
<rscale>  2 0.62788519E+01</rscale>
<asrwt>0</asrwt>
<pdfrwt beam="1">  1       21 0.25045795E-02 0.62788519E+01</pdfrwt>
<pdfrwt beam="2">  1       21 0.37830838E-03 0.62788519E+01</pdfrwt>
<totfact> 0.34395721E+09</totfact>
</mgrwt>
</event>
<event>
 4    1  0.3931501E+006  0.9894941E+01  0.7546771E-02  0.2081016E+00
         21   -1    0    0  501  502  0.00000000000E+00  0.00000000000E+00  0.29129372463E+01  0.29129372463E+01  0.00000000000E+00 0. -1.
         21   -1    0    0  502  503 -0.00000000000E+00 -0.00000000000E+00 -0.40602181862E+02  0.40602181862E+02  0.00000000000E+00 0.  1.
          5    1    1    2  501    0 -0.65226569039E+01 -0.57684320937E+01 -0.98169156792E+01  0.13938496883E+02  0.47000000000E+01 0. -1.
         -5    1    1    2    0  503  0.65226569039E+01  0.57684320937E+01 -0.27872328936E+02  0.29576622225E+02  0.47000000000E+01 0.  1.
<mgrwt>
<rscale>  2 0.98949412E+01</rscale>
<asrwt>0</asrwt>
<pdfrwt beam="1">  1       21 0.44814419E-03 0.98949412E+01</pdfrwt>
<pdfrwt beam="2">  1       21 0.62464895E-02 0.98949412E+01</pdfrwt>
<totfact> 0.95513474E+08</totfact>
</mgrwt>
</event>
<event>
 4    1  0.3931501E+006  0.5311450E+01  0.7546771E-02  0.2514701E+00
         21   -1    0    0  501  502  0.00000000000E+00  0.00000000000E+00  0.44289060341E+02  0.44289060341E+02  0.00000000000E+00 0.  1.
         21   -1    0    0  502  503 -0.00000000000E+00 -0.00000000000E+00 -0.76779092668E+00  0.76779092668E+00  0.00000000000E+00 0.  1.
          5    1    1    2  501    0  0.12131563047E+01 -0.21563281868E+01  0.31059326489E+02  0.31510208845E+02  0.47000000000E+01 0.  1.
         -5    1    1    2    0  503 -0.12131563047E+01  0.21563281868E+01  0.12461942925E+02  0.13546642423E+02  0.47000000000E+01 0.  1.
<mgrwt>
<rscale>  2 0.53114498E+01</rscale>
<asrwt>0</asrwt>
<pdfrwt beam="1">  1       21 0.68136996E-02 0.53114498E+01</pdfrwt>
<pdfrwt beam="2">  1       21 0.11812172E-03 0.53114498E+01</pdfrwt>
<totfact> 0.33105361E+09</totfact>
</mgrwt>
</event>
<event>
 4    1  0.3931501E+006  0.1004981E+02  0.7546771E-02  0.2072164E+00
         21   -1    0    0  503  502  0.00000000000E+00  0.00000000000E+00  0.38786872082E+00  0.38786872082E+00  0.00000000000E+00 0.  1.
         21   -1    0    0  501  503 -0.00000000000E+00 -0.00000000000E+00 -0.51425486079E+03  0.51425486079E+03  0.00000000000E+00 0. -1.
          5    1    1    2  501    0 -0.88578942262E+01 -0.66808965978E+00 -0.43772775526E+03  0.43784310701E+03  0.47000000000E+01 0. -1.
         -5    1    1    2    0  502  0.88578942262E+01  0.66808965978E+00 -0.76139236813E+02  0.76799622502E+02  0.47000000000E+01 0.  1.
<mgrwt>
<rscale>  2 0.10049808E+02</rscale>
<asrwt>0</asrwt>
<pdfrwt beam="1">  1       21 0.59672014E-04 0.10049808E+02</pdfrwt>
<pdfrwt beam="2">  1       21 0.79116261E-01 0.10049808E+02</pdfrwt>
<totfact> 0.20371573E+08</totfact>
</mgrwt>
</event>
<event>
 4    1  0.3931501E+006  0.8104327E+01  0.7546771E-02  0.2202236E+00
         21   -1    0    0  501  502  0.00000000000E+00  0.00000000000E+00  0.65946355513E+01  0.65946355513E+01  0.00000000000E+00 0. -1.
         21   -1    0    0  502  503 -0.00000000000E+00 -0.00000000000E+00 -0.24436760134E+02  0.24436760134E+02  0.00000000000E+00 0. -1.
          5    1    1    2  501    0 -0.11318337512E+01  0.65045418794E+01  0.30213147676E+01  0.86491881484E+01  0.47000000000E+01 0. -1.
         -5    1    1    2    0  503  0.11318337512E+01 -0.65045418794E+01 -0.20863439350E+02  0.22382207537E+02  0.47000000000E+01 0. -1.
<mgrwt>
<rscale>  2 0.81043268E+01</rscale>
<asrwt>0</asrwt>
<pdfrwt beam="1">  1       21 0.10145593E-02 0.81043268E+01</pdfrwt>
<pdfrwt beam="2">  1       21 0.37595015E-02 0.81043268E+01</pdfrwt>
<totfact> 0.56948383E+08</totfact>
</mgrwt>
</event>
<event>
 4    1  0.3931501E+006  0.5556946E+01  0.7546771E-02  0.2476921E+00
         21   -1    0    0  501  502  0.00000000000E+00  0.00000000000E+00  0.70639189160E+01  0.70639189160E+01  0.00000000000E+00 0.  1.
         21   -1    0    0  502  503 -0.00000000000E+00 -0.00000000000E+00 -0.96044614960E+01  0.96044614960E+01  0.00000000000E+00 0.  1.
          5    1    1    2  501    0  0.29436560664E+01  0.35290548681E+00  0.48815292120E+01  0.73965519512E+01  0.47000000000E+01 0.  1.
         -5    1    1    2    0  503 -0.29436560664E+01 -0.35290548681E+00 -0.74220717920E+01  0.92718284607E+01  0.47000000000E+01 0.  1.
<mgrwt>
<rscale>  2 0.55569464E+01</rscale>
<asrwt>0</asrwt>
<pdfrwt beam="1">  1       21 0.10867568E-02 0.55569464E+01</pdfrwt>
<pdfrwt beam="2">  1       21 0.14776095E-02 0.55569464E+01</pdfrwt>
<totfact> 0.15097079E+09</totfact>
</mgrwt>
</event>
<event>
 4    1  0.3931501E+006  0.6335966E+01  0.7546771E-02  0.2373646E+00
         21   -1    0    0  501  502  0.00000000000E+00  0.00000000000E+00  0.36613307496E+00  0.36613307496E+00  0.00000000000E+00 0. -1.
         21   -1    0    0  502  503 -0.00000000000E+00 -0.00000000000E+00 -0.15218547094E+03  0.15218547094E+03  0.00000000000E+00 0.  1.
          5    1    1    2  501    0 -0.26343859052E+01 -0.33338377737E+01 -0.35581910024E+02  0.36141621219E+02  0.47000000000E+01 0. -1.
         -5    1    1    2    0  503  0.26343859052E+01  0.33338377737E+01 -0.11623742785E+03  0.11640998280E+03  0.47000000000E+01 0.  1.
<mgrwt>
<rscale>  2 0.63359659E+01</rscale>
<asrwt>0</asrwt>
<pdfrwt beam="1">  1       21 0.56328100E-04 0.63359659E+01</pdfrwt>
<pdfrwt beam="2">  1       21 0.23413176E-01 0.63359659E+01</pdfrwt>
<totfact> 0.15151808E+09</totfact>
</mgrwt>
</event>
<event>
 4    1  0.3931501E+006  0.5462223E+01  0.7546771E-02  0.2491156E+00
         21   -1    0    0  503  502  0.00000000000E+00  0.00000000000E+00  0.80182011372E+03  0.80182011372E+03  0.00000000000E+00 0. -1.
         21   -1    0    0  501  503 -0.00000000000E+00 -0.00000000000E+00 -0.60259898156E-01  0.60259898156E-01  0.00000000000E+00 0.  1.
          5    1    1    2  501    0 -0.11203632584E+01  0.25476782946E+01  0.15291051607E+03  0.15300804490E+03  0.47000000000E+01 0.  1.
         -5    1    1    2    0  502  0.11203632584E+01 -0.25476782946E+01  0.64884933775E+03  0.64887232872E+03  0.47000000000E+01 0. -1.
<mgrwt>
<rscale>  2 0.54622229E+01</rscale>
<asrwt>0</asrwt>
<pdfrwt beam="1">  1       21 0.12334840E+00 0.54622229E+01</pdfrwt>
<pdfrwt beam="2">  1       21 0.92713957E-05 0.54622229E+01</pdfrwt>
<totfact> 0.71336612E+08</totfact>
</mgrwt>
</event>
<event>
 4    1  0.3931501E+006  0.5911102E+01  0.7546771E-02  0.2427139E+00
         21   -1    0    0  503  502  0.00000000000E+00  0.00000000000E+00  0.11989599755E+03  0.11989599755E+03  0.00000000000E+00 0. -1.
         21   -1    0    0  501  503 -0.00000000000E+00 -0.00000000000E+00 -0.97134887499E+00  0.97134887499E+00  0.00000000000E+00 0. -1.
          5    1    1    2  501    0 -0.26970593901E+01 -0.23615668521E+01  0.89007771783E+01  0.10684800500E+02  0.47000000000E+01 0. -1.
         -5    1    1    2    0  502  0.26970593901E+01  0.23615668521E+01  0.11002387150E+03  0.11018254593E+03  0.47000000000E+01 0. -1.
<mgrwt>
<rscale>  2 0.59111020E+01</rscale>
<asrwt>0</asrwt>
<pdfrwt beam="1">  1       21 0.18445526E-01 0.59111020E+01</pdfrwt>
<pdfrwt beam="2">  1       21 0.14943838E-03 0.59111020E+01</pdfrwt>
<totfact> 0.57005622E+08</totfact>
</mgrwt>
</event>
<event>
 4    1  0.3931501E+006  0.7264242E+01  0.7546771E-02  0.2275151E+00
         21   -1    0    0  501  502  0.00000000000E+00  0.00000000000E+00  0.16136431658E+01  0.16136431658E+01  0.00000000000E+00 0. -1.
         21   -1    0    0  502  503 -0.00000000000E+00 -0.00000000000E+00 -0.35638236859E+02  0.35638236859E+02  0.00000000000E+00 0.  1.
          5    1    1    2  501    0  0.16667879011E+01  0.52821424298E+01 -0.11665884730E+02  0.13742709962E+02  0.47000000000E+01 0.  1.
         -5    1    1    2    0  503 -0.16667879011E+01 -0.52821424298E+01 -0.22358708963E+02  0.23509170063E+02  0.47000000000E+01 0.  1.
<mgrwt>
<rscale>  2 0.72642419E+01</rscale>
<asrwt>0</asrwt>
<pdfrwt beam="1">  1       21 0.24825282E-03 0.72642419E+01</pdfrwt>
<pdfrwt beam="2">  1       21 0.54828052E-02 0.72642419E+01</pdfrwt>
<totfact> 0.21765794E+09</totfact>
</mgrwt>
</event>
<event>
 4    1  0.3931501E+006  0.4854668E+01  0.7546771E-02  0.2593600E+00
         21   -1    0    0  501  502  0.00000000000E+00  0.00000000000E+00  0.33914118661E+01  0.33914118661E+01  0.00000000000E+00 0. -1.
         21   -1    0    0  502  503 -0.00000000000E+00 -0.00000000000E+00 -0.82110904670E+01  0.82110904670E+01  0.00000000000E+00 0. -1.
          5    1    1    2  501    0 -0.98208947599E+00  0.71644743541E+00 -0.13567379780E+00  0.48565629869E+01  0.47000000000E+01 0. -1.
         -5    1    1    2    0  503  0.98208947599E+00 -0.71644743541E+00 -0.46840048031E+01  0.67459393462E+01  0.47000000000E+01 0. -1.
<mgrwt>
<rscale>  2 0.48546675E+01</rscale>
<asrwt>0</asrwt>
<pdfrwt beam="1">  1       21 0.52175568E-03 0.48546675E+01</pdfrwt>
<pdfrwt beam="2">  1       21 0.12632447E-02 0.48546675E+01</pdfrwt>
<totfact> 0.45627546E+09</totfact>
</mgrwt>
</event>
<event>
 4    1  0.3931501E+006  0.6323368E+01  0.7546771E-02  0.2375145E+00
         21   -1    0    0  501  502  0.00000000000E+00  0.00000000000E+00  0.41851309931E+03  0.41851309931E+03  0.00000000000E+00 0.  1.
         21   -1    0    0  502  503 -0.00000000000E+00 -0.00000000000E+00 -0.39152569892E+00  0.39152569892E+00  0.00000000000E+00 0.  1.
          5    1    1    2  501    0 -0.36202618068E+01  0.21883063329E+01  0.39117337578E+03  0.39122448146E+03  0.47000000000E+01 0.  1.
         -5    1    1    2    0  503  0.36202618068E+01 -0.21883063329E+01  0.26948197838E+02  0.27680143548E+02  0.47000000000E+01 0.  1.
<mgrwt>
<rscale>  2 0.63233678E+01</rscale>
<asrwt>0</asrwt>
<pdfrwt beam="1">  1       21 0.64386273E-01 0.63233678E+01</pdfrwt>
<pdfrwt beam="2">  1       21 0.60235058E-04 0.63233678E+01</pdfrwt>
<totfact> 0.23514929E+08</totfact>
</mgrwt>
</event>
<event>
 4    1  0.3931501E+006  0.6171493E+01  0.7546771E-02  0.2393624E+00
         21   -1    0    0  501  502  0.00000000000E+00  0.00000000000E+00  0.93449107372E+01  0.93449107372E+01  0.00000000000E+00 0. -1.
         21   -1    0    0  502  503 -0.00000000000E+00 -0.00000000000E+00 -0.33317790767E+02  0.33317790767E+02  0.00000000000E+00 0.  1.
          5    1    1    2  501    0  0.39984260661E+01  0.99596232217E-01  0.79976440686E+01  0.10101962238E+02  0.47000000000E+01 0. -1.
         -5    1    1    2    0  503 -0.39984260661E+01 -0.99596232217E-01 -0.31970524098E+02  0.32560739266E+02  0.47000000000E+01 0.  1.
<mgrwt>
<rscale>  2 0.61714934E+01</rscale>
<asrwt>0</asrwt>
<pdfrwt beam="1">  1       21 0.14376786E-02 0.61714934E+01</pdfrwt>
<pdfrwt beam="2">  1       21 0.51258139E-02 0.61714934E+01</pdfrwt>
<totfact> 0.18187816E+08</totfact>
</mgrwt>
</event>
<event>
 4    1  0.3931501E+006  0.1297676E+02  0.7546771E-02  0.1936921E+00
         21   -1    0    0  503  502  0.00000000000E+00  0.00000000000E+00  0.93718641387E+01  0.93718641387E+01  0.00000000000E+00 0. -1.
         21   -1    0    0  501  503 -0.00000000000E+00 -0.00000000000E+00 -0.23231473856E+02  0.23231473856E+02  0.00000000000E+00 0.  1.
          5    1    1    2  501    0  0.44359779668E+01 -0.11252926640E+02 -0.14689031945E+02  0.19600099948E+02  0.47000000000E+01 0.  1.
         -5    1    1    2    0  502 -0.44359779668E+01  0.11252926640E+02  0.82942222694E+00  0.13003238047E+02  0.47000000000E+01 0. -1.
<mgrwt>
<rscale>  2 0.12976758E+02</rscale>
<asrwt>0</asrwt>
<pdfrwt beam="1">  1       21 0.14418253E-02 0.12976758E+02</pdfrwt>
<pdfrwt beam="2">  1       21 0.35740729E-02 0.12976758E+02</pdfrwt>
<totfact> 0.47575778E+08</totfact>
</mgrwt>
</event>
<event>
 4    1  0.3931501E+006  0.7688894E+01  0.7546771E-02  0.2236680E+00
         21   -1    0    0  501  502  0.00000000000E+00  0.00000000000E+00  0.26964313620E+01  0.26964313620E+01  0.00000000000E+00 0. -1.
         21   -1    0    0  502  503 -0.00000000000E+00 -0.00000000000E+00 -0.22333255020E+02  0.22333255020E+02  0.00000000000E+00 0. -1.
          5    1    1    2  501    0  0.58729101426E+01 -0.15931161005E+01 -0.81262272110E+01  0.11187254406E+02  0.47000000000E+01 0. -1.
         -5    1    1    2    0  503 -0.58729101426E+01  0.15931161005E+01 -0.11510596447E+02  0.13842431976E+02  0.47000000000E+01 0. -1.
<mgrwt>
<rscale>  2 0.76888941E+01</rscale>
<asrwt>0</asrwt>
<pdfrwt beam="1">  1       21 0.41483559E-03 0.76888941E+01</pdfrwt>
<pdfrwt beam="2">  1       21 0.34358855E-02 0.76888941E+01</pdfrwt>
<totfact> 0.22349129E+09</totfact>
</mgrwt>
</event>
<event>
 4    1  0.3931501E+006  0.4729783E+01  0.7546771E-02  0.2617445E+00
         21   -1    0    0  501  502  0.00000000000E+00  0.00000000000E+00  0.12581504660E+00  0.12581504660E+00  0.00000000000E+00 0.  1.
         21   -1    0    0  502  503 -0.00000000000E+00 -0.00000000000E+00 -0.49910855615E+03  0.49910855615E+03  0.00000000000E+00 0.  1.
          5    1    1    2  501    0  0.36670584676E+00 -0.38258899704E+00 -0.49213432052E+02  0.49440193587E+02  0.47000000000E+01 0.  1.
         -5    1    1    2    0  503 -0.36670584676E+00  0.38258899704E+00 -0.44976930905E+03  0.44979417760E+03  0.47000000000E+01 0.  1.
<mgrwt>
<rscale>  2 0.47297830E+01</rscale>
<asrwt>0</asrwt>
<pdfrwt beam="1">  1       21 0.19355985E-04 0.47297830E+01</pdfrwt>
<pdfrwt beam="2">  1       21 0.76786630E-01 0.47297830E+01</pdfrwt>
<totfact> 0.61854863E+08</totfact>
</mgrwt>
</event>
<event>
 4    1  0.3931501E+006  0.4711195E+01  0.7546771E-02  0.2621088E+00
         21   -1    0    0  503  502  0.00000000000E+00  0.00000000000E+00  0.13249938918E+03  0.13249938918E+03  0.00000000000E+00 0.  1.
         21   -1    0    0  501  503 -0.00000000000E+00 -0.00000000000E+00 -0.20330719940E+00  0.20330719940E+00  0.00000000000E+00 0.  1.
          5    1    1    2  501    0  0.12755854325E+00 -0.29847321903E+00  0.38307332540E+02  0.38595946468E+02  0.47000000000E+01 0. -1.
         -5    1    1    2    0  502 -0.12755854325E+00  0.29847321903E+00  0.93988749437E+02  0.94106749907E+02  0.47000000000E+01 0. -1.
<mgrwt>
<rscale>  2 0.47111949E+01</rscale>
<asrwt>0</asrwt>
<pdfrwt beam="1">  1       21 0.20384452E-01 0.47111949E+01</pdfrwt>
<pdfrwt beam="2">  1       21 0.31278136E-04 0.47111949E+01</pdfrwt>
<totfact> 0.31980502E+09</totfact>
</mgrwt>
</event>
<event>
 4    1  0.3931501E+006  0.7368918E+01  0.7546771E-02  0.2265334E+00
         21   -1    0    0  501  502  0.00000000000E+00  0.00000000000E+00  0.28648804686E+01  0.28648804686E+01  0.00000000000E+00 0. -1.
         21   -1    0    0  502  503 -0.00000000000E+00 -0.00000000000E+00 -0.36109180911E+02  0.36109180911E+02  0.00000000000E+00 0.  1.
          5    1    1    2  501    0  0.18490416978E+01  0.53658180485E+01 -0.31903433319E+01  0.80298972039E+01  0.47000000000E+01 0. -1.
         -5    1    1    2    0  503 -0.18490416978E+01 -0.53658180485E+01 -0.30053957111E+02  0.30944164176E+02  0.47000000000E+01 0.  1.
<mgrwt>
<rscale>  2 0.73689184E+01</rscale>
<asrwt>0</asrwt>
<pdfrwt beam="1">  1       21 0.44075083E-03 0.73689184E+01</pdfrwt>
<pdfrwt beam="2">  1       21 0.55552587E-02 0.73689184E+01</pdfrwt>
<totfact> 0.96979782E+08</totfact>
</mgrwt>
</event>
<event>
 4    1  0.3931501E+006  0.5072774E+01  0.7546771E-02  0.2554404E+00
         21   -1    0    0  501  502  0.00000000000E+00  0.00000000000E+00  0.27698503599E+01  0.27698503599E+01  0.00000000000E+00 0. -1.
         21   -1    0    0  502  503 -0.00000000000E+00 -0.00000000000E+00 -0.10374368171E+02  0.10374368171E+02  0.00000000000E+00 0. -1.
          5    1    1    2  501    0 -0.18238183433E+01  0.56277820869E+00 -0.59266336812E+01  0.78011550076E+01  0.47000000000E+01 0. -1.
         -5    1    1    2    0  503  0.18238183433E+01 -0.56277820869E+00 -0.16778841301E+01  0.53430635235E+01  0.47000000000E+01 0. -1.
<mgrwt>
<rscale>  2 0.50727737E+01</rscale>
<asrwt>0</asrwt>
<pdfrwt beam="1">  1       21 0.42613082E-03 0.50727737E+01</pdfrwt>
<pdfrwt beam="2">  1       21 0.15960567E-02 0.50727737E+01</pdfrwt>
<totfact> 0.45429529E+09</totfact>
</mgrwt>
</event>
<event>
 4    1  0.3931501E+006  0.5415297E+01  0.7546771E-02  0.2498365E+00
         21   -1    0    0  501  502  0.00000000000E+00  0.00000000000E+00  0.60740483538E+00  0.60740483538E+00  0.00000000000E+00 0.  1.
         21   -1    0    0  502  503 -0.00000000000E+00 -0.00000000000E+00 -0.63429793422E+02  0.63429793422E+02  0.00000000000E+00 0. -1.
          5    1    1    2  501    0 -0.68607583247E-01  0.26890018121E+01 -0.47059258936E+02  0.47369814116E+02  0.47000000000E+01 0. -1.
         -5    1    1    2    0  503  0.68607583247E-01 -0.26890018121E+01 -0.15763129650E+02  0.16667384142E+02  0.47000000000E+01 0.  1.
<mgrwt>
<rscale>  2 0.54152966E+01</rscale>
<asrwt>0</asrwt>
<pdfrwt beam="1">  1       21 0.93446877E-04 0.54152966E+01</pdfrwt>
<pdfrwt beam="2">  1       21 0.97584319E-02 0.54152966E+01</pdfrwt>
<totfact> 0.26864741E+09</totfact>
</mgrwt>
</event>
<event>
 4    1  0.3931501E+006  0.5863779E+01  0.7546771E-02  0.2433497E+00
         21   -1    0    0  503  502  0.00000000000E+00  0.00000000000E+00  0.63753019122E+03  0.63753019122E+03  0.00000000000E+00 0.  1.
         21   -1    0    0  501  503 -0.00000000000E+00 -0.00000000000E+00 -0.39575545086E+00  0.39575545086E+00  0.00000000000E+00 0. -1.
          5    1    1    2  501    0 -0.27486473090E+00 -0.34954764557E+01  0.22133828403E+02  0.22897385572E+02  0.47000000000E+01 0. -1.
         -5    1    1    2    0  502  0.27486473090E+00  0.34954764557E+01  0.61500060737E+03  0.61502856110E+03  0.47000000000E+01 0.  1.
<mgrwt>
<rscale>  2 0.58637792E+01</rscale>
<asrwt>0</asrwt>
<pdfrwt beam="1">  1       21 0.98080746E-01 0.58637792E+01</pdfrwt>
<pdfrwt beam="2">  1       21 0.60885964E-04 0.58637792E+01</pdfrwt>
<totfact> 0.97629227E+07</totfact>
</mgrwt>
</event>
<event>
 4    1  0.3931501E+006  0.9520643E+01  0.7546771E-02  0.2103341E+00
         21   -1    0    0  503  502  0.00000000000E+00  0.00000000000E+00  0.23172038971E+01  0.23172038971E+01  0.00000000000E+00 0. -1.
         21   -1    0    0  501  503 -0.00000000000E+00 -0.00000000000E+00 -0.12148170756E+03  0.12148170756E+03  0.00000000000E+00 0.  1.
          5    1    1    2  501    0 -0.72100259968E+01  0.40704011731E+01 -0.11055068838E+03  0.11095989069E+03  0.47000000000E+01 0.  1.
         -5    1    1    2    0  502  0.72100259968E+01 -0.40704011731E+01 -0.86138152886E+01  0.12839020773E+02  0.47000000000E+01 0. -1.
<mgrwt>
<rscale>  2 0.95206429E+01</rscale>
<asrwt>0</asrwt>
<pdfrwt beam="1">  1       21 0.35649291E-03 0.95206429E+01</pdfrwt>
<pdfrwt beam="2">  1       21 0.18689493E-01 0.95206429E+01</pdfrwt>
<totfact> 0.22514693E+08</totfact>
</mgrwt>
</event>
<event>
 4    1  0.3931501E+006  0.7028806E+01  0.7546771E-02  0.2298099E+00
         21   -1    0    0  503  502  0.00000000000E+00  0.00000000000E+00  0.17277539410E+03  0.17277539410E+03  0.00000000000E+00 0.  1.
         21   -1    0    0  501  503 -0.00000000000E+00 -0.00000000000E+00 -0.80079349491E+00  0.80079349491E+00  0.00000000000E+00 0. -1.
          5    1    1    2  501    0  0.48976093859E+00  0.52032919280E+01  0.16398401367E+02  0.17841291435E+02  0.47000000000E+01 0. -1.
         -5    1    1    2    0  502 -0.48976093859E+00 -0.52032919280E+01  0.15557619924E+03  0.15573489616E+03  0.47000000000E+01 0.  1.
<mgrwt>
<rscale>  2 0.70288059E+01</rscale>
<asrwt>0</asrwt>
<pdfrwt beam="1">  1       21 0.26580800E-01 0.70288059E+01</pdfrwt>
<pdfrwt beam="2">  1       21 0.12319914E-03 0.70288059E+01</pdfrwt>
<totfact> 0.45882301E+08</totfact>
</mgrwt>
</event>
<event>
 4    1  0.3931501E+006  0.5040340E+01  0.7546771E-02  0.2560047E+00
         21   -1    0    0  503  502  0.00000000000E+00  0.00000000000E+00  0.10217331689E+02  0.10217331689E+02  0.00000000000E+00 0.  1.
         21   -1    0    0  501  503 -0.00000000000E+00 -0.00000000000E+00 -0.25272078916E+01  0.25272078916E+01  0.00000000000E+00 0.  1.
          5    1    1    2  501    0 -0.15741904184E+01  0.91485037600E+00  0.46541676887E+01  0.68604885801E+01  0.47000000000E+01 0.  1.
         -5    1    1    2    0  502  0.15741904184E+01 -0.91485037600E+00  0.30359561091E+01  0.58840510008E+01  0.47000000000E+01 0.  1.
<mgrwt>
<rscale>  2 0.50403399E+01</rscale>
<asrwt>0</asrwt>
<pdfrwt beam="1">  1       21 0.15718972E-02 0.50403399E+01</pdfrwt>
<pdfrwt beam="2">  1       21 0.38880122E-03 0.50403399E+01</pdfrwt>
<totfact> 0.52266429E+09</totfact>
</mgrwt>
</event>
<event>
 4    1  0.3931501E+006  0.4827096E+01  0.7546771E-02  0.2598772E+00
         21   -1    0    0  503  502  0.00000000000E+00  0.00000000000E+00  0.14369592266E+02  0.14369592266E+02  0.00000000000E+00 0.  1.
         21   -1    0    0  501  503 -0.00000000000E+00 -0.00000000000E+00 -0.18510540228E+01  0.18510540228E+01  0.00000000000E+00 0.  1.
          5    1    1    2  501    0 -0.81892220269E+00  0.73499838287E+00  0.34034279947E+01  0.59062829522E+01  0.47000000000E+01 0.  1.
         -5    1    1    2    0  502  0.81892220269E+00 -0.73499838287E+00  0.91151102490E+01  0.10314363337E+02  0.47000000000E+01 0.  1.
<mgrwt>
<rscale>  2 0.48270960E+01</rscale>
<asrwt>0</asrwt>
<pdfrwt beam="1">  1       21 0.22107064E-02 0.48270960E+01</pdfrwt>
<pdfrwt beam="2">  1       21 0.28477755E-03 0.48270960E+01</pdfrwt>
<totfact> 0.47052143E+09</totfact>
</mgrwt>
</event>
<event>
 4    1  0.3931501E+006  0.5597489E+01  0.7546771E-02  0.2470953E+00
         21   -1    0    0  503  502  0.00000000000E+00  0.00000000000E+00  0.12312851685E+01  0.12312851685E+01  0.00000000000E+00 0.  1.
         21   -1    0    0  501  503 -0.00000000000E+00 -0.00000000000E+00 -0.26901272978E+02  0.26901272978E+02  0.00000000000E+00 0.  1.
          5    1    1    2  501    0  0.43905247554E+00 -0.30081755804E+01 -0.16106078053E+02  0.17051030398E+02  0.47000000000E+01 0.  1.
         -5    1    1    2    0  502 -0.43905247554E+00  0.30081755804E+01 -0.95639097566E+01  0.11081527748E+02  0.47000000000E+01 0.  1.
<mgrwt>
<rscale>  2 0.55974894E+01</rscale>
<asrwt>0</asrwt>
<pdfrwt beam="1">  1       21 0.18942847E-03 0.55974894E+01</pdfrwt>
<pdfrwt beam="2">  1       21 0.41386577E-02 0.55974894E+01</pdfrwt>
<totfact> 0.38476134E+09</totfact>
</mgrwt>
</event>
<event>
 4    1  0.3931501E+006  0.5277970E+01  0.7546771E-02  0.2520085E+00
         21   -1    0    0  501  502  0.00000000000E+00  0.00000000000E+00  0.20487695176E+02  0.20487695176E+02  0.00000000000E+00 0. -1.
         21   -1    0    0  502  503 -0.00000000000E+00 -0.00000000000E+00 -0.15023589208E+01  0.15023589208E+01  0.00000000000E+00 0.  1.
          5    1    1    2  501    0  0.10571243105E+01  0.21562597798E+01  0.12880876753E+02  0.13920271333E+02  0.47000000000E+01 0. -1.
         -5    1    1    2    0  503 -0.10571243105E+01 -0.21562597798E+01  0.61044595017E+01  0.80697827638E+01  0.47000000000E+01 0. -1.
<mgrwt>
<rscale>  2 0.52779701E+01</rscale>
<asrwt>0</asrwt>
<pdfrwt beam="1">  1       21 0.31519529E-02 0.52779701E+01</pdfrwt>
<pdfrwt beam="2">  1       21 0.23113216E-03 0.52779701E+01</pdfrwt>
<totfact> 0.41248612E+09</totfact>
</mgrwt>
</event>
<event>
 4    1  0.3931501E+006  0.5277827E+01  0.7546771E-02  0.2520108E+00
         21   -1    0    0  503  502  0.00000000000E+00  0.00000000000E+00  0.40357477412E+01  0.40357477412E+01  0.00000000000E+00 0. -1.
         21   -1    0    0  501  503 -0.00000000000E+00 -0.00000000000E+00 -0.32504971677E+03  0.32504971677E+03  0.00000000000E+00 0. -1.
          5    1    1    2  501    0  0.14123242042E+01  0.19418549269E+01 -0.32329337392E+03  0.32333645183E+03  0.47000000000E+01 0. -1.
         -5    1    1    2    0  502 -0.14123242042E+01 -0.19418549269E+01  0.22794048886E+01  0.57490126857E+01  0.47000000000E+01 0. -1.
<mgrwt>
<rscale>  2 0.52778272E+01</rscale>
<asrwt>0</asrwt>
<pdfrwt beam="1">  1       21 0.62088405E-03 0.52778272E+01</pdfrwt>
<pdfrwt beam="2">  1       21 0.50007666E-01 0.52778272E+01</pdfrwt>
<totfact> 0.14098192E+07</totfact>
</mgrwt>
</event>
<event>
 4    1  0.3931501E+006  0.5873779E+01  0.7546771E-02  0.2432147E+00
         21   -1    0    0  503  502  0.00000000000E+00  0.00000000000E+00  0.86575611435E+03  0.86575611435E+03  0.00000000000E+00 0.  1.
         21   -1    0    0  501  503 -0.00000000000E+00 -0.00000000000E+00 -0.44206154722E-01  0.44206154722E-01  0.00000000000E+00 0. -1.
          5    1    1    2  501    0 -0.34924571310E+01 -0.46262910093E+00  0.29697890023E+03  0.29703698164E+03  0.47000000000E+01 0.  1.
         -5    1    1    2    0  502  0.34924571310E+01  0.46262910093E+00  0.56873300797E+03  0.56876333886E+03  0.47000000000E+01 0.  1.
<mgrwt>
<rscale>  2 0.58737792E+01</rscale>
<asrwt>0</asrwt>
<pdfrwt beam="1">  1       21 0.13317967E+00 0.58737792E+01</pdfrwt>
<pdfrwt beam="2">  1       21 0.68016402E-05 0.58737792E+01</pdfrwt>
<totfact> 0.96552629E+08</totfact>
</mgrwt>
</event>
<event>
 4    1  0.3931501E+006  0.7550626E+01  0.7546771E-02  0.2248820E+00
         21   -1    0    0  503  502  0.00000000000E+00  0.00000000000E+00  0.15934474422E+02  0.15934474422E+02  0.00000000000E+00 0. -1.
         21   -1    0    0  501  503 -0.00000000000E+00 -0.00000000000E+00 -0.24424946054E+02  0.24424946054E+02  0.00000000000E+00 0. -1.
          5    1    1    2  501    0 -0.45627373646E+01 -0.37554459594E+01 -0.22888432800E+02  0.24101707464E+02  0.47000000000E+01 0. -1.
         -5    1    1    2    0  502  0.45627373646E+01  0.37554459594E+01  0.14397961167E+02  0.16257713012E+02  0.47000000000E+01 0. -1.
<mgrwt>
<rscale>  2 0.75506256E+01</rscale>
<asrwt>0</asrwt>
<pdfrwt beam="1">  1       21 0.24514576E-02 0.75506256E+01</pdfrwt>
<pdfrwt beam="2">  1       21 0.37576840E-02 0.75506256E+01</pdfrwt>
<totfact> 0.15176615E+08</totfact>
</mgrwt>
</event>
<event>
 4    1  0.3931501E+006  0.7632747E+01  0.7546771E-02  0.2241567E+00
         21   -1    0    0  503  502  0.00000000000E+00  0.00000000000E+00  0.37552044422E+02  0.37552044422E+02  0.00000000000E+00 0. -1.
         21   -1    0    0  501  503 -0.00000000000E+00 -0.00000000000E+00 -0.18516650151E+01  0.18516650151E+01  0.00000000000E+00 0.  1.
          5    1    1    2  501    0 -0.59819295665E+01  0.62076740629E+00  0.99166523387E+01  0.12513945306E+02  0.47000000000E+01 0.  1.
         -5    1    1    2    0  502  0.59819295665E+01 -0.62076740629E+00  0.25783727069E+02  0.26889764132E+02  0.47000000000E+01 0. -1.
<mgrwt>
<rscale>  2 0.76327474E+01</rscale>
<asrwt>0</asrwt>
<pdfrwt beam="1">  1       21 0.57772370E-02 0.76327474E+01</pdfrwt>
<pdfrwt beam="2">  1       21 0.28487157E-03 0.76327474E+01</pdfrwt>
<totfact> 0.17233161E+09</totfact>
</mgrwt>
</event>
<event>
 4    1  0.3931501E+006  0.5912230E+01  0.7546771E-02  0.2426989E+00
         21   -1    0    0  503  502  0.00000000000E+00  0.00000000000E+00  0.18766596417E+01  0.18766596417E+01  0.00000000000E+00 0.  1.
         21   -1    0    0  501  503 -0.00000000000E+00 -0.00000000000E+00 -0.18756684540E+02  0.18756684540E+02  0.00000000000E+00 0. -1.
          5    1    1    2  501    0  0.23511577807E+01 -0.27086013695E+01 -0.93015002119E+01  0.11021450471E+02  0.47000000000E+01 0.  1.
         -5    1    1    2    0  502 -0.23511577807E+01  0.27086013695E+01 -0.75785246865E+01  0.96118937110E+01  0.47000000000E+01 0. -1.
<mgrwt>
<rscale>  2 0.59122301E+01</rscale>
<asrwt>0</asrwt>
<pdfrwt beam="1">  1       21 0.28871687E-03 0.59122301E+01</pdfrwt>
<pdfrwt beam="2">  1       21 0.28856438E-02 0.59122301E+01</pdfrwt>
<totfact> 0.38529630E+09</totfact>
</mgrwt>
</event>
<event>
 4    1  0.3931501E+006  0.1107498E+02  0.7546771E-02  0.2018520E+00
         21   -1    0    0  503  502  0.00000000000E+00  0.00000000000E+00  0.29125101472E+00  0.29125101472E+00  0.00000000000E+00 0.  1.
         21   -1    0    0  501  503 -0.00000000000E+00 -0.00000000000E+00 -0.52700705157E+03  0.52700705157E+03  0.00000000000E+00 0. -1.
          5    1    1    2  501    0 -0.50824911115E+01 -0.86448503781E+01 -0.38152994746E+03  0.38169065481E+03  0.47000000000E+01 0.  1.
         -5    1    1    2    0  502  0.50824911115E+01  0.86448503781E+01 -0.14518585309E+03  0.14560764778E+03  0.47000000000E+01 0.  1.
<mgrwt>
<rscale>  2 0.11074979E+02</rscale>
<asrwt>0</asrwt>
<pdfrwt beam="1">  1       21 0.44808012E-04 0.11074979E+02</pdfrwt>
<pdfrwt beam="2">  1       21 0.81077711E-01 0.11074979E+02</pdfrwt>
<totfact> 0.29961979E+08</totfact>
</mgrwt>
</event>
<event>
 4    1  0.3931501E+006  0.8409282E+01  0.7546771E-02  0.2178710E+00
         21   -1    0    0  503  502  0.00000000000E+00  0.00000000000E+00  0.16684213750E+03  0.16684213750E+03  0.00000000000E+00 0.  1.
         21   -1    0    0  501  503 -0.00000000000E+00 -0.00000000000E+00 -0.15042602653E+01  0.15042602653E+01  0.00000000000E+00 0. -1.
          5    1    1    2  501    0  0.69465572874E+01 -0.60940049026E+00  0.11333274831E+02  0.14112375615E+02  0.47000000000E+01 0. -1.
         -5    1    1    2    0  502 -0.69465572874E+01  0.60940049026E+00  0.15400460240E+03  0.15423402215E+03  0.47000000000E+01 0.  1.
<mgrwt>
<rscale>  2 0.84092822E+01</rscale>
<asrwt>0</asrwt>
<pdfrwt beam="1">  1       21 0.25668007E-01 0.84092822E+01</pdfrwt>
<pdfrwt beam="2">  1       21 0.23142479E-03 0.84092822E+01</pdfrwt>
<totfact> 0.22723915E+08</totfact>
</mgrwt>
</event>
<event>
 4    1  0.3931501E+006  0.4875630E+01  0.7546771E-02  0.2589701E+00
         21   -1    0    0  503  502  0.00000000000E+00  0.00000000000E+00  0.82051078221E-01  0.82051078221E-01  0.00000000000E+00 0. -1.
         21   -1    0    0  501  503 -0.00000000000E+00 -0.00000000000E+00 -0.11798789136E+04  0.11798789136E+04  0.00000000000E+00 0. -1.
          5    1    1    2  501    0  0.92102219645E+00 -0.91295197535E+00 -0.11023501108E+04  0.11023608930E+04  0.47000000000E+01 0. -1.
         -5    1    1    2    0  502 -0.92102219645E+00  0.91295197535E+00 -0.77446751757E+02  0.77600071656E+02  0.47000000000E+01 0. -1.
<mgrwt>
<rscale>  2 0.48756295E+01</rscale>
<asrwt>0</asrwt>
<pdfrwt beam="1">  1       21 0.12622570E-04 0.48756295E+01</pdfrwt>
<pdfrwt beam="2">  1       21 0.18152951E+00 0.48756295E+01</pdfrwt>
<totfact> 0.19327336E+08</totfact>
</mgrwt>
</event>
<event>
 4    1  0.3931501E+006  0.6204766E+01  0.7546771E-02  0.2389511E+00
         21   -1    0    0  503  502  0.00000000000E+00  0.00000000000E+00  0.14841670058E+01  0.14841670058E+01  0.00000000000E+00 0.  1.
         21   -1    0    0  501  503 -0.00000000000E+00 -0.00000000000E+00 -0.30188785260E+02  0.30188785260E+02  0.00000000000E+00 0.  1.
          5    1    1    2  501    0  0.38994979855E+01  0.10968322330E+01 -0.20293504865E+02  0.21220873337E+02  0.47000000000E+01 0.  1.
         -5    1    1    2    0  502 -0.38994979855E+01 -0.10968322330E+01 -0.84111133895E+01  0.10452078929E+02  0.47000000000E+01 0.  1.
<mgrwt>
<rscale>  2 0.62047664E+01</rscale>
<asrwt>0</asrwt>
<pdfrwt beam="1">  1       21 0.22833338E-03 0.62047664E+01</pdfrwt>
<pdfrwt beam="2">  1       21 0.46444286E-02 0.62047664E+01</pdfrwt>
<totfact> 0.27598800E+09</totfact>
</mgrwt>
</event>
<event>
 4    1  0.3931501E+006  0.5122098E+01  0.7546771E-02  0.2545939E+00
         21   -1    0    0  503  502  0.00000000000E+00  0.00000000000E+00  0.11781281720E+02  0.11781281720E+02  0.00000000000E+00 0.  1.
         21   -1    0    0  501  503 -0.00000000000E+00 -0.00000000000E+00 -0.18257157924E+02  0.18257157924E+02  0.00000000000E+00 0.  1.
          5    1    1    2  501    0 -0.13185052523E+01 -0.15515887199E+01 -0.17311397781E+02  0.18053264990E+02  0.47000000000E+01 0.  1.
         -5    1    1    2    0  502  0.13185052523E+01  0.15515887199E+01  0.10835521577E+02  0.11985174654E+02  0.47000000000E+01 0.  1.
<mgrwt>
<rscale>  2 0.51220976E+01</rscale>
<asrwt>0</asrwt>
<pdfrwt beam="1">  1       21 0.18125049E-02 0.51220976E+01</pdfrwt>
<pdfrwt beam="2">  1       21 0.28087935E-02 0.51220976E+01</pdfrwt>
<totfact> 0.27323028E+08</totfact>
</mgrwt>
</event>
<event>
 4    1  0.3931501E+006  0.5644115E+01  0.7546771E-02  0.2464180E+00
         21   -1    0    0  501  502  0.00000000000E+00  0.00000000000E+00  0.45394332312E+03  0.45394332312E+03  0.00000000000E+00 0.  1.
         21   -1    0    0  502  503 -0.00000000000E+00 -0.00000000000E+00 -0.88543907469E-01  0.88543907469E-01  0.00000000000E+00 0.  1.
          5    1    1    2  501    0  0.28243224012E+01 -0.13376233085E+01  0.33032346774E+03  0.33037168367E+03  0.47000000000E+01 0.  1.
         -5    1    1    2    0  503 -0.28243224012E+01  0.13376233085E+01  0.12353131147E+03  0.12366018335E+03  0.47000000000E+01 0.  1.
<mgrwt>
<rscale>  2 0.56441149E+01</rscale>
<asrwt>0</asrwt>
<pdfrwt beam="1">  1       21 0.69835571E-01 0.56441149E+01</pdfrwt>
<pdfrwt beam="2">  1       21 0.13622503E-04 0.56441149E+01</pdfrwt>
<totfact> 0.13561969E+09</totfact>
</mgrwt>
</event>
<event>
 4    1  0.3931501E+006  0.5129521E+01  0.7546771E-02  0.2544677E+00
         21   -1    0    0  503  502  0.00000000000E+00  0.00000000000E+00  0.16022254500E+00  0.16022254500E+00  0.00000000000E+00 0. -1.
         21   -1    0    0  501  503 -0.00000000000E+00 -0.00000000000E+00 -0.32550457958E+03  0.32550457958E+03  0.00000000000E+00 0.  1.
          5    1    1    2  501    0 -0.30702028859E+00 -0.20316797726E+01 -0.27729120095E+03  0.27733864158E+03  0.47000000000E+01 0.  1.
         -5    1    1    2    0  502  0.30702028859E+00  0.20316797726E+01 -0.48053156075E+02  0.48326160544E+02  0.47000000000E+01 0. -1.
<mgrwt>
<rscale>  2 0.51295209E+01</rscale>
<asrwt>0</asrwt>
<pdfrwt beam="1">  1       21 0.24649783E-04 0.51295209E+01</pdfrwt>
<pdfrwt beam="2">  1       21 0.50077300E-01 0.51295209E+01</pdfrwt>
<totfact> 0.10533312E+09</totfact>
</mgrwt>
</event>
<event>
 4    1  0.3931501E+006  0.4798497E+01  0.7546771E-02  0.2604191E+00
         21   -1    0    0  503  502  0.00000000000E+00  0.00000000000E+00  0.15067229025E+02  0.15067229025E+02  0.00000000000E+00 0.  1.
         21   -1    0    0  501  503 -0.00000000000E+00 -0.00000000000E+00 -0.31626359372E+01  0.31626359372E+01  0.00000000000E+00 0.  1.
          5    1    1    2  501    0  0.35753078810E+00 -0.89874612083E+00 -0.60031277456E+00  0.48359020132E+01  0.47000000000E+01 0.  1.
         -5    1    1    2    0  502 -0.35753078810E+00  0.89874612083E+00  0.12504905862E+02  0.13393962949E+02  0.47000000000E+01 0.  1.
<mgrwt>
<rscale>  2 0.47984969E+01</rscale>
<asrwt>0</asrwt>
<pdfrwt beam="1">  1       21 0.23180352E-02 0.47984969E+01</pdfrwt>
<pdfrwt beam="2">  1       21 0.48655938E-03 0.47984969E+01</pdfrwt>
<totfact> 0.21087952E+09</totfact>
</mgrwt>
</event>
<event>
 4    1  0.3931501E+006  0.6260789E+01  0.7546771E-02  0.2382669E+00
         21   -1    0    0  503  502  0.00000000000E+00  0.00000000000E+00  0.39093110619E+01  0.39093110619E+01  0.00000000000E+00 0. -1.
         21   -1    0    0  501  503 -0.00000000000E+00 -0.00000000000E+00 -0.39669000416E+02  0.39669000416E+02  0.00000000000E+00 0.  1.
          5    1    1    2  501    0  0.49204577400E+00  0.41067469701E+01 -0.36715066725E+02  0.37245048051E+02  0.47000000000E+01 0.  1.
         -5    1    1    2    0  502 -0.49204577400E+00 -0.41067469701E+01  0.95537737019E+00  0.63332634273E+01  0.47000000000E+01 0. -1.
<mgrwt>
<rscale>  2 0.62607891E+01</rscale>
<asrwt>0</asrwt>
<pdfrwt beam="1">  1       21 0.60143251E-03 0.62607891E+01</pdfrwt>
<pdfrwt beam="2">  1       21 0.61029227E-02 0.62607891E+01</pdfrwt>
<totfact> 0.48474740E+08</totfact>
</mgrwt>
</event>
<event>
 4    1  0.3931501E+006  0.5127752E+01  0.7546771E-02  0.2544978E+00
         21   -1    0    0  501  502  0.00000000000E+00  0.00000000000E+00  0.80268643980E-01  0.80268643980E-01  0.00000000000E+00 0.  1.
         21   -1    0    0  502  503 -0.00000000000E+00 -0.00000000000E+00 -0.32781400333E+03  0.32781400333E+03  0.00000000000E+00 0.  1.
          5    1    1    2  501    0 -0.35539423170E+00 -0.20192906757E+01 -0.15942149054E+03  0.15950393565E+03  0.47000000000E+01 0.  1.
         -5    1    1    2    0  503  0.35539423170E+00  0.20192906757E+01 -0.16831224414E+03  0.16839033632E+03  0.47000000000E+01 0.  1.
<mgrwt>
<rscale>  2 0.51277519E+01</rscale>
<asrwt>0</asrwt>
<pdfrwt beam="1">  1       21 0.12349104E-04 0.51277519E+01</pdfrwt>
<pdfrwt beam="2">  1       21 0.50432588E-01 0.51277519E+01</pdfrwt>
<totfact> 0.25977241E+09</totfact>
</mgrwt>
</event>
<event>
 4    1  0.3931501E+006  0.6384955E+01  0.7546771E-02  0.2367861E+00
         21   -1    0    0  503  502  0.00000000000E+00  0.00000000000E+00  0.68320925196E+02  0.68320925196E+02  0.00000000000E+00 0.  1.
         21   -1    0    0  501  503 -0.00000000000E+00 -0.00000000000E+00 -0.73386247057E+00  0.73386247057E+00  0.00000000000E+00 0.  1.
          5    1    1    2  501    0 -0.97142957159E+00 -0.42111731480E+01  0.48720140605E+02  0.49136745468E+02  0.47000000000E+01 0.  1.
         -5    1    1    2    0  502  0.97142957159E+00  0.42111731480E+01  0.18866922121E+02  0.19918042199E+02  0.47000000000E+01 0.  1.
<mgrwt>
<rscale>  2 0.63849553E+01</rscale>
<asrwt>0</asrwt>
<pdfrwt beam="1">  1       21 0.10510906E-01 0.63849553E+01</pdfrwt>
<pdfrwt beam="2">  1       21 0.11290197E-03 0.63849553E+01</pdfrwt>
<totfact> 0.21411234E+09</totfact>
</mgrwt>
</event>
<event>
 4    1  0.3931501E+006  0.5594003E+01  0.7546771E-02  0.2471463E+00
         21   -1    0    0  503  502  0.00000000000E+00  0.00000000000E+00  0.66510462083E+00  0.66510462083E+00  0.00000000000E+00 0.  1.
         21   -1    0    0  501  503 -0.00000000000E+00 -0.00000000000E+00 -0.77369295094E+02  0.77369295094E+02  0.00000000000E+00 0.  1.
          5    1    1    2  501    0  0.55470210776E+00 -0.29824775978E+01 -0.62777097709E+02  0.63025842825E+02  0.47000000000E+01 0.  1.
         -5    1    1    2    0  502 -0.55470210776E+00  0.29824775978E+01 -0.13927092764E+02  0.15008556889E+02  0.47000000000E+01 0.  1.
<mgrwt>
<rscale>  2 0.55940028E+01</rscale>
<asrwt>0</asrwt>
<pdfrwt beam="1">  1       21 0.10232376E-03 0.55940028E+01</pdfrwt>
<pdfrwt beam="2">  1       21 0.11902972E-01 0.55940028E+01</pdfrwt>
<totfact> 0.18065010E+09</totfact>
</mgrwt>
</event>
<event>
 4    1  0.3931501E+006  0.5488342E+01  0.7546771E-02  0.2487189E+00
         21   -1    0    0  501  502  0.00000000000E+00  0.00000000000E+00  0.21623169441E+02  0.21623169441E+02  0.00000000000E+00 0.  1.
         21   -1    0    0  502  503 -0.00000000000E+00 -0.00000000000E+00 -0.14515306408E+01  0.14515306408E+01  0.00000000000E+00 0. -1.
          5    1    1    2  501    0  0.18729257494E+01 -0.21269796906E+01  0.12401849167E+02  0.13561996764E+02  0.47000000000E+01 0. -1.
         -5    1    1    2    0  503 -0.18729257494E+01  0.21269796906E+01  0.77697896330E+01  0.95127033176E+01  0.47000000000E+01 0. -1.
<mgrwt>
<rscale>  2 0.54883416E+01</rscale>
<asrwt>0</asrwt>
<pdfrwt beam="1">  1       21 0.33266412E-02 0.54883416E+01</pdfrwt>
<pdfrwt beam="2">  1       21 0.22331242E-03 0.54883416E+01</pdfrwt>
<totfact> 0.41544617E+09</totfact>
</mgrwt>
</event>
<event>
 4    1  0.3931501E+006  0.4714742E+01  0.7546771E-02  0.2620391E+00
         21   -1    0    0  501  502  0.00000000000E+00  0.00000000000E+00  0.37820826459E+01  0.37820826459E+01  0.00000000000E+00 0.  1.
         21   -1    0    0  502  503 -0.00000000000E+00 -0.00000000000E+00 -0.61209856268E+01  0.61209856268E+01  0.00000000000E+00 0.  1.
          5    1    1    2  501    0  0.37248719981E+00  0.63925974421E-02 -0.18167016621E+00  0.47182403106E+01  0.47000000000E+01 0.  1.
         -5    1    1    2    0  503 -0.37248719981E+00 -0.63925974421E-02 -0.21572328148E+01  0.51848279621E+01  0.47000000000E+01 0.  1.
<mgrwt>
<rscale>  2 0.47147415E+01</rscale>
<asrwt>0</asrwt>
<pdfrwt beam="1">  1       21 0.58185887E-03 0.47147415E+01</pdfrwt>
<pdfrwt beam="2">  1       21 0.94169010E-03 0.47147415E+01</pdfrwt>
<totfact> 0.57285342E+09</totfact>
</mgrwt>
</event>
<event>
 4    1  0.3931501E+006  0.4713327E+01  0.7546771E-02  0.2620668E+00
         21   -1    0    0  501  502  0.00000000000E+00  0.00000000000E+00  0.57253334400E+01  0.57253334400E+01  0.00000000000E+00 0.  1.
         21   -1    0    0  502  503 -0.00000000000E+00 -0.00000000000E+00 -0.39160235772E+01  0.39160235772E+01  0.00000000000E+00 0.  1.
          5    1    1    2  501    0 -0.96554444157E-01  0.34078059363E+00  0.13657109898E+01  0.49072009009E+01  0.47000000000E+01 0. -1.
         -5    1    1    2    0  503  0.96554444157E-01 -0.34078059363E+00  0.44359887295E+00  0.47341561163E+01  0.47000000000E+01 0. -1.
<mgrwt>
<rscale>  2 0.47133273E+01</rscale>
<asrwt>0</asrwt>
<pdfrwt beam="1">  1       21 0.88082053E-03 0.47133273E+01</pdfrwt>
<pdfrwt beam="2">  1       21 0.60246517E-03 0.47133273E+01</pdfrwt>
<totfact> 0.59891807E+09</totfact>
</mgrwt>
</event>
<event>
 4    1  0.3931501E+006  0.5077761E+01  0.7546771E-02  0.2553541E+00
         21   -1    0    0  503  502  0.00000000000E+00  0.00000000000E+00  0.46932947142E+01  0.46932947142E+01  0.00000000000E+00 0.  1.
         21   -1    0    0  501  503 -0.00000000000E+00 -0.00000000000E+00 -0.87129085559E+01  0.87129085559E+01  0.00000000000E+00 0. -1.
          5    1    1    2  501    0  0.11637550836E+01  0.15294873042E+01 -0.60842409122E+01  0.79247488784E+01  0.47000000000E+01 0. -1.
         -5    1    1    2    0  502 -0.11637550836E+01 -0.15294873042E+01  0.20646270705E+01  0.54814543917E+01  0.47000000000E+01 0. -1.
<mgrwt>
<rscale>  2 0.50777611E+01</rscale>
<asrwt>0</asrwt>
<pdfrwt beam="1">  1       21 0.72204535E-03 0.50777611E+01</pdfrwt>
<pdfrwt beam="2">  1       21 0.13404475E-02 0.50777611E+01</pdfrwt>
<totfact> 0.28116884E+09</totfact>
</mgrwt>
</event>
<event>
 4    1  0.3931501E+006  0.5363946E+01  0.7546771E-02  0.2506376E+00
         21   -1    0    0  503  502  0.00000000000E+00  0.00000000000E+00  0.53898236248E-01  0.53898236248E-01  0.00000000000E+00 0.  1.
         21   -1    0    0  501  503 -0.00000000000E+00 -0.00000000000E+00 -0.12063281982E+04  0.12063281982E+04  0.00000000000E+00 0.  1.
          5    1    1    2  501    0  0.17460978037E+01  0.19060571827E+01 -0.10535089699E+04  0.10535226251E+04  0.47000000000E+01 0.  1.
         -5    1    1    2    0  502 -0.17460978037E+01 -0.19060571827E+01 -0.15276533004E+03  0.15285947133E+03  0.47000000000E+01 0.  1.
<mgrwt>
<rscale>  2 0.53639455E+01</rscale>
<asrwt>0</asrwt>
<pdfrwt beam="1">  1       21 0.82904282E-05 0.53639455E+01</pdfrwt>
<pdfrwt beam="2">  1       21 0.18562495E+00 0.53639455E+01</pdfrwt>
<totfact> 0.34235955E+08</totfact>
</mgrwt>
</event>
<event>
 4    1  0.3931501E+006  0.1137466E+02  0.7546771E-02  0.2004276E+00
         21   -1    0    0  503  502  0.00000000000E+00  0.00000000000E+00  0.19810260010E+03  0.19810260010E+03  0.00000000000E+00 0. -1.
         21   -1    0    0  501  503 -0.00000000000E+00 -0.00000000000E+00 -0.46681823666E+01  0.46681823666E+01  0.00000000000E+00 0.  1.
          5    1    1    2  501    0  0.78469794869E+01 -0.67614905077E+01  0.26911681639E+01  0.11688679440E+02  0.47000000000E+01 0.  1.
         -5    1    1    2    0  502 -0.78469794869E+01  0.67614905077E+01  0.19074324957E+03  0.19108210303E+03  0.47000000000E+01 0. -1.
<mgrwt>
<rscale>  2 0.11374658E+02</rscale>
<asrwt>0</asrwt>
<pdfrwt beam="1">  1       21 0.30477317E-01 0.11374658E+02</pdfrwt>
<pdfrwt beam="2">  1       21 0.71818206E-03 0.11374658E+02</pdfrwt>
<totfact> 0.38747007E+07</totfact>
</mgrwt>
</event>
<event>
 4    1  0.3931501E+006  0.4750885E+01  0.7546771E-02  0.2613339E+00
         21   -1    0    0  501  502  0.00000000000E+00  0.00000000000E+00  0.53261626218E+02  0.53261626218E+02  0.00000000000E+00 0.  1.
         21   -1    0    0  502  503 -0.00000000000E+00 -0.00000000000E+00 -0.72103501114E+00  0.72103501114E+00  0.00000000000E+00 0.  1.
          5    1    1    2  501    0  0.61856230048E+00  0.31350758162E+00  0.43600947636E+02  0.43859018925E+02  0.47000000000E+01 0.  1.
         -5    1    1    2    0  503 -0.61856230048E+00 -0.31350758162E+00  0.89396435705E+01  0.10123642304E+02  0.47000000000E+01 0.  1.
<mgrwt>
<rscale>  2 0.47508848E+01</rscale>
<asrwt>0</asrwt>
<pdfrwt beam="1">  1       21 0.81940933E-02 0.47508848E+01</pdfrwt>
<pdfrwt beam="2">  1       21 0.11092850E-03 0.47508848E+01</pdfrwt>
<totfact> 0.24468433E+09</totfact>
</mgrwt>
</event>
<event>
 4    1  0.3931501E+006  0.6691589E+01  0.7546771E-02  0.2333256E+00
         21   -1    0    0  501  502  0.00000000000E+00  0.00000000000E+00  0.40697350578E+00  0.40697350578E+00  0.00000000000E+00 0.  1.
         21   -1    0    0  502  503 -0.00000000000E+00 -0.00000000000E+00 -0.11583423476E+03  0.11583423476E+03  0.00000000000E+00 0.  1.
          5    1    1    2  501    0 -0.42595232165E+01 -0.21316265833E+01 -0.44698125793E+02  0.45196236782E+02  0.47000000000E+01 0.  1.
         -5    1    1    2    0  503  0.42595232165E+01  0.21316265833E+01 -0.70729135463E+02  0.71044971485E+02  0.47000000000E+01 0.  1.
<mgrwt>
<rscale>  2 0.66915895E+01</rscale>
<asrwt>0</asrwt>
<pdfrwt beam="1">  1       21 0.62611308E-04 0.66915895E+01</pdfrwt>
<pdfrwt beam="2">  1       21 0.17820652E-01 0.66915895E+01</pdfrwt>
<totfact> 0.21374026E+09</totfact>
</mgrwt>
</event>
<event>
 4    1  0.3931501E+006  0.4838362E+01  0.7546771E-02  0.2596652E+00
         21   -1    0    0  501  502  0.00000000000E+00  0.00000000000E+00  0.18693801445E-01  0.18693801445E-01  0.00000000000E+00 0.  1.
         21   -1    0    0  502  503 -0.00000000000E+00 -0.00000000000E+00 -0.12567018986E+04  0.12567018986E+04  0.00000000000E+00 0.  1.
          5    1    1    2  501    0  0.92423058069E+00 -0.68230996410E+00 -0.59104029018E+03  0.59106009370E+03  0.47000000000E+01 0.  1.
         -5    1    1    2    0  503 -0.92423058069E+00  0.68230996410E+00 -0.66564291462E+03  0.66566049871E+03  0.47000000000E+01 0.  1.
<mgrwt>
<rscale>  2 0.48383622E+01</rscale>
<asrwt>0</asrwt>
<pdfrwt beam="1">  1       21 0.28761835E-05 0.48383622E+01</pdfrwt>
<pdfrwt beam="2">  1       21 0.19332436E+00 0.48383622E+01</pdfrwt>
<totfact> 0.12283968E+09</totfact>
</mgrwt>
</event>
<event>
 4    1  0.3931501E+006  0.6064034E+01  0.7546771E-02  0.2407163E+00
         21   -1    0    0  503  502  0.00000000000E+00  0.00000000000E+00  0.12282718558E+03  0.12282718558E+03  0.00000000000E+00 0. -1.
         21   -1    0    0  501  503 -0.00000000000E+00 -0.00000000000E+00 -0.52233674791E+01  0.52233674791E+01  0.00000000000E+00 0. -1.
          5    1    1    2  501    0 -0.37646530062E+01  0.71406991755E+00 -0.33614481588E+01  0.69333860291E+01  0.47000000000E+01 0. -1.
         -5    1    1    2    0  502  0.37646530062E+01 -0.71406991755E+00  0.12096526625E+03  0.12111716703E+03  0.47000000000E+01 0. -1.
<mgrwt>
<rscale>  2 0.60640340E+01</rscale>
<asrwt>0</asrwt>
<pdfrwt beam="1">  1       21 0.18896488E-01 0.60640340E+01</pdfrwt>
<pdfrwt beam="2">  1       21 0.80359509E-03 0.60640340E+01</pdfrwt>
<totfact> 0.54950152E+07</totfact>
</mgrwt>
</event>
<event>
 4    1  0.3931501E+006  0.7547449E+01  0.7546771E-02  0.2249103E+00
         21   -1    0    0  501  502  0.00000000000E+00  0.00000000000E+00  0.16270899674E+03  0.16270899674E+03  0.00000000000E+00 0.  1.
         21   -1    0    0  502  503 -0.00000000000E+00 -0.00000000000E+00 -0.58332598176E+00  0.58332598176E+00  0.00000000000E+00 0. -1.
          5    1    1    2  501    0 -0.12502052698E+01 -0.57715665354E+01  0.13268913705E+03  0.13290361577E+03  0.47000000000E+01 0.  1.
         -5    1    1    2    0  503  0.12502052698E+01  0.57715665354E+01  0.29436533711E+02  0.30388706955E+02  0.47000000000E+01 0. -1.
<mgrwt>
<rscale>  2 0.75474495E+01</rscale>
<asrwt>0</asrwt>
<pdfrwt beam="1">  1       21 0.25032117E-01 0.75474495E+01</pdfrwt>
<pdfrwt beam="2">  1       21 0.89742589E-04 0.75474495E+01</pdfrwt>
<totfact> 0.81734828E+08</totfact>
</mgrwt>
</event>
<event>
 4    1  0.3931501E+006  0.8659670E+01  0.7546771E-02  0.2160392E+00
         21   -1    0    0  503  502  0.00000000000E+00  0.00000000000E+00  0.25002249466E+00  0.25002249466E+00  0.00000000000E+00 0. -1.
         21   -1    0    0  501  503 -0.00000000000E+00 -0.00000000000E+00 -0.31215236760E+03  0.31215236760E+03  0.00000000000E+00 0.  1.
          5    1    1    2  501    0  0.12957066239E+01  0.71568865650E+01 -0.12504582439E+03  0.12534531534E+03  0.47000000000E+01 0. -1.
         -5    1    1    2    0  502 -0.12957066239E+01 -0.71568865650E+01 -0.18685652072E+03  0.18705707476E+03  0.47000000000E+01 0. -1.
<mgrwt>
<rscale>  2 0.86596698E+01</rscale>
<asrwt>0</asrwt>
<pdfrwt beam="1">  1       21 0.38465069E-04 0.86596698E+01</pdfrwt>
<pdfrwt beam="2">  1       21 0.48023354E-01 0.86596698E+01</pdfrwt>
<totfact> 0.89597781E+08</totfact>
</mgrwt>
</event>
<event>
 4    1  0.3931501E+006  0.6595391E+01  0.7546771E-02  0.2343826E+00
         21   -1    0    0  501  502  0.00000000000E+00  0.00000000000E+00  0.37345130801E+01  0.37345130801E+01  0.00000000000E+00 0.  1.
         21   -1    0    0  502  503 -0.00000000000E+00 -0.00000000000E+00 -0.30481723445E+02  0.30481723445E+02  0.00000000000E+00 0. -1.
          5    1    1    2  501    0 -0.45243898072E+01  0.96905908177E+00  0.74215382381E-01  0.65958082563E+01  0.47000000000E+01 0.  1.
         -5    1    1    2    0  503  0.45243898072E+01 -0.96905908177E+00 -0.26821425748E+02  0.27620428269E+02  0.47000000000E+01 0. -1.
<mgrwt>
<rscale>  2 0.65953907E+01</rscale>
<asrwt>0</asrwt>
<pdfrwt beam="1">  1       21 0.57454048E-03 0.65953907E+01</pdfrwt>
<pdfrwt beam="2">  1       21 0.46894959E-02 0.65953907E+01</pdfrwt>
<totfact> 0.79653074E+08</totfact>
</mgrwt>
</event>
<event>
 4    1  0.3931501E+006  0.9404712E+01  0.7546771E-02  0.2110538E+00
         21   -1    0    0  503  502  0.00000000000E+00  0.00000000000E+00  0.13981261067E+02  0.13981261067E+02  0.00000000000E+00 0.  1.
         21   -1    0    0  501  503 -0.00000000000E+00 -0.00000000000E+00 -0.25961595452E+02  0.25961595452E+02  0.00000000000E+00 0. -1.
          5    1    1    2  501    0 -0.79689474747E+01 -0.16895197085E+01 -0.23358694157E+02  0.25180889448E+02  0.47000000000E+01 0. -1.
         -5    1    1    2    0  502  0.79689474747E+01  0.16895197085E+01  0.11378359772E+02  0.14761967071E+02  0.47000000000E+01 0.  1.
<mgrwt>
<rscale>  2 0.94047116E+01</rscale>
<asrwt>0</asrwt>
<pdfrwt beam="1">  1       21 0.21509633E-02 0.94047116E+01</pdfrwt>
<pdfrwt beam="2">  1       21 0.39940916E-02 0.94047116E+01</pdfrwt>
<totfact> 0.18964236E+08</totfact>
</mgrwt>
</event>
<event>
 4    1  0.3931501E+006  0.8661228E+01  0.7546771E-02  0.2160280E+00
         21   -1    0    0  503  502  0.00000000000E+00  0.00000000000E+00  0.80723250919E+02  0.80723250919E+02  0.00000000000E+00 0.  1.
         21   -1    0    0  501  503 -0.00000000000E+00 -0.00000000000E+00 -0.27343277687E+01  0.27343277687E+01  0.00000000000E+00 0. -1.
          5    1    1    2  501    0  0.19053032834E+01  0.70211606031E+01  0.50904326445E+01  0.10046361596E+02  0.47000000000E+01 0. -1.
         -5    1    1    2    0  502 -0.19053032834E+01 -0.70211606031E+01  0.72898490506E+02  0.73411217092E+02  0.47000000000E+01 0.  1.
<mgrwt>
<rscale>  2 0.86612284E+01</rscale>
<asrwt>0</asrwt>
<pdfrwt beam="1">  1       21 0.12418960E-01 0.86612284E+01</pdfrwt>
<pdfrwt beam="2">  1       21 0.42066587E-03 0.86612284E+01</pdfrwt>
<totfact> 0.32925275E+08</totfact>
</mgrwt>
</event>
<event>
 4    1  0.3931501E+006  0.7760538E+01  0.7546771E-02  0.2230528E+00
         21   -1    0    0  501  502  0.00000000000E+00  0.00000000000E+00  0.15133245853E+00  0.15133245853E+00  0.00000000000E+00 0. -1.
         21   -1    0    0  502  503 -0.00000000000E+00 -0.00000000000E+00 -0.45864164355E+03  0.45864164355E+03  0.00000000000E+00 0.  1.
          5    1    1    2  501    0  0.57221102322E+01 -0.23223706281E+01 -0.14581196981E+03  0.14601834300E+03  0.47000000000E+01 0. -1.
         -5    1    1    2    0  503 -0.57221102322E+01  0.23223706281E+01 -0.31267834128E+03  0.31277463302E+03  0.47000000000E+01 0. -1.
<mgrwt>
<rscale>  2 0.77605381E+01</rscale>
<asrwt>0</asrwt>
<pdfrwt beam="1">  1       21 0.23281903E-04 0.77605381E+01</pdfrwt>
<pdfrwt beam="2">  1       21 0.70560293E-01 0.77605381E+01</pdfrwt>
<totfact> 0.80264356E+08</totfact>
</mgrwt>
</event>
<event>
 4    1  0.3931501E+006  0.6822299E+01  0.7546771E-02  0.2319290E+00
         21   -1    0    0  501  502  0.00000000000E+00  0.00000000000E+00  0.75151035433E+02  0.75151035433E+02  0.00000000000E+00 0. -1.
         21   -1    0    0  502  503 -0.00000000000E+00 -0.00000000000E+00 -0.65672766407E+00  0.65672766407E+00  0.00000000000E+00 0.  1.
          5    1    1    2  501    0 -0.14206239933E+01 -0.47366223494E+01  0.46291490490E+02  0.46791514782E+02  0.47000000000E+01 0.  1.
         -5    1    1    2    0  503  0.14206239933E+01  0.47366223494E+01  0.28202817279E+02  0.29016248315E+02  0.47000000000E+01 0.  1.
<mgrwt>
<rscale>  2 0.68222990E+01</rscale>
<asrwt>0</asrwt>
<pdfrwt beam="1">  1       21 0.11561691E-01 0.68222990E+01</pdfrwt>
<pdfrwt beam="2">  1       21 0.10103508E-03 0.68222990E+01</pdfrwt>
<totfact> 0.22595440E+09</totfact>
</mgrwt>
</event>
<event>
 4    1  0.3931501E+006  0.4861384E+01  0.7546771E-02  0.2592347E+00
         21   -1    0    0  503  502  0.00000000000E+00  0.00000000000E+00  0.13079344496E+01  0.13079344496E+01  0.00000000000E+00 0. -1.
         21   -1    0    0  501  503 -0.00000000000E+00 -0.00000000000E+00 -0.69732157651E+02  0.69732157651E+02  0.00000000000E+00 0. -1.
          5    1    1    2  501    0 -0.88526272989E+00 -0.87141659307E+00 -0.64785774716E+02  0.64967912561E+02  0.47000000000E+01 0. -1.
         -5    1    1    2    0  502  0.88526272989E+00  0.87141659307E+00 -0.36384484852E+01  0.60721795394E+01  0.47000000000E+01 0. -1.
<mgrwt>
<rscale>  2 0.48613843E+01</rscale>
<asrwt>0</asrwt>
<pdfrwt beam="1">  1       21 0.20122064E-03 0.48613843E+01</pdfrwt>
<pdfrwt beam="2">  1       21 0.10728026E-01 0.48613843E+01</pdfrwt>
<totfact> 0.75419191E+08</totfact>
</mgrwt>
</event>
<event>
 4    1  0.3931501E+006  0.9816771E+01  0.7546771E-02  0.2085568E+00
         21   -1    0    0  501  502  0.00000000000E+00  0.00000000000E+00  0.45162020960E+01  0.45162020960E+01  0.00000000000E+00 0. -1.
         21   -1    0    0  502  503 -0.00000000000E+00 -0.00000000000E+00 -0.29397381524E+02  0.29397381524E+02  0.00000000000E+00 0. -1.
          5    1    1    2  501    0 -0.53175014143E+01  0.67825637494E+01 -0.35623540974E+01  0.10443148903E+02  0.47000000000E+01 0. -1.
         -5    1    1    2    0  503  0.53175014143E+01 -0.67825637494E+01 -0.21318825331E+02  0.23470434716E+02  0.47000000000E+01 0. -1.
<mgrwt>
<rscale>  2 0.98167710E+01</rscale>
<asrwt>0</asrwt>
<pdfrwt beam="1">  1       21 0.69480035E-03 0.98167710E+01</pdfrwt>
<pdfrwt beam="2">  1       21 0.45226739E-02 0.98167710E+01</pdfrwt>
<totfact> 0.83364696E+08</totfact>
</mgrwt>
</event>
<event>
 4    1  0.3931501E+006  0.7706945E+01  0.7546771E-02  0.2235122E+00
         21   -1    0    0  501  502  0.00000000000E+00  0.00000000000E+00  0.15205679831E+02  0.15205679831E+02  0.00000000000E+00 0. -1.
         21   -1    0    0  502  503 -0.00000000000E+00 -0.00000000000E+00 -0.51883957140E+01  0.51883957140E+01  0.00000000000E+00 0.  1.
          5    1    1    2  501    0  0.49392669742E+01  0.35931392365E+01  0.10077710657E+02  0.12686893233E+02  0.47000000000E+01 0. -1.
         -5    1    1    2    0  503 -0.49392669742E+01 -0.35931392365E+01 -0.60426540780E-01  0.77071823115E+01  0.47000000000E+01 0.  1.
<mgrwt>
<rscale>  2 0.77069454E+01</rscale>
<asrwt>0</asrwt>
<pdfrwt beam="1">  1       21 0.23393353E-02 0.77069454E+01</pdfrwt>
<pdfrwt beam="2">  1       21 0.79821474E-03 0.77069454E+01</pdfrwt>
<totfact> 0.15651904E+09</totfact>
</mgrwt>
</event>
<event>
 4    1  0.3931501E+006  0.7146482E+01  0.7546771E-02  0.2286475E+00
         21   -1    0    0  503  502  0.00000000000E+00  0.00000000000E+00  0.27620840447E+00  0.27620840447E+00  0.00000000000E+00 0. -1.
         21   -1    0    0  501  503 -0.00000000000E+00 -0.00000000000E+00 -0.25093147213E+03  0.25093147213E+03  0.00000000000E+00 0.  1.
          5    1    1    2  501    0  0.53472803525E+01  0.62353762455E+00 -0.18975726988E+03  0.18989179465E+03  0.47000000000E+01 0.  1.
         -5    1    1    2    0  502 -0.53472803525E+01 -0.62353762455E+00 -0.60897993847E+02  0.61315885877E+02  0.47000000000E+01 0. -1.
<mgrwt>
<rscale>  2 0.71464821E+01</rscale>
<asrwt>0</asrwt>
<pdfrwt beam="1">  1       21 0.42493687E-04 0.71464821E+01</pdfrwt>
<pdfrwt beam="2">  1       21 0.38604764E-01 0.71464821E+01</pdfrwt>
<totfact> 0.10302427E+09</totfact>
</mgrwt>
</event>
<event>
 4    1  0.3931501E+006  0.6893061E+01  0.7546771E-02  0.2311912E+00
         21   -1    0    0  503  502  0.00000000000E+00  0.00000000000E+00  0.46353570535E+01  0.46353570535E+01  0.00000000000E+00 0. -1.
         21   -1    0    0  501  503 -0.00000000000E+00 -0.00000000000E+00 -0.12976191306E+02  0.12976191306E+02  0.00000000000E+00 0.  1.
          5    1    1    2  501    0 -0.43356653779E+01  0.25741592860E+01 -0.82063113201E+01  0.10717174804E+02  0.47000000000E+01 0.  1.
         -5    1    1    2    0  502  0.43356653779E+01 -0.25741592860E+01 -0.13452293208E+00  0.68943735552E+01  0.47000000000E+01 0. -1.
<mgrwt>
<rscale>  2 0.68930610E+01</rscale>
<asrwt>0</asrwt>
<pdfrwt beam="1">  1       21 0.71313186E-03 0.68930610E+01</pdfrwt>
<pdfrwt beam="2">  1       21 0.19963371E-02 0.68930610E+01</pdfrwt>
<totfact> 0.21274375E+09</totfact>
</mgrwt>
</event>
<event>
 4    1  0.3931501E+006  0.4705182E+01  0.7546771E-02  0.2622271E+00
         21   -1    0    0  501  502  0.00000000000E+00  0.00000000000E+00  0.16766715446E+03  0.16766715446E+03  0.00000000000E+00 0. -1.
         21   -1    0    0  502  503 -0.00000000000E+00 -0.00000000000E+00 -0.21749512650E+01  0.21749512650E+01  0.00000000000E+00 0. -1.
          5    1    1    2  501    0  0.17838483195E+00  0.13004910346E+00  0.16504904746E+03  0.16511610097E+03  0.47000000000E+01 0. -1.
         -5    1    1    2    0  503 -0.17838483195E+00 -0.13004910346E+00  0.44315573868E+00  0.47260047531E+01  0.47000000000E+01 0. -1.
<mgrwt>
<rscale>  2 0.47051816E+01</rscale>
<asrwt>0</asrwt>
<pdfrwt beam="1">  1       21 0.25794937E-01 0.47051816E+01</pdfrwt>
<pdfrwt beam="2">  1       21 0.33460802E-03 0.47051816E+01</pdfrwt>
<totfact> 0.93723076E+07</totfact>
</mgrwt>
</event>
<event>
 4    1  0.3931501E+006  0.5187942E+01  0.7546771E-02  0.2534855E+00
         21   -1    0    0  503  502  0.00000000000E+00  0.00000000000E+00  0.37076484058E+03  0.37076484058E+03  0.00000000000E+00 0. -1.
         21   -1    0    0  501  503 -0.00000000000E+00 -0.00000000000E+00 -0.73610604619E-01  0.73610604619E-01  0.00000000000E+00 0. -1.
          5    1    1    2  501    0 -0.21509422384E+01 -0.44519024407E+00  0.20715184923E+03  0.20721680286E+03  0.47000000000E+01 0. -1.
         -5    1    1    2    0  502  0.21509422384E+01  0.44519024407E+00  0.16353938075E+03  0.16362164833E+03  0.47000000000E+01 0. -1.
<mgrwt>
<rscale>  2 0.51879425E+01</rscale>
<asrwt>0</asrwt>
<pdfrwt beam="1">  1       21 0.57039249E-01 0.51879425E+01</pdfrwt>
<pdfrwt beam="2">  1       21 0.11325005E-04 0.51879425E+01</pdfrwt>
<totfact> 0.23580513E+09</totfact>
</mgrwt>
</event>
<event>
 4    1  0.3931501E+006  0.5693149E+01  0.7546771E-02  0.2457158E+00
         21   -1    0    0  503  502  0.00000000000E+00  0.00000000000E+00  0.28932287097E+00  0.28932287097E+00  0.00000000000E+00 0. -1.
         21   -1    0    0  501  503 -0.00000000000E+00 -0.00000000000E+00 -0.11602715976E+03  0.11602715976E+03  0.00000000000E+00 0.  1.
          5    1    1    2  501    0 -0.11618359895E+01  0.29953436722E+01 -0.68667708787E+02  0.68903310346E+02  0.47000000000E+01 0. -1.
         -5    1    1    2    0  502  0.11618359895E+01 -0.29953436722E+01 -0.47070128101E+02  0.47413172284E+02  0.47000000000E+01 0.  1.
<mgrwt>
<rscale>  2 0.56931491E+01</rscale>
<asrwt>0</asrwt>
<pdfrwt beam="1">  1       21 0.44511222E-04 0.56931491E+01</pdfrwt>
<pdfrwt beam="2">  1       21 0.17850328E-01 0.56931491E+01</pdfrwt>
<totfact> 0.29525160E+09</totfact>
</mgrwt>
</event>
<event>
 4    1  0.3931501E+006  0.6893467E+01  0.7546771E-02  0.2311870E+00
         21   -1    0    0  503  502  0.00000000000E+00  0.00000000000E+00  0.50916096535E+00  0.50916096535E+00  0.00000000000E+00 0.  1.
         21   -1    0    0  501  503 -0.00000000000E+00 -0.00000000000E+00 -0.12074400202E+03  0.12074400202E+03  0.00000000000E+00 0. -1.
          5    1    1    2  501    0 -0.44136765055E+00  0.50234534458E+01 -0.89005463377E+02  0.89272013536E+02  0.47000000000E+01 0. -1.
         -5    1    1    2    0  502  0.44136765055E+00 -0.50234534458E+01 -0.31229377674E+02  0.31981149446E+02  0.47000000000E+01 0.  1.
<mgrwt>
<rscale>  2 0.68934672E+01</rscale>
<asrwt>0</asrwt>
<pdfrwt beam="1">  1       21 0.78332317E-04 0.68934672E+01</pdfrwt>
<pdfrwt beam="2">  1       21 0.18576033E-01 0.68934672E+01</pdfrwt>
<totfact> 0.15105527E+09</totfact>
</mgrwt>
</event>
<event>
 4    1  0.3931501E+006  0.1775796E+02  0.7546771E-02  0.1793979E+00
         21   -1    0    0  503  502  0.00000000000E+00  0.00000000000E+00  0.52625954330E+00  0.52625954330E+00  0.00000000000E+00 0.  1.
         21   -1    0    0  501  503 -0.00000000000E+00 -0.00000000000E+00 -0.71533242849E+03  0.71533242849E+03  0.00000000000E+00 0. -1.
          5    1    1    2  501    0  0.17124032869E+02 -0.15000134761E+00 -0.50160916064E+03  0.50192339559E+03  0.47000000000E+01 0. -1.
         -5    1    1    2    0  502 -0.17124032869E+02  0.15000134761E+00 -0.21319700830E+03  0.21393529244E+03  0.47000000000E+01 0.  1.
<mgrwt>
<rscale>  2 0.17757956E+02</rscale>
<asrwt>0</asrwt>
<pdfrwt beam="1">  1       21 0.80962865E-04 0.17757956E+02</pdfrwt>
<pdfrwt beam="2">  1       21 0.11005134E+00 0.17757956E+02</pdfrwt>
<totfact> 0.81392055E+07</totfact>
</mgrwt>
</event>
<event>
 4    1  0.3931501E+006  0.8437628E+01  0.7546771E-02  0.2176593E+00
         21   -1    0    0  501  502  0.00000000000E+00  0.00000000000E+00  0.83593117148E+01  0.83593117148E+01  0.00000000000E+00 0. -1.
         21   -1    0    0  502  503 -0.00000000000E+00 -0.00000000000E+00 -0.89223235226E+01  0.89223235226E+01  0.00000000000E+00 0.  1.
          5    1    1    2  501    0 -0.69579317780E+01  0.83111677605E+00  0.15609155054E+01  0.85807940738E+01  0.47000000000E+01 0. -1.
         -5    1    1    2    0  503  0.69579317780E+01 -0.83111677605E+00 -0.21239273132E+01  0.87008411636E+01  0.47000000000E+01 0.  1.
<mgrwt>
<rscale>  2 0.84376282E+01</rscale>
<asrwt>0</asrwt>
<pdfrwt beam="1">  1       21 0.12860480E-02 0.84376282E+01</pdfrwt>
<pdfrwt beam="2">  1       21 0.13726652E-02 0.84376282E+01</pdfrwt>
<totfact> 0.18284145E+09</totfact>
</mgrwt>
</event>
<event>
 4    1  0.3931501E+006  0.6870742E+01  0.7546771E-02  0.2314225E+00
         21   -1    0    0  501  502  0.00000000000E+00  0.00000000000E+00  0.18405750165E+02  0.18405750165E+02  0.00000000000E+00 0. -1.
         21   -1    0    0  502  503 -0.00000000000E+00 -0.00000000000E+00 -0.30138848727E+01  0.30138848727E+01  0.00000000000E+00 0. -1.
          5    1    1    2  501    0  0.46609081396E+01 -0.18420167867E+01  0.11830045840E+02  0.13680536360E+02  0.47000000000E+01 0. -1.
         -5    1    1    2    0  503 -0.46609081396E+01  0.18420167867E+01  0.35618194525E+01  0.77390986775E+01  0.47000000000E+01 0. -1.
<mgrwt>
<rscale>  2 0.68707416E+01</rscale>
<asrwt>0</asrwt>
<pdfrwt beam="1">  1       21 0.28316538E-02 0.68707416E+01</pdfrwt>
<pdfrwt beam="2">  1       21 0.46367461E-03 0.68707416E+01</pdfrwt>
<totfact> 0.23347784E+09</totfact>
</mgrwt>
</event>
<event>
 4    1  0.3931501E+006  0.1214752E+02  0.7546771E-02  0.1970078E+00
         21   -1    0    0  501  502  0.00000000000E+00  0.00000000000E+00  0.13492395850E+02  0.13492395850E+02  0.00000000000E+00 0. -1.
         21   -1    0    0  502  503 -0.00000000000E+00 -0.00000000000E+00 -0.12419869804E+02  0.12419869804E+02  0.00000000000E+00 0.  1.
          5    1    1    2  501    0  0.43878213820E+01  0.10306275147E+02  0.50135231467E+01  0.13141449625E+02  0.47000000000E+01 0. -1.
         -5    1    1    2    0  503 -0.43878213820E+01 -0.10306275147E+02 -0.39409971008E+01  0.12770816029E+02  0.47000000000E+01 0.  1.
<mgrwt>
<rscale>  2 0.12147522E+02</rscale>
<asrwt>0</asrwt>
<pdfrwt beam="1">  1       21 0.20757532E-02 0.12147522E+02</pdfrwt>
<pdfrwt beam="2">  1       21 0.19107492E-02 0.12147522E+02</pdfrwt>
<totfact> 0.68924318E+08</totfact>
</mgrwt>
</event>
<event>
 4    1  0.3931501E+006  0.1115300E+02  0.7546771E-02  0.2014754E+00
         21   -1    0    0  503  502  0.00000000000E+00  0.00000000000E+00  0.67304665317E-01  0.67304665317E-01  0.00000000000E+00 0. -1.
         21   -1    0    0  501  503 -0.00000000000E+00 -0.00000000000E+00 -0.21854811324E+04  0.21854811324E+04  0.00000000000E+00 0. -1.
          5    1    1    2  501    0  0.15673957994E+01 -0.99921289011E+01 -0.15220284829E+04  0.15220693454E+04  0.47000000000E+01 0. -1.
         -5    1    1    2    0  502 -0.15673957994E+01  0.99921289011E+01 -0.66338534478E+03  0.66347909164E+03  0.47000000000E+01 0. -1.
<mgrwt>
<rscale>  2 0.11152998E+02</rscale>
<asrwt>0</asrwt>
<pdfrwt beam="1">  1       21 0.10356221E-04 0.11152998E+02</pdfrwt>
<pdfrwt beam="2">  1       21 0.33617405E+00 0.11152998E+02</pdfrwt>
<totfact> 0.72751853E+07</totfact>
</mgrwt>
</event>
<event>
 4    1  0.3931501E+006  0.5718560E+01  0.7546771E-02  0.2453559E+00
         21   -1    0    0  501  502  0.00000000000E+00  0.00000000000E+00  0.32781867382E+02  0.32781867382E+02  0.00000000000E+00 0. -1.
         21   -1    0    0  502  503 -0.00000000000E+00 -0.00000000000E+00 -0.11288854566E+01  0.11288854566E+01  0.00000000000E+00 0. -1.
          5    1    1    2  501    0 -0.24637056441E+01 -0.21312150276E+01  0.21609511957E+02  0.22353365072E+02  0.47000000000E+01 0. -1.
         -5    1    1    2    0  503  0.24637056441E+01  0.21312150276E+01  0.10043469968E+02  0.11557387767E+02  0.47000000000E+01 0. -1.
<mgrwt>
<rscale>  2 0.57185595E+01</rscale>
<asrwt>0</asrwt>
<pdfrwt beam="1">  1       21 0.50433635E-02 0.57185595E+01</pdfrwt>
<pdfrwt beam="2">  1       21 0.17367471E-03 0.57185595E+01</pdfrwt>
<totfact> 0.32995678E+09</totfact>
</mgrwt>
</event>
<event>
 4    1  0.3931501E+006  0.4998807E+01  0.7546771E-02  0.2567366E+00
         21   -1    0    0  503  502  0.00000000000E+00  0.00000000000E+00  0.68470503293E+01  0.68470503293E+01  0.00000000000E+00 0. -1.
         21   -1    0    0  501  503 -0.00000000000E+00 -0.00000000000E+00 -0.12971865686E+02  0.12971865686E+02  0.00000000000E+00 0. -1.
          5    1    1    2  501    0 -0.16661100505E+01  0.34949260686E+00 -0.11463051512E+02  0.12505583463E+02  0.47000000000E+01 0. -1.
         -5    1    1    2    0  502  0.16661100505E+01 -0.34949260686E+00  0.53382361548E+01  0.73133325528E+01  0.47000000000E+01 0. -1.
<mgrwt>
<rscale>  2 0.49988066E+01</rscale>
<asrwt>0</asrwt>
<pdfrwt beam="1">  1       21 0.10533924E-02 0.49988066E+01</pdfrwt>
<pdfrwt beam="2">  1       21 0.19956716E-02 0.49988066E+01</pdfrwt>
<totfact> 0.93352400E+08</totfact>
</mgrwt>
</event>
<event>
 4    1  0.3931501E+006  0.6201932E+01  0.7546771E-02  0.2389860E+00
         21   -1    0    0  501  502  0.00000000000E+00  0.00000000000E+00  0.48743426651E+00  0.48743426651E+00  0.00000000000E+00 0. -1.
         21   -1    0    0  502  503 -0.00000000000E+00 -0.00000000000E+00 -0.10435170893E+03  0.10435170893E+03  0.00000000000E+00 0. -1.
          5    1    1    2  501    0  0.39697724350E+01  0.78413724751E+00 -0.77814719780E+02  0.78061479481E+02  0.47000000000E+01 0. -1.
         -5    1    1    2    0  503 -0.39697724350E+01 -0.78413724751E+00 -0.26049554888E+02  0.26777663719E+02  0.47000000000E+01 0. -1.
<mgrwt>
<rscale>  2 0.62019323E+01</rscale>
<asrwt>0</asrwt>
<pdfrwt beam="1">  1       21 0.74989797E-04 0.62019323E+01</pdfrwt>
<pdfrwt beam="2">  1       21 0.16054128E-01 0.62019323E+01</pdfrwt>
<totfact> 0.18682743E+09</totfact>
</mgrwt>
</event>
<event>
 4    1  0.3931501E+006  0.7690879E+01  0.7546771E-02  0.2236509E+00
         21   -1    0    0  501  502  0.00000000000E+00  0.00000000000E+00  0.22868443008E+02  0.22868443008E+02  0.00000000000E+00 0.  1.
         21   -1    0    0  502  503 -0.00000000000E+00 -0.00000000000E+00 -0.98573495482E+01  0.98573495482E+01  0.00000000000E+00 0.  1.
          5    1    1    2  501    0  0.54701336430E+01 -0.26715633906E+01  0.20558647967E+02  0.21950116612E+02  0.47000000000E+01 0.  1.
         -5    1    1    2    0  503 -0.54701336430E+01  0.26715633906E+01 -0.75475545074E+01  0.10775675945E+02  0.47000000000E+01 0.  1.
<mgrwt>
<rscale>  2 0.76908786E+01</rscale>
<asrwt>0</asrwt>
<pdfrwt beam="1">  1       21 0.35182220E-02 0.76908786E+01</pdfrwt>
<pdfrwt beam="2">  1       21 0.15165153E-02 0.76908786E+01</pdfrwt>
<totfact> 0.34071914E+08</totfact>
</mgrwt>
</event>
<event>
 4    1  0.3931501E+006  0.4890771E+01  0.7546771E-02  0.2586903E+00
         21   -1    0    0  503  502  0.00000000000E+00  0.00000000000E+00  0.79572914550E+02  0.79572914550E+02  0.00000000000E+00 0. -1.
         21   -1    0    0  501  503 -0.00000000000E+00 -0.00000000000E+00 -0.30065195307E+00  0.30065195307E+00  0.00000000000E+00 0. -1.
          5    1    1    2  501    0  0.13444542581E+01 -0.14861583507E+00  0.40159474982E+02  0.40456187101E+02  0.47000000000E+01 0.  1.
         -5    1    1    2    0  502 -0.13444542581E+01  0.14861583507E+00  0.39112787615E+02  0.39417379403E+02  0.47000000000E+01 0.  1.
<mgrwt>
<rscale>  2 0.48907713E+01</rscale>
<asrwt>0</asrwt>
<pdfrwt beam="1">  1       21 0.12241970E-01 0.48907713E+01</pdfrwt>
<pdfrwt beam="2">  1       21 0.46254210E-04 0.48907713E+01</pdfrwt>
<totfact> 0.43773759E+09</totfact>
</mgrwt>
</event>
<event>
 4    1  0.3931501E+006  0.9966637E+01  0.7546771E-02  0.2076891E+00
         21   -1    0    0  503  502  0.00000000000E+00  0.00000000000E+00  0.23086803065E+03  0.23086803065E+03  0.00000000000E+00 0. -1.
         21   -1    0    0  501  503 -0.00000000000E+00 -0.00000000000E+00 -0.47126598112E+00  0.47126598112E+00  0.00000000000E+00 0.  1.
          5    1    1    2  501    0 -0.14750734098E+01  0.86641799690E+01  0.81079347846E+02  0.81689622984E+02  0.47000000000E+01 0.  1.
         -5    1    1    2    0  502  0.14750734098E+01 -0.86641799690E+01  0.14931741682E+03  0.14964967365E+03  0.47000000000E+01 0. -1.
<mgrwt>
<rscale>  2 0.99666372E+01</rscale>
<asrwt>0</asrwt>
<pdfrwt beam="1">  1       21 0.35518068E-01 0.99666372E+01</pdfrwt>
<pdfrwt beam="2">  1       21 0.72502643E-04 0.99666372E+01</pdfrwt>
<totfact> 0.70246861E+08</totfact>
</mgrwt>
</event>
<event>
 4    1  0.3931501E+006  0.4702037E+01  0.7546771E-02  0.2622892E+00
         21   -1    0    0  503  502  0.00000000000E+00  0.00000000000E+00  0.53523368559E+02  0.53523368559E+02  0.00000000000E+00 0.  1.
         21   -1    0    0  501  503 -0.00000000000E+00 -0.00000000000E+00 -0.45481575589E+00  0.45481575589E+00  0.00000000000E+00 0.  1.
          5    1    1    2  501    0 -0.10145352212E+00  0.94137703407E-01  0.18358072292E+02  0.18950672099E+02  0.47000000000E+01 0.  1.
         -5    1    1    2    0  502  0.10145352212E+00 -0.94137703407E-01  0.34710480511E+02  0.35027512216E+02  0.47000000000E+01 0.  1.
<mgrwt>
<rscale>  2 0.47020373E+01</rscale>
<asrwt>0</asrwt>
<pdfrwt beam="1">  1       21 0.82343594E-02 0.47020373E+01</pdfrwt>
<pdfrwt beam="2">  1       21 0.69971697E-04 0.47020373E+01</pdfrwt>
<totfact> 0.44203682E+09</totfact>
</mgrwt>
</event>
<event>
 4    1  0.3931501E+006  0.5075326E+01  0.7546771E-02  0.2553962E+00
         21   -1    0    0  503  502  0.00000000000E+00  0.00000000000E+00  0.45733631891E+02  0.45733631891E+02  0.00000000000E+00 0.  1.
         21   -1    0    0  501  503 -0.00000000000E+00 -0.00000000000E+00 -0.73607677503E+00  0.73607677503E+00  0.00000000000E+00 0.  1.
          5    1    1    2  501    0  0.14916379830E+01  0.12016444131E+01  0.11239808979E+02  0.12332568227E+02  0.47000000000E+01 0.  1.
         -5    1    1    2    0  502 -0.14916379830E+01 -0.12016444131E+01  0.33757746137E+02  0.34137140440E+02  0.47000000000E+01 0.  1.
<mgrwt>
<rscale>  2 0.50753259E+01</rscale>
<asrwt>0</asrwt>
<pdfrwt beam="1">  1       21 0.70359412E-02 0.50753259E+01</pdfrwt>
<pdfrwt beam="2">  1       21 0.11324262E-03 0.50753259E+01</pdfrwt>
<totfact> 0.31925140E+09</totfact>
</mgrwt>
</event>
<event>
 4    1  0.3931501E+006  0.8989530E+01  0.7546771E-02  0.2137510E+00
         21   -1    0    0  501  502  0.00000000000E+00  0.00000000000E+00  0.88859441635E+01  0.88859441635E+01  0.00000000000E+00 0.  1.
         21   -1    0    0  502  503 -0.00000000000E+00 -0.00000000000E+00 -0.98765588195E+01  0.98765588195E+01  0.00000000000E+00 0. -1.
          5    1    1    2  501    0 -0.74344378186E+01  0.18576293814E+01  0.21448305425E+01  0.92418586146E+01  0.47000000000E+01 0.  1.
         -5    1    1    2    0  503  0.74344378186E+01 -0.18576293814E+01 -0.31354451984E+01  0.95206443684E+01  0.47000000000E+01 0. -1.
<mgrwt>
<rscale>  2 0.89895302E+01</rscale>
<asrwt>0</asrwt>
<pdfrwt beam="1">  1       21 0.13670683E-02 0.89895302E+01</pdfrwt>
<pdfrwt beam="2">  1       21 0.15194706E-02 0.89895302E+01</pdfrwt>
<totfact> 0.15055333E+09</totfact>
</mgrwt>
</event>
<event>
 4    1  0.3931501E+006  0.8882996E+01  0.7546771E-02  0.2144752E+00
         21   -1    0    0  501  502  0.00000000000E+00  0.00000000000E+00  0.43145400318E+00  0.43145400318E+00  0.00000000000E+00 0. -1.
         21   -1    0    0  502  503 -0.00000000000E+00 -0.00000000000E+00 -0.20128115419E+03  0.20128115419E+03  0.00000000000E+00 0.  1.
          5    1    1    2  501    0  0.58579229267E+01 -0.47436643857E+01 -0.69936521395E+02  0.70498401667E+02  0.47000000000E+01 0. -1.
         -5    1    1    2    0  503 -0.58579229267E+01  0.47436643857E+01 -0.13091317879E+03  0.13121420653E+03  0.47000000000E+01 0.  1.
<mgrwt>
<rscale>  2 0.88829957E+01</rscale>
<asrwt>0</asrwt>
<pdfrwt beam="1">  1       21 0.66377504E-04 0.88829957E+01</pdfrwt>
<pdfrwt beam="2">  1       21 0.30966348E-01 0.88829957E+01</pdfrwt>
<totfact> 0.94671339E+08</totfact>
</mgrwt>
</event>
<event>
 4    1  0.3931501E+006  0.8721871E+01  0.7546771E-02  0.2155972E+00
         21   -1    0    0  501  502  0.00000000000E+00  0.00000000000E+00  0.48399898637E+00  0.48399898637E+00  0.00000000000E+00 0. -1.
         21   -1    0    0  502  503 -0.00000000000E+00 -0.00000000000E+00 -0.16498883168E+03  0.16498883168E+03  0.00000000000E+00 0. -1.
          5    1    1    2  501    0 -0.73331906062E+01  0.45316434241E+00 -0.64243504825E+02  0.64832853975E+02  0.47000000000E+01 0. -1.
         -5    1    1    2    0  503  0.73331906062E+01 -0.45316434241E+00 -0.10026132787E+03  0.10063997669E+03  0.47000000000E+01 0. -1.
<mgrwt>
<rscale>  2 0.87218715E+01</rscale>
<asrwt>0</asrwt>
<pdfrwt beam="1">  1       21 0.74461364E-04 0.87218715E+01</pdfrwt>
<pdfrwt beam="2">  1       21 0.25382904E-01 0.87218715E+01</pdfrwt>
<totfact> 0.11262245E+09</totfact>
</mgrwt>
</event>
<event>
 4    1  0.3931501E+006  0.1177036E+02  0.7546771E-02  0.1986334E+00
         21   -1    0    0  501  502  0.00000000000E+00  0.00000000000E+00  0.51675651982E+01  0.51675651982E+01  0.00000000000E+00 0. -1.
         21   -1    0    0  502  503 -0.00000000000E+00 -0.00000000000E+00 -0.28337090435E+02  0.28337090435E+02  0.00000000000E+00 0. -1.
          5    1    1    2  501    0  0.20460438756E+00  0.10789327375E+02 -0.76955943324E+01  0.14062845384E+02  0.47000000000E+01 0. -1.
         -5    1    1    2    0  503 -0.20460438756E+00 -0.10789327375E+02 -0.15473930905E+02  0.19441810250E+02  0.47000000000E+01 0. -1.
<mgrwt>
<rscale>  2 0.11770363E+02</rscale>
<asrwt>0</asrwt>
<pdfrwt beam="1">  1       21 0.79501002E-03 0.11770363E+02</pdfrwt>
<pdfrwt beam="2">  1       21 0.43595524E-02 0.11770363E+02</pdfrwt>
<totfact> 0.80167415E+08</totfact>
</mgrwt>
</event>
<event>
 4    1  0.3931501E+006  0.5775157E+01  0.7546771E-02  0.2445639E+00
         21   -1    0    0  501  502  0.00000000000E+00  0.00000000000E+00  0.38470571857E+03  0.38470571857E+03  0.00000000000E+00 0.  1.
         21   -1    0    0  502  503 -0.00000000000E+00 -0.00000000000E+00 -0.48586076537E+00  0.48586076537E+00  0.00000000000E+00 0.  1.
          5    1    1    2  501    0 -0.17915273378E+00 -0.33511700479E+01  0.36667887425E+03  0.36672435051E+03  0.47000000000E+01 0.  1.
         -5    1    1    2    0  503  0.17915273378E+00  0.33511700479E+01  0.17540983555E+02  0.18467228825E+02  0.47000000000E+01 0.  1.
<mgrwt>
<rscale>  2 0.57751568E+01</rscale>
<asrwt>0</asrwt>
<pdfrwt beam="1">  1       21 0.59185252E-01 0.57751568E+01</pdfrwt>
<pdfrwt beam="2">  1       21 0.74748118E-04 0.57751568E+01</pdfrwt>
<totfact> 0.19435662E+08</totfact>
</mgrwt>
</event>
<event>
 4    1  0.3931501E+006  0.6013832E+01  0.7546771E-02  0.2413627E+00
         21   -1    0    0  501  502  0.00000000000E+00  0.00000000000E+00  0.48351583476E-01  0.48351583476E-01  0.00000000000E+00 0.  1.
         21   -1    0    0  502  503 -0.00000000000E+00 -0.00000000000E+00 -0.79039217187E+03  0.79039217187E+03  0.00000000000E+00 0. -1.
          5    1    1    2  501    0 -0.23817926346E+01  0.28988338246E+01 -0.30362438829E+03  0.30368393987E+03  0.47000000000E+01 0.  1.
         -5    1    1    2    0  503  0.23817926346E+01 -0.28988338246E+01 -0.48671943200E+03  0.48675658358E+03  0.47000000000E+01 0. -1.
<mgrwt>
<rscale>  2 0.60138319E+01</rscale>
<asrwt>0</asrwt>
<pdfrwt beam="1">  1       21 0.74385871E-05 0.60138319E+01</pdfrwt>
<pdfrwt beam="2">  1       21 0.12160073E+00 0.60138319E+01</pdfrwt>
<totfact> 0.10535872E+09</totfact>
</mgrwt>
</event>
<event>
 4    1  0.3931501E+006  0.5197969E+01  0.7546771E-02  0.2533189E+00
         21   -1    0    0  501  502  0.00000000000E+00  0.00000000000E+00  0.16322897801E+01  0.16322897801E+01  0.00000000000E+00 0.  1.
         21   -1    0    0  502  503 -0.00000000000E+00 -0.00000000000E+00 -0.26318604782E+02  0.26318604782E+02  0.00000000000E+00 0.  1.
          5    1    1    2  501    0 -0.14892248063E+01 -0.16465376971E+01 -0.20856292524E+02  0.21494273999E+02  0.47000000000E+01 0.  1.
         -5    1    1    2    0  503  0.14892248063E+01  0.16465376971E+01 -0.38300224782E+01  0.64566205630E+01  0.47000000000E+01 0.  1.
<mgrwt>
<rscale>  2 0.51979685E+01</rscale>
<asrwt>0</asrwt>
<pdfrwt beam="1">  1       21 0.25112152E-03 0.51979685E+01</pdfrwt>
<pdfrwt beam="2">  1       21 0.40490158E-02 0.51979685E+01</pdfrwt>
<totfact> 0.25259372E+09</totfact>
</mgrwt>
</event>
<event>
 4    1  0.3931501E+006  0.4960750E+01  0.7546771E-02  0.2574164E+00
         21   -1    0    0  501  502  0.00000000000E+00  0.00000000000E+00  0.14107466579E+04  0.14107466579E+04  0.00000000000E+00 0. -1.
         21   -1    0    0  502  503 -0.00000000000E+00 -0.00000000000E+00 -0.18950646714E-01  0.18950646714E-01  0.00000000000E+00 0. -1.
          5    1    1    2  501    0  0.11794536227E+00  0.15827591832E+01  0.50647001979E+03  0.50649431387E+03  0.47000000000E+01 0. -1.
         -5    1    1    2    0  503 -0.11794536227E+00 -0.15827591832E+01  0.90425768749E+03  0.90427129470E+03  0.47000000000E+01 0. -1.
<mgrwt>
<rscale>  2 0.49607497E+01</rscale>
<asrwt>0</asrwt>
<pdfrwt beam="1">  1       21 0.21695387E+00 0.49607497E+01</pdfrwt>
<pdfrwt beam="2">  1       21 0.29166140E-05 0.49607497E+01</pdfrwt>
<totfact> 0.95124683E+08</totfact>
</mgrwt>
</event>
<event>
 4    1  0.3931501E+006  0.6854861E+01  0.7546771E-02  0.2315879E+00
         21   -1    0    0  503  502  0.00000000000E+00  0.00000000000E+00  0.16101808096E+01  0.16101808096E+01  0.00000000000E+00 0.  1.
         21   -1    0    0  501  503 -0.00000000000E+00 -0.00000000000E+00 -0.55008443580E+02  0.55008443580E+02  0.00000000000E+00 0.  1.
          5    1    1    2  501    0 -0.29919091826E+01  0.39934438495E+01 -0.46096493397E+02  0.46603388480E+02  0.47000000000E+01 0.  1.
         -5    1    1    2    0  502  0.29919091826E+01 -0.39934438495E+01 -0.73017693730E+01  0.10015235909E+02  0.47000000000E+01 0.  1.
<mgrwt>
<rscale>  2 0.68548606E+01</rscale>
<asrwt>0</asrwt>
<pdfrwt beam="1">  1       21 0.24772012E-03 0.68548606E+01</pdfrwt>
<pdfrwt beam="2">  1       21 0.84628377E-02 0.68548606E+01</pdfrwt>
<totfact> 0.10808969E+09</totfact>
</mgrwt>
</event>
<event>
 4    1  0.3931501E+006  0.4795839E+01  0.7546771E-02  0.2604698E+00
         21   -1    0    0  503  502  0.00000000000E+00  0.00000000000E+00  0.26077543975E+02  0.26077543975E+02  0.00000000000E+00 0.  1.
         21   -1    0    0  501  503 -0.00000000000E+00 -0.00000000000E+00 -0.16835060265E+01  0.16835060265E+01  0.00000000000E+00 0.  1.
          5    1    1    2  501    0  0.90637146308E+00  0.29759798947E+00  0.26194502824E+01  0.54645762484E+01  0.47000000000E+01 0.  1.
         -5    1    1    2    0  502 -0.90637146308E+00 -0.29759798947E+00  0.21774587666E+02  0.22296473753E+02  0.47000000000E+01 0.  1.
<mgrwt>
<rscale>  2 0.47958392E+01</rscale>
<asrwt>0</asrwt>
<pdfrwt beam="1">  1       21 0.40119296E-02 0.47958392E+01</pdfrwt>
<pdfrwt beam="2">  1       21 0.25900095E-03 0.47958392E+01</pdfrwt>
<totfact> 0.22646113E+09</totfact>
</mgrwt>
</event>
<event>
 4    1  0.3931501E+006  0.7297515E+01  0.7546771E-02  0.2272006E+00
         21   -1    0    0  501  502  0.00000000000E+00  0.00000000000E+00  0.10615173298E+04  0.10615173298E+04  0.00000000000E+00 0.  1.
         21   -1    0    0  502  503 -0.00000000000E+00 -0.00000000000E+00 -0.76863252800E-01  0.76863252800E-01  0.00000000000E+00 0. -1.
          5    1    1    2  501    0 -0.55800683920E+01 -0.16297231570E+00  0.84353686960E+03  0.84356843475E+03  0.47000000000E+01 0.  1.
         -5    1    1    2    0  503  0.55800683920E+01  0.16297231570E+00  0.21790359690E+03  0.21802575826E+03  0.47000000000E+01 0. -1.
<mgrwt>
<rscale>  2 0.72975149E+01</rscale>
<asrwt>0</asrwt>
<pdfrwt beam="1">  1       21 0.16329862E+00 0.72975149E+01</pdfrwt>
<pdfrwt beam="2">  1       21 0.11825966E-04 0.72975149E+01</pdfrwt>
<totfact> 0.33718113E+08</totfact>
</mgrwt>
</event>
<event>
 4    1  0.3931501E+006  0.6141085E+01  0.7546771E-02  0.2397415E+00
         21   -1    0    0  501  502  0.00000000000E+00  0.00000000000E+00  0.54161835437E+03  0.54161835437E+03  0.00000000000E+00 0. -1.
         21   -1    0    0  502  503 -0.00000000000E+00 -0.00000000000E+00 -0.23768738973E+00  0.23768738973E+00  0.00000000000E+00 0. -1.
          5    1    1    2  501    0  0.15407940712E+01 -0.36399011737E+01  0.49850388951E+03  0.49854171419E+03  0.47000000000E+01 0. -1.
         -5    1    1    2    0  503 -0.15407940712E+01  0.36399011737E+01  0.42876777465E+02  0.43314327569E+02  0.47000000000E+01 0. -1.
<mgrwt>
<rscale>  2 0.61410852E+01</rscale>
<asrwt>0</asrwt>
<pdfrwt beam="1">  1       21 0.83324913E-01 0.61410852E+01</pdfrwt>
<pdfrwt beam="2">  1       21 0.36567724E-04 0.61410852E+01</pdfrwt>
<totfact> 0.27450510E+08</totfact>
</mgrwt>
</event>
<event>
 4    1  0.3931501E+006  0.1020646E+02  0.7546771E-02  0.2063425E+00
         21   -1    0    0  503  502  0.00000000000E+00  0.00000000000E+00  0.52688905427E+01  0.52688905427E+01  0.00000000000E+00 0. -1.
         21   -1    0    0  501  503 -0.00000000000E+00 -0.00000000000E+00 -0.22981259701E+02  0.22981259701E+02  0.00000000000E+00 0.  1.
          5    1    1    2  501    0 -0.88227362521E+01  0.20594052109E+01 -0.14135363260E+02  0.17435031382E+02  0.47000000000E+01 0.  1.
         -5    1    1    2    0  502  0.88227362521E+01 -0.20594052109E+01 -0.35770058983E+01  0.10815118862E+02  0.47000000000E+01 0.  1.
<mgrwt>
<rscale>  2 0.10206460E+02</rscale>
<asrwt>0</asrwt>
<pdfrwt beam="1">  1       21 0.81059853E-03 0.10206460E+02</pdfrwt>
<pdfrwt beam="2">  1       21 0.35355785E-02 0.10206460E+02</pdfrwt>
<totfact> 0.99160397E+08</totfact>
</mgrwt>
</event>
<event>
 4    1  0.3931501E+006  0.1054181E+02  0.7546771E-02  0.2045403E+00
         21   -1    0    0  501  502  0.00000000000E+00  0.00000000000E+00  0.24075306916E+01  0.24075306916E+01  0.00000000000E+00 0. -1.
         21   -1    0    0  502  503 -0.00000000000E+00 -0.00000000000E+00 -0.56704957935E+02  0.56704957935E+02  0.00000000000E+00 0.  1.
          5    1    1    2  501    0  0.21650155013E+01  0.91843601188E+01 -0.14402622671E+02  0.17848397763E+02  0.47000000000E+01 0. -1.
         -5    1    1    2    0  503 -0.21650155013E+01 -0.91843601188E+01 -0.39894804572E+02  0.41264090863E+02  0.47000000000E+01 0.  1.
<mgrwt>
<rscale>  2 0.10541810E+02</rscale>
<asrwt>0</asrwt>
<pdfrwt beam="1">  1       21 0.37038936E-03 0.10541810E+02</pdfrwt>
<pdfrwt beam="2">  1       21 0.87238392E-02 0.10541810E+02</pdfrwt>
<totfact> 0.76972745E+08</totfact>
</mgrwt>
</event>
<event>
 4    1  0.3931501E+006  0.4947145E+01  0.7546771E-02  0.2576616E+00
         21   -1    0    0  503  502  0.00000000000E+00  0.00000000000E+00  0.30055997520E+00  0.30055997520E+00  0.00000000000E+00 0. -1.
         21   -1    0    0  501  503 -0.00000000000E+00 -0.00000000000E+00 -0.47297359380E+03  0.47297359380E+03  0.00000000000E+00 0. -1.
          5    1    1    2  501    0 -0.15129043580E+01  0.30881312932E+00 -0.45164198441E+03  0.45166907834E+03  0.47000000000E+01 0. -1.
         -5    1    1    2    0  502  0.15129043580E+01 -0.30881312932E+00 -0.21031049413E+02  0.21605075435E+02  0.47000000000E+01 0. -1.
<mgrwt>
<rscale>  2 0.49471452E+01</rscale>
<asrwt>0</asrwt>
<pdfrwt beam="1">  1       21 0.46239893E-04 0.49471452E+01</pdfrwt>
<pdfrwt beam="2">  1       21 0.72765331E-01 0.49471452E+01</pdfrwt>
<totfact> 0.22436564E+08</totfact>
</mgrwt>
</event>
<event>
 4    1  0.3931501E+006  0.9395835E+01  0.7546771E-02  0.2111095E+00
         21   -1    0    0  503  502  0.00000000000E+00  0.00000000000E+00  0.28032390897E+03  0.28032390897E+03  0.00000000000E+00 0. -1.
         21   -1    0    0  501  503 -0.00000000000E+00 -0.00000000000E+00 -0.32017015098E+00  0.32017015098E+00  0.00000000000E+00 0. -1.
          5    1    1    2  501    0  0.29093008190E+01  0.75978733460E+01  0.15795790793E+03  0.15823710813E+03  0.47000000000E+01 0. -1.
         -5    1    1    2    0  502 -0.29093008190E+01 -0.75978733460E+01  0.12204583089E+03  0.12240697099E+03  0.47000000000E+01 0. -1.
<mgrwt>
<rscale>  2 0.93958347E+01</rscale>
<asrwt>0</asrwt>
<pdfrwt beam="1">  1       21 0.43126559E-01 0.93958347E+01</pdfrwt>
<pdfrwt beam="2">  1       21 0.49257171E-04 0.93958347E+01</pdfrwt>
<totfact> 0.81509069E+08</totfact>
</mgrwt>
</event>
<event>
 4    1  0.3931501E+006  0.7843273E+01  0.7546771E-02  0.2223537E+00
         21   -1    0    0  503  502  0.00000000000E+00  0.00000000000E+00  0.16382843913E+02  0.16382843913E+02  0.00000000000E+00 0.  1.
         21   -1    0    0  501  503 -0.00000000000E+00 -0.00000000000E+00 -0.95127673885E+01  0.95127673885E+01  0.00000000000E+00 0. -1.
          5    1    1    2  501    0  0.29156376960E+01  0.55611144382E+01 -0.66382501551E+01  0.10275373574E+02  0.47000000000E+01 0. -1.
         -5    1    1    2    0  502 -0.29156376960E+01 -0.55611144382E+01  0.13508326680E+02  0.15620237727E+02  0.47000000000E+01 0.  1.
<mgrwt>
<rscale>  2 0.78432734E+01</rscale>
<asrwt>0</asrwt>
<pdfrwt beam="1">  1       21 0.25204375E-02 0.78432734E+01</pdfrwt>
<pdfrwt beam="2">  1       21 0.14635027E-02 0.78432734E+01</pdfrwt>
<totfact> 0.59490382E+08</totfact>
</mgrwt>
</event>
<event>
 4    1  0.3931501E+006  0.7865608E+01  0.7546771E-02  0.2221670E+00
         21   -1    0    0  503  502  0.00000000000E+00  0.00000000000E+00  0.11524376918E+01  0.11524376918E+01  0.00000000000E+00 0. -1.
         21   -1    0    0  501  503 -0.00000000000E+00 -0.00000000000E+00 -0.20833432392E+03  0.20833432392E+03  0.00000000000E+00 0.  1.
          5    1    1    2  501    0  0.79180052451E+00  0.62570630413E+01 -0.19383553800E+03  0.19399506070E+03  0.47000000000E+01 0.  1.
         -5    1    1    2    0  502 -0.79180052451E+00 -0.62570630413E+01 -0.13346348228E+02  0.15491700907E+02  0.47000000000E+01 0. -1.
<mgrwt>
<rscale>  2 0.78656078E+01</rscale>
<asrwt>0</asrwt>
<pdfrwt beam="1">  1       21 0.17729803E-03 0.78656078E+01</pdfrwt>
<pdfrwt beam="2">  1       21 0.32051448E-01 0.78656078E+01</pdfrwt>
<totfact> 0.21670536E+08</totfact>
</mgrwt>
</event>
<event>
 4    1  0.3931501E+006  0.9299875E+01  0.7546771E-02  0.2117169E+00
         21   -1    0    0  503  502  0.00000000000E+00  0.00000000000E+00  0.74274837287E+03  0.74274837287E+03  0.00000000000E+00 0.  1.
         21   -1    0    0  501  503 -0.00000000000E+00 -0.00000000000E+00 -0.11895392365E+00  0.11895392365E+00  0.00000000000E+00 0.  1.
          5    1    1    2  501    0  0.74434548069E+01  0.29987761276E+01  0.31734767608E+03  0.31748391328E+03  0.47000000000E+01 0.  1.
         -5    1    1    2    0  502 -0.74434548069E+01 -0.29987761276E+01  0.42528174287E+03  0.42538341351E+03  0.47000000000E+01 0.  1.
<mgrwt>
<rscale>  2 0.92998751E+01</rscale>
<asrwt>0</asrwt>
<pdfrwt beam="1">  1       21 0.11426527E+00 0.92998751E+01</pdfrwt>
<pdfrwt beam="2">  1       21 0.18301198E-04 0.92998751E+01</pdfrwt>
<totfact> 0.45934850E+08</totfact>
</mgrwt>
</event>
<event>
 4    1  0.3931501E+006  0.5373085E+01  0.7546771E-02  0.2504940E+00
         21   -1    0    0  501  502  0.00000000000E+00  0.00000000000E+00  0.15022337103E+01  0.15022337103E+01  0.00000000000E+00 0.  1.
         21   -1    0    0  502  503 -0.00000000000E+00 -0.00000000000E+00 -0.49827603038E+02  0.49827603038E+02  0.00000000000E+00 0.  1.
          5    1    1    2  501    0 -0.22450681822E+01  0.13189805425E+01 -0.40470748584E+01  0.67267269696E+01  0.47000000000E+01 0.  1.
         -5    1    1    2    0  503  0.22450681822E+01 -0.13189805425E+01 -0.44278294469E+02  0.44603109778E+02  0.47000000000E+01 0.  1.
<mgrwt>
<rscale>  2 0.53730849E+01</rscale>
<asrwt>0</asrwt>
<pdfrwt beam="1">  1       21 0.23111290E-03 0.53730849E+01</pdfrwt>
<pdfrwt beam="2">  1       21 0.76657842E-02 0.53730849E+01</pdfrwt>
<totfact> 0.11370898E+09</totfact>
</mgrwt>
</event>
<event>
 4    1  0.3931501E+006  0.7921352E+01  0.7546771E-02  0.2217048E+00
         21   -1    0    0  503  502  0.00000000000E+00  0.00000000000E+00  0.46078421622E+02  0.46078421622E+02  0.00000000000E+00 0. -1.
         21   -1    0    0  501  503 -0.00000000000E+00 -0.00000000000E+00 -0.13847651797E+01  0.13847651797E+01  0.00000000000E+00 0. -1.
          5    1    1    2  501    0 -0.49399876665E+01 -0.40316671223E+01  0.25405536253E+02  0.26611822377E+02  0.47000000000E+01 0. -1.
         -5    1    1    2    0  502  0.49399876665E+01  0.40316671223E+01  0.19288120190E+02  0.20851364425E+02  0.47000000000E+01 0. -1.
<mgrwt>
<rscale>  2 0.79213520E+01</rscale>
<asrwt>0</asrwt>
<pdfrwt beam="1">  1       21 0.70889868E-02 0.79213520E+01</pdfrwt>
<pdfrwt beam="2">  1       21 0.21304083E-03 0.79213520E+01</pdfrwt>
<totfact> 0.19378329E+09</totfact>
</mgrwt>
</event>
<event>
 4    1  0.3931501E+006  0.5989971E+01  0.7546771E-02  0.2416731E+00
         21   -1    0    0  501  502  0.00000000000E+00  0.00000000000E+00  0.19957141356E+03  0.19957141356E+03  0.00000000000E+00 0. -1.
         21   -1    0    0  502  503 -0.00000000000E+00 -0.00000000000E+00 -0.20352491809E+00  0.20352491809E+00  0.00000000000E+00 0. -1.
          5    1    1    2  501    0 -0.34191001655E+01 -0.14489670940E+01  0.13379936738E+03  0.13393338069E+03  0.47000000000E+01 0. -1.
         -5    1    1    2    0  503  0.34191001655E+01  0.14489670940E+01  0.65568521264E+02  0.65841557791E+02  0.47000000000E+01 0. -1.
<mgrwt>
<rscale>  2 0.59899709E+01</rscale>
<asrwt>0</asrwt>
<pdfrwt beam="1">  1       21 0.30703138E-01 0.59899709E+01</pdfrwt>
<pdfrwt beam="2">  1       21 0.31311685E-04 0.59899709E+01</pdfrwt>
<totfact> 0.20258584E+09</totfact>
</mgrwt>
</event>
<event>
 4    1  0.3931501E+006  0.6119220E+01  0.7546771E-02  0.2400161E+00
         21   -1    0    0  501  502  0.00000000000E+00  0.00000000000E+00  0.37583357914E+01  0.37583357914E+01  0.00000000000E+00 0.  1.
         21   -1    0    0  502  503 -0.00000000000E+00 -0.00000000000E+00 -0.35030751668E+02  0.35030751668E+02  0.00000000000E+00 0. -1.
          5    1    1    2  501    0  0.31477346965E+01  0.23337997438E+01  0.77011479532E+00  0.61674899077E+01  0.47000000000E+01 0.  1.
         -5    1    1    2    0  503 -0.31477346965E+01 -0.23337997438E+01 -0.32042530672E+02  0.32621597551E+02  0.47000000000E+01 0. -1.
<mgrwt>
<rscale>  2 0.61192201E+01</rscale>
<asrwt>0</asrwt>
<pdfrwt beam="1">  1       21 0.57820551E-03 0.61192201E+01</pdfrwt>
<pdfrwt beam="2">  1       21 0.53893464E-02 0.61192201E+01</pdfrwt>
<totfact> 0.60615465E+08</totfact>
</mgrwt>
</event>
<event>
 4    1  0.3931501E+006  0.4740700E+01  0.7546771E-02  0.2615317E+00
         21   -1    0    0  501  502  0.00000000000E+00  0.00000000000E+00  0.66476668247E+03  0.66476668247E+03  0.00000000000E+00 0.  1.
         21   -1    0    0  502  503 -0.00000000000E+00 -0.00000000000E+00 -0.43834370429E-01  0.43834370429E-01  0.00000000000E+00 0.  1.
          5    1    1    2  501    0 -0.36090586525E+00  0.50396831416E+00  0.49134004342E+03  0.49136291324E+03  0.47000000000E+01 0. -1.
         -5    1    1    2    0  503  0.36090586525E+00 -0.50396831416E+00  0.17338280468E+03  0.17344760361E+03  0.47000000000E+01 0. -1.
<mgrwt>
<rscale>  2 0.47407001E+01</rscale>
<asrwt>0</asrwt>
<pdfrwt beam="1">  1       21 0.10226372E+00 0.47407001E+01</pdfrwt>
<pdfrwt beam="2">  1       21 0.67442817E-05 0.47407001E+01</pdfrwt>
<totfact> 0.14338825E+09</totfact>
</mgrwt>
</event>
<event>
 4    1  0.3931501E+006  0.4853304E+01  0.7546771E-02  0.2593854E+00
         21   -1    0    0  501  502  0.00000000000E+00  0.00000000000E+00  0.44432138932E+03  0.44432138932E+03  0.00000000000E+00 0. -1.
         21   -1    0    0  502  503 -0.00000000000E+00 -0.00000000000E+00 -0.10198632918E+00  0.10198632918E+00  0.00000000000E+00 0. -1.
          5    1    1    2  501    0 -0.20612372180E+00  0.11925056520E+01  0.37609464486E+03  0.37612595822E+03  0.47000000000E+01 0. -1.
         -5    1    1    2    0  503  0.20612372180E+00 -0.11925056520E+01  0.68124758133E+02  0.68297417428E+02  0.47000000000E+01 0. -1.
<mgrwt>
<rscale>  2 0.48533037E+01</rscale>
<asrwt>0</asrwt>
<pdfrwt beam="1">  1       21 0.68355587E-01 0.48533037E+01</pdfrwt>
<pdfrwt beam="2">  1       21 0.15690560E-04 0.48533037E+01</pdfrwt>
<totfact> 0.10379361E+09</totfact>
</mgrwt>
</event>
<event>
 4    1  0.3931501E+006  0.5740962E+01  0.7546771E-02  0.2450408E+00
         21   -1    0    0  501  502  0.00000000000E+00  0.00000000000E+00  0.14175624613E+01  0.14175624613E+01  0.00000000000E+00 0. -1.
         21   -1    0    0  502  503 -0.00000000000E+00 -0.00000000000E+00 -0.33501207376E+02  0.33501207376E+02  0.00000000000E+00 0. -1.
          5    1    1    2  501    0  0.12673182334E+01  0.30434437879E+01 -0.63839500773E+01  0.85856545577E+01  0.47000000000E+01 0. -1.
         -5    1    1    2    0  503 -0.12673182334E+01 -0.30434437879E+01 -0.25699694837E+02  0.26333115280E+02  0.47000000000E+01 0. -1.
<mgrwt>
<rscale>  2 0.57409621E+01</rscale>
<asrwt>0</asrwt>
<pdfrwt beam="1">  1       21 0.21808655E-03 0.57409621E+01</pdfrwt>
<pdfrwt beam="2">  1       21 0.51540315E-02 0.57409621E+01</pdfrwt>
<totfact> 0.23545634E+09</totfact>
</mgrwt>
</event>
<event>
 4    1  0.3931501E+006  0.7399528E+01  0.7546771E-02  0.2262506E+00
         21   -1    0    0  503  502  0.00000000000E+00  0.00000000000E+00  0.44914305806E+02  0.44914305806E+02  0.00000000000E+00 0.  1.
         21   -1    0    0  501  503 -0.00000000000E+00 -0.00000000000E+00 -0.28438051808E+01  0.28438051808E+01  0.00000000000E+00 0.  1.
          5    1    1    2  501    0  0.55779063954E+01  0.12449799200E+01  0.39084556166E+02  0.39778832882E+02  0.47000000000E+01 0.  1.
         -5    1    1    2    0  502 -0.55779063954E+01 -0.12449799200E+01  0.29859444588E+01  0.79792781044E+01  0.47000000000E+01 0.  1.
<mgrwt>
<rscale>  2 0.73995280E+01</rscale>
<asrwt>0</asrwt>
<pdfrwt beam="1">  1       21 0.69098927E-02 0.73995280E+01</pdfrwt>
<pdfrwt beam="2">  1       21 0.43750852E-03 0.73995280E+01</pdfrwt>
<totfact> 0.70556613E+08</totfact>
</mgrwt>
</event>
<event>
 4    1  0.3931501E+006  0.8043734E+01  0.7546771E-02  0.2207081E+00
         21   -1    0    0  503  502  0.00000000000E+00  0.00000000000E+00  0.10061224382E+03  0.10061224382E+03  0.00000000000E+00 0. -1.
         21   -1    0    0  501  503 -0.00000000000E+00 -0.00000000000E+00 -0.72302813817E+00  0.72302813817E+00  0.00000000000E+00 0.  1.
          5    1    1    2  501    0 -0.53404389415E+00  0.65058788761E+01  0.33096202198E+02  0.34059657409E+02  0.47000000000E+01 0.  1.
         -5    1    1    2    0  502  0.53404389415E+00 -0.65058788761E+01  0.66793013488E+02  0.67275614554E+02  0.47000000000E+01 0. -1.
<mgrwt>
<rscale>  2 0.80437344E+01</rscale>
<asrwt>0</asrwt>
<pdfrwt beam="1">  1       21 0.15478796E-01 0.80437344E+01</pdfrwt>
<pdfrwt beam="2">  1       21 0.11123518E-03 0.80437344E+01</pdfrwt>
<totfact> 0.14019393E+09</totfact>
</mgrwt>
</event>
<event>
 4    1  0.3931501E+006  0.4809890E+01  0.7546771E-02  0.2602026E+00
         21   -1    0    0  503  502  0.00000000000E+00  0.00000000000E+00  0.18074610597E+00  0.18074610597E+00  0.00000000000E+00 0. -1.
         21   -1    0    0  501  503 -0.00000000000E+00 -0.00000000000E+00 -0.15283757383E+03  0.15283757383E+03  0.00000000000E+00 0. -1.
          5    1    1    2  501    0 -0.89529107056E+00  0.49345006679E+00 -0.45484085251E+02  0.45737698348E+02  0.47000000000E+01 0. -1.
         -5    1    1    2    0  502  0.89529107056E+00 -0.49345006679E+00 -0.10717274248E+03  0.10728062159E+03  0.47000000000E+01 0. -1.
<mgrwt>
<rscale>  2 0.48098897E+01</rscale>
<asrwt>0</asrwt>
<pdfrwt beam="1">  1       21 0.27807056E-04 0.48098897E+01</pdfrwt>
<pdfrwt beam="2">  1       21 0.23513504E-01 0.48098897E+01</pdfrwt>
<totfact> 0.30354758E+09</totfact>
</mgrwt>
</event>
<event>
 4    1  0.3931501E+006  0.8784589E+01  0.7546771E-02  0.2151566E+00
         21   -1    0    0  501  502  0.00000000000E+00  0.00000000000E+00  0.63681798827E+01  0.63681798827E+01  0.00000000000E+00 0.  1.
         21   -1    0    0  502  503 -0.00000000000E+00 -0.00000000000E+00 -0.45902072182E+02  0.45902072182E+02  0.00000000000E+00 0.  1.
          5    1    1    2  501    0 -0.71320426833E+01  0.20525511851E+01  0.26545743882E+01  0.91769147531E+01  0.47000000000E+01 0.  1.
         -5    1    1    2    0  503  0.71320426833E+01 -0.20525511851E+01 -0.42188466688E+02  0.43093337312E+02  0.47000000000E+01 0.  1.
<mgrwt>
<rscale>  2 0.87845887E+01</rscale>
<asrwt>0</asrwt>
<pdfrwt beam="1">  1       21 0.97971998E-03 0.87845887E+01</pdfrwt>
<pdfrwt beam="2">  1       21 0.70618573E-02 0.87845887E+01</pdfrwt>
<totfact> 0.24104995E+08</totfact>
</mgrwt>
</event>
<event>
 4    1  0.3931501E+006  0.9161992E+01  0.7546771E-02  0.2126071E+00
         21   -1    0    0  501  502  0.00000000000E+00  0.00000000000E+00  0.33868057398E+00  0.33868057398E+00  0.00000000000E+00 0.  1.
         21   -1    0    0  502  503 -0.00000000000E+00 -0.00000000000E+00 -0.29428599257E+03  0.29428599257E+03  0.00000000000E+00 0. -1.
          5    1    1    2  501    0 -0.35367773915E+00 -0.78566543591E+01 -0.88456938327E+02  0.88930152614E+02  0.47000000000E+01 0.  1.
         -5    1    1    2    0  503  0.35367773915E+00  0.78566543591E+01 -0.20549037367E+03  0.20569452053E+03  0.47000000000E+01 0. -1.
<mgrwt>
<rscale>  2 0.91619925E+01</rscale>
<asrwt>0</asrwt>
<pdfrwt beam="1">  1       21 0.52104627E-04 0.91619925E+01</pdfrwt>
<pdfrwt beam="2">  1       21 0.45274835E-01 0.91619925E+01</pdfrwt>
<totfact> 0.68155030E+08</totfact>
</mgrwt>
</event>
<event>
 4    1  0.3931501E+006  0.4917259E+01  0.7546771E-02  0.2582045E+00
         21   -1    0    0  501  502  0.00000000000E+00  0.00000000000E+00  0.91266736462E+00  0.91266736462E+00  0.00000000000E+00 0. -1.
         21   -1    0    0  502  503 -0.00000000000E+00 -0.00000000000E+00 -0.42744657297E+02  0.42744657297E+02  0.00000000000E+00 0. -1.
          5    1    1    2  501    0 -0.10171605053E+01 -0.10270433194E+01 -0.74563679428E+01  0.89317890913E+01  0.47000000000E+01 0. -1.
         -5    1    1    2    0  503  0.10171605053E+01  0.10270433194E+01 -0.34375621989E+02  0.34725535570E+02  0.47000000000E+01 0. -1.
<mgrwt>
<rscale>  2 0.49172587E+01</rscale>
<asrwt>0</asrwt>
<pdfrwt beam="1">  1       21 0.14041037E-03 0.49172587E+01</pdfrwt>
<pdfrwt beam="2">  1       21 0.65761007E-02 0.49172587E+01</pdfrwt>
<totfact> 0.25663774E+09</totfact>
</mgrwt>
</event>
<event>
 4    1  0.3931501E+006  0.5073417E+01  0.7546771E-02  0.2554292E+00
         21   -1    0    0  501  502  0.00000000000E+00  0.00000000000E+00  0.18459262115E+02  0.18459262115E+02  0.00000000000E+00 0. -1.
         21   -1    0    0  502  503 -0.00000000000E+00 -0.00000000000E+00 -0.29691826251E+01  0.29691826251E+01  0.00000000000E+00 0. -1.
          5    1    1    2  501    0  0.10138950316E+01 -0.16191270640E+01  0.15547881564E+02  0.16354698918E+02  0.47000000000E+01 0. -1.
         -5    1    1    2    0  503 -0.10138950316E+01  0.16191270640E+01 -0.57802073961E-01  0.50737458218E+01  0.47000000000E+01 0. -1.
<mgrwt>
<rscale>  2 0.50734166E+01</rscale>
<asrwt>0</asrwt>
<pdfrwt beam="1">  1       21 0.28398864E-02 0.50734166E+01</pdfrwt>
<pdfrwt beam="2">  1       21 0.45679734E-03 0.50734166E+01</pdfrwt>
<totfact> 0.18200843E+09</totfact>
</mgrwt>
</event>
<event>
 4    1  0.3931501E+006  0.5862522E+01  0.7546771E-02  0.2433667E+00
         21   -1    0    0  503  502  0.00000000000E+00  0.00000000000E+00  0.41288236423E+01  0.41288236423E+01  0.00000000000E+00 0.  1.
         21   -1    0    0  501  503 -0.00000000000E+00 -0.00000000000E+00 -0.87033802806E+01  0.87033802806E+01  0.00000000000E+00 0.  1.
          5    1    1    2  501    0 -0.34307255793E+01 -0.71364459603E+00 -0.36264873431E+01  0.68935170312E+01  0.47000000000E+01 0.  1.
         -5    1    1    2    0  502  0.34307255793E+01  0.71364459603E+00 -0.94806929525E+00  0.59386868918E+01  0.47000000000E+01 0.  1.
<mgrwt>
<rscale>  2 0.58625222E+01</rscale>
<asrwt>0</asrwt>
<pdfrwt beam="1">  1       21 0.63520364E-03 0.58625222E+01</pdfrwt>
<pdfrwt beam="2">  1       21 0.13389816E-02 0.58625222E+01</pdfrwt>
<totfact> 0.38649756E+09</totfact>
</mgrwt>
</event>
<event>
 4    1  0.3931501E+006  0.6035492E+01  0.7546771E-02  0.2410827E+00
         21   -1    0    0  501  502  0.00000000000E+00  0.00000000000E+00  0.61291071853E+00  0.61291071853E+00  0.00000000000E+00 0. -1.
         21   -1    0    0  502  503 -0.00000000000E+00 -0.00000000000E+00 -0.98211024783E+02  0.98211024783E+02  0.00000000000E+00 0.  1.
          5    1    1    2  501    0  0.30633813334E+01 -0.22255018883E+01 -0.17750280311E+02  0.18748322991E+02  0.47000000000E+01 0. -1.
         -5    1    1    2    0  503 -0.30633813334E+01  0.22255018883E+01 -0.79847833753E+02  0.80075612510E+02  0.47000000000E+01 0. -1.
<mgrwt>
<rscale>  2 0.60354920E+01</rscale>
<asrwt>0</asrwt>
<pdfrwt beam="1">  1       21 0.94293973E-04 0.60354920E+01</pdfrwt>
<pdfrwt beam="2">  1       21 0.15109386E-01 0.60354920E+01</pdfrwt>
<totfact> 0.14795456E+09</totfact>
</mgrwt>
</event>
<event>
 4    1  0.3931501E+006  0.5290480E+01  0.7546771E-02  0.2518066E+00
         21   -1    0    0  501  502  0.00000000000E+00  0.00000000000E+00  0.11968442013E+02  0.11968442013E+02  0.00000000000E+00 0. -1.
         21   -1    0    0  502  503 -0.00000000000E+00 -0.00000000000E+00 -0.33159997606E+01  0.33159997606E+01  0.00000000000E+00 0. -1.
          5    1    1    2  501    0  0.24283710141E+01 -0.46809479454E-01  0.84753083826E+01  0.99909974021E+01  0.47000000000E+01 0. -1.
         -5    1    1    2    0  503 -0.24283710141E+01  0.46809479454E-01  0.17713387020E+00  0.52934443718E+01  0.47000000000E+01 0. -1.
<mgrwt>
<rscale>  2 0.52904798E+01</rscale>
<asrwt>0</asrwt>
<pdfrwt beam="1">  1       21 0.18412987E-02 0.52904798E+01</pdfrwt>
<pdfrwt beam="2">  1       21 0.51015382E-03 0.52904798E+01</pdfrwt>
<totfact> 0.30245430E+09</totfact>
</mgrwt>
</event>
<event>
 4    1  0.3931501E+006  0.5950242E+01  0.7546771E-02  0.2421945E+00
         21   -1    0    0  501  502  0.00000000000E+00  0.00000000000E+00  0.11298678965E+02  0.11298678965E+02  0.00000000000E+00 0. -1.
         21   -1    0    0  502  503 -0.00000000000E+00 -0.00000000000E+00 -0.60456292926E+01  0.60456292926E+01  0.00000000000E+00 0. -1.
          5    1    1    2  501    0  0.30491598510E+01 -0.20044960831E+01  0.86452589366E+01  0.10495040849E+02  0.47000000000E+01 0. -1.
         -5    1    1    2    0  503 -0.30491598510E+01  0.20044960831E+01 -0.33922092640E+01  0.68492674086E+01  0.47000000000E+01 0. -1.
<mgrwt>
<rscale>  2 0.59502420E+01</rscale>
<asrwt>0</asrwt>
<pdfrwt beam="1">  1       21 0.17382583E-02 0.59502420E+01</pdfrwt>
<pdfrwt beam="2">  1       21 0.93009682E-03 0.59502420E+01</pdfrwt>
<totfact> 0.15824517E+09</totfact>
</mgrwt>
</event>
<event>
 4    1  0.3931501E+006  0.5014602E+01  0.7546771E-02  0.2564570E+00
         21   -1    0    0  503  502  0.00000000000E+00  0.00000000000E+00  0.15646217033E+01  0.15646217033E+01  0.00000000000E+00 0. -1.
         21   -1    0    0  501  503 -0.00000000000E+00 -0.00000000000E+00 -0.10757469104E+03  0.10757469104E+03  0.00000000000E+00 0. -1.
          5    1    1    2  501    0  0.10171475816E+01 -0.14218461229E+01 -0.10333349579E+03  0.10345509938E+03  0.47000000000E+01 0. -1.
         -5    1    1    2    0  502 -0.10171475816E+01  0.14218461229E+01 -0.26765735459E+01  0.56842133621E+01  0.47000000000E+01 0. -1.
<mgrwt>
<rscale>  2 0.50146022E+01</rscale>
<asrwt>0</asrwt>
<pdfrwt beam="1">  1       21 0.24071106E-03 0.50146022E+01</pdfrwt>
<pdfrwt beam="2">  1       21 0.16549950E-01 0.50146022E+01</pdfrwt>
<totfact> 0.31225093E+08</totfact>
</mgrwt>
</event>
<event>
 4    1  0.3931501E+006  0.5155590E+01  0.7546771E-02  0.2540271E+00
         21   -1    0    0  503  502  0.00000000000E+00  0.00000000000E+00  0.32485664587E+03  0.32485664587E+03  0.00000000000E+00 0. -1.
         21   -1    0    0  501  503 -0.00000000000E+00 -0.00000000000E+00 -0.13264395438E+00  0.13264395438E+00  0.00000000000E+00 0. -1.
          5    1    1    2  501    0  0.22029738550E+00 -0.21075039791E+01  0.61778866147E+02  0.61993615852E+02  0.47000000000E+01 0. -1.
         -5    1    1    2    0  502 -0.22029738550E+00  0.21075039791E+01  0.26294513576E+03  0.26299567397E+03  0.47000000000E+01 0. -1.
<mgrwt>
<rscale>  2 0.51555896E+01</rscale>
<asrwt>0</asrwt>
<pdfrwt beam="1">  1       21 0.49977309E-01 0.51555896E+01</pdfrwt>
<pdfrwt beam="2">  1       21 0.20407022E-04 0.51555896E+01</pdfrwt>
<totfact> 0.13635611E+09</totfact>
</mgrwt>
</event>
<event>
 4    1  0.3931501E+006  0.5754886E+01  0.7546771E-02  0.2448461E+00
         21   -1    0    0  503  502  0.00000000000E+00  0.00000000000E+00  0.42414439448E+03  0.42414439448E+03  0.00000000000E+00 0.  1.
         21   -1    0    0  501  503 -0.00000000000E+00 -0.00000000000E+00 -0.25619367889E+00  0.25619367889E+00  0.00000000000E+00 0. -1.
          5    1    1    2  501    0 -0.16266257261E+01 -0.28953060090E+01  0.35012232669E+02  0.35482039747E+02  0.47000000000E+01 0. -1.
         -5    1    1    2    0  502  0.16266257261E+01  0.28953060090E+01  0.38887596813E+03  0.38891854841E+03  0.47000000000E+01 0.  1.
<mgrwt>
<rscale>  2 0.57548856E+01</rscale>
<asrwt>0</asrwt>
<pdfrwt beam="1">  1       21 0.65252422E-01 0.57548856E+01</pdfrwt>
<pdfrwt beam="2">  1       21 0.39414752E-04 0.57548856E+01</pdfrwt>
<totfact> 0.38003315E+08</totfact>
</mgrwt>
</event>
<event>
 4    1  0.3931501E+006  0.7679066E+01  0.7546771E-02  0.2237532E+00
         21   -1    0    0  503  502  0.00000000000E+00  0.00000000000E+00  0.50607684029E+01  0.50607684029E+01  0.00000000000E+00 0. -1.
         21   -1    0    0  501  503 -0.00000000000E+00 -0.00000000000E+00 -0.27224921289E+02  0.27224921289E+02  0.00000000000E+00 0.  1.
          5    1    1    2  501    0  0.11188988570E+01  0.59687626468E+01 -0.23291125295E+02  0.24524367060E+02  0.47000000000E+01 0.  1.
         -5    1    1    2    0  502 -0.11188988570E+01 -0.59687626468E+01  0.11269724090E+01  0.77613226319E+01  0.47000000000E+01 0. -1.
<mgrwt>
<rscale>  2 0.76790665E+01</rscale>
<asrwt>0</asrwt>
<pdfrwt beam="1">  1       21 0.77857975E-03 0.76790665E+01</pdfrwt>
<pdfrwt beam="2">  1       21 0.41884494E-02 0.76790665E+01</pdfrwt>
<totfact> 0.68303430E+08</totfact>
</mgrwt>
</event>
<event>
 4    1  0.3931501E+006  0.7400457E+01  0.7546771E-02  0.2262420E+00
         21   -1    0    0  501  502  0.00000000000E+00  0.00000000000E+00  0.75021266729E+02  0.75021266729E+02  0.00000000000E+00 0.  1.
         21   -1    0    0  502  503 -0.00000000000E+00 -0.00000000000E+00 -0.75134499526E+00  0.75134499526E+00  0.00000000000E+00 0.  1.
          5    1    1    2  501    0 -0.55678883614E+01 -0.12943675251E+01  0.43518211837E+02  0.44142966932E+02  0.47000000000E+01 0.  1.
         -5    1    1    2    0  503  0.55678883614E+01  0.12943675251E+01  0.30751709897E+02  0.31629644793E+02  0.47000000000E+01 0.  1.
<mgrwt>
<rscale>  2 0.74004573E+01</rscale>
<asrwt>0</asrwt>
<pdfrwt beam="1">  1       21 0.11541727E-01 0.74004573E+01</pdfrwt>
<pdfrwt beam="2">  1       21 0.11559160E-03 0.74004573E+01</pdfrwt>
<totfact> 0.20044357E+09</totfact>
</mgrwt>
</event>
<event>
 4    1  0.3931501E+006  0.5701065E+01  0.7546771E-02  0.2456034E+00
         21   -1    0    0  501  502  0.00000000000E+00  0.00000000000E+00  0.35612310291E+03  0.35612310291E+03  0.00000000000E+00 0. -1.
         21   -1    0    0  502  503 -0.00000000000E+00 -0.00000000000E+00 -0.98083008127E-01  0.98083008127E-01  0.00000000000E+00 0. -1.
          5    1    1    2  501    0  0.32088182398E+01  0.34003577313E+00  0.22496635767E+03  0.22503858385E+03  0.47000000000E+01 0.  1.
         -5    1    1    2    0  503 -0.32088182398E+01 -0.34003577313E+00  0.13105866223E+03  0.13118260207E+03  0.47000000000E+01 0.  1.
<mgrwt>
<rscale>  2 0.57010647E+01</rscale>
<asrwt>0</asrwt>
<pdfrwt beam="1">  1       21 0.54787134E-01 0.57010647E+01</pdfrwt>
<pdfrwt beam="2">  1       21 0.15089979E-04 0.57010647E+01</pdfrwt>
<totfact> 0.18712666E+09</totfact>
</mgrwt>
</event>
<event>
 4    1  0.3931501E+006  0.7147246E+01  0.7546771E-02  0.2286400E+00
         21   -1    0    0  503  502  0.00000000000E+00  0.00000000000E+00  0.21070838848E+02  0.21070838848E+02  0.00000000000E+00 0. -1.
         21   -1    0    0  501  503 -0.00000000000E+00 -0.00000000000E+00 -0.43933039544E+01  0.43933039544E+01  0.00000000000E+00 0. -1.
          5    1    1    2  501    0 -0.53374303009E+01 -0.71061245217E+00 -0.18479189055E+00  0.71496349779E+01  0.47000000000E+01 0. -1.
         -5    1    1    2    0  502  0.53374303009E+01  0.71061245217E+00  0.16862326784E+02  0.18314507824E+02  0.47000000000E+01 0. -1.
<mgrwt>
<rscale>  2 0.71472465E+01</rscale>
<asrwt>0</asrwt>
<pdfrwt beam="1">  1       21 0.32416675E-02 0.71472465E+01</pdfrwt>
<pdfrwt beam="2">  1       21 0.67589293E-03 0.71472465E+01</pdfrwt>
<totfact> 0.11612424E+09</totfact>
</mgrwt>
</event>
<event>
 4    1  0.3931501E+006  0.4809176E+01  0.7546771E-02  0.2602161E+00
         21   -1    0    0  503  502  0.00000000000E+00  0.00000000000E+00  0.21755499148E-01  0.21755499148E-01  0.00000000000E+00 0.  1.
         21   -1    0    0  501  503 -0.00000000000E+00 -0.00000000000E+00 -0.18148095868E+04  0.18148095868E+04  0.00000000000E+00 0.  1.
          5    1    1    2  501    0  0.58488132915E+00 -0.83432095085E+00 -0.14913995394E+04  0.14914072932E+04  0.47000000000E+01 0.  1.
         -5    1    1    2    0  502 -0.58488132915E+00  0.83432095085E+00 -0.32338829187E+03  0.32342404904E+03  0.47000000000E+01 0.  1.
<mgrwt>
<rscale>  2 0.48091764E+01</rscale>
<asrwt>0</asrwt>
<pdfrwt beam="1">  1       21 0.33473056E-05 0.48091764E+01</pdfrwt>
<pdfrwt beam="2">  1       21 0.27917597E+00 0.48091764E+01</pdfrwt>
<totfact> 0.43721358E+08</totfact>
</mgrwt>
</event>
<event>
 4    1  0.3931501E+006  0.5622959E+01  0.7546771E-02  0.2467241E+00
         21   -1    0    0  501  502  0.00000000000E+00  0.00000000000E+00  0.93553936990E+01  0.93553936990E+01  0.00000000000E+00 0.  1.
         21   -1    0    0  502  503 -0.00000000000E+00 -0.00000000000E+00 -0.23346181082E+02  0.23346181082E+02  0.00000000000E+00 0.  1.
          5    1    1    2  501    0 -0.29895507200E+01 -0.76828289060E+00  0.81256715158E+01  0.98815084724E+01  0.47000000000E+01 0.  1.
         -5    1    1    2    0  503  0.29895507200E+01  0.76828289060E+00 -0.22116458899E+02  0.22820066309E+02  0.47000000000E+01 0.  1.
<mgrwt>
<rscale>  2 0.56229594E+01</rscale>
<asrwt>0</asrwt>
<pdfrwt beam="1">  1       21 0.14392913E-02 0.56229594E+01</pdfrwt>
<pdfrwt beam="2">  1       21 0.35917202E-02 0.56229594E+01</pdfrwt>
<totfact> 0.28639569E+08</totfact>
</mgrwt>
</event>
<event>
 4    1  0.3931501E+006  0.7201194E+01  0.7546771E-02  0.2281176E+00
         21   -1    0    0  503  502  0.00000000000E+00  0.00000000000E+00  0.34613934796E+00  0.34613934796E+00  0.00000000000E+00 0. -1.
         21   -1    0    0  501  503 -0.00000000000E+00 -0.00000000000E+00 -0.29815325890E+03  0.29815325890E+03  0.00000000000E+00 0.  1.
          5    1    1    2  501    0  0.14761514331E+01  0.52524449321E+01 -0.25417701040E+03  0.25427899995E+03  0.47000000000E+01 0.  1.
         -5    1    1    2    0  502 -0.14761514331E+01 -0.52524449321E+01 -0.43630109155E+02  0.44220398299E+02  0.47000000000E+01 0. -1.
<mgrwt>
<rscale>  2 0.72011944E+01</rscale>
<asrwt>0</asrwt>
<pdfrwt beam="1">  1       21 0.53252365E-04 0.72011944E+01</pdfrwt>
<pdfrwt beam="2">  1       21 0.45869596E-01 0.72011944E+01</pdfrwt>
<totfact> 0.56184104E+08</totfact>
</mgrwt>
</event>
<event>
 4    1  0.3931501E+006  0.7704733E+01  0.7546771E-02  0.2235312E+00
         21   -1    0    0  501  502  0.00000000000E+00  0.00000000000E+00  0.84464308612E-01  0.84464308612E-01  0.00000000000E+00 0. -1.
         21   -1    0    0  502  503 -0.00000000000E+00 -0.00000000000E+00 -0.70954686336E+03  0.70954686336E+03  0.00000000000E+00 0. -1.
          5    1    1    2  501    0  0.64486931134E+00 -0.60710011086E+01 -0.38928780416E+03  0.38936404223E+03  0.47000000000E+01 0. -1.
         -5    1    1    2    0  503 -0.64486931134E+00  0.60710011086E+01 -0.32017459490E+03  0.32026728545E+03  0.47000000000E+01 0. -1.
<mgrwt>
<rscale>  2 0.77047330E+01</rscale>
<asrwt>0</asrwt>
<pdfrwt beam="1">  1       21 0.12994352E-04 0.77047330E+01</pdfrwt>
<pdfrwt beam="2">  1       21 0.10916238E+00 0.77047330E+01</pdfrwt>
<totfact> 0.72782475E+08</totfact>
</mgrwt>
</event>
<event>
 4    1  0.3931501E+006  0.5821332E+01  0.7546771E-02  0.2439274E+00
         21   -1    0    0  501  502  0.00000000000E+00  0.00000000000E+00  0.23585982695E+01  0.23585982695E+01  0.00000000000E+00 0. -1.
         21   -1    0    0  502  503 -0.00000000000E+00 -0.00000000000E+00 -0.25675795482E+02  0.25675795482E+02  0.00000000000E+00 0. -1.
          5    1    1    2  501    0 -0.31096095274E+01 -0.14588474687E+01 -0.23562692097E+01  0.62801203761E+01  0.47000000000E+01 0. -1.
         -5    1    1    2    0  503  0.31096095274E+01  0.14588474687E+01 -0.20960928003E+02  0.21754273376E+02  0.47000000000E+01 0. -1.
<mgrwt>
<rscale>  2 0.58213321E+01</rscale>
<asrwt>0</asrwt>
<pdfrwt beam="1">  1       21 0.36286129E-03 0.58213321E+01</pdfrwt>
<pdfrwt beam="2">  1       21 0.39501222E-02 0.58213321E+01</pdfrwt>
<totfact> 0.17565783E+09</totfact>
</mgrwt>
</event>
<event>
 4    1  0.3931501E+006  0.5579297E+01  0.7546771E-02  0.2473622E+00
         21   -1    0    0  503  502  0.00000000000E+00  0.00000000000E+00  0.25705380245E+02  0.25705380245E+02  0.00000000000E+00 0.  1.
         21   -1    0    0  501  503 -0.00000000000E+00 -0.00000000000E+00 -0.21921878010E+02  0.21921878010E+02  0.00000000000E+00 0.  1.
          5    1    1    2  501    0  0.93217499795E+00 -0.28582525014E+01 -0.21254796884E+02  0.21974870834E+02  0.47000000000E+01 0.  1.
         -5    1    1    2    0  502 -0.93217499795E+00  0.28582525014E+01  0.25038299120E+02  0.25652387421E+02  0.47000000000E+01 0.  1.
<mgrwt>
<rscale>  2 0.55792972E+01</rscale>
<asrwt>0</asrwt>
<pdfrwt beam="1">  1       21 0.39546739E-02 0.55792972E+01</pdfrwt>
<pdfrwt beam="2">  1       21 0.33725966E-02 0.55792972E+01</pdfrwt>
<totfact> 0.72991571E+07</totfact>
</mgrwt>
</event>
<event>
 4    1  0.3931501E+006  0.7642831E+01  0.7546771E-02  0.2240685E+00
         21   -1    0    0  501  502  0.00000000000E+00  0.00000000000E+00  0.13418083419E+01  0.13418083419E+01  0.00000000000E+00 0. -1.
         21   -1    0    0  502  503 -0.00000000000E+00 -0.00000000000E+00 -0.54759369685E+02  0.54759369685E+02  0.00000000000E+00 0.  1.
          5    1    1    2  501    0  0.42527521494E+01  0.42704762793E+01 -0.14007909758E+02  0.15957268071E+02  0.47000000000E+01 0. -1.
         -5    1    1    2    0  503 -0.42527521494E+01 -0.42704762793E+01 -0.39409651585E+02  0.40143909956E+02  0.47000000000E+01 0. -1.
<mgrwt>
<rscale>  2 0.76428312E+01</rscale>
<asrwt>0</asrwt>
<pdfrwt beam="1">  1       21 0.20643210E-03 0.76428312E+01</pdfrwt>
<pdfrwt beam="2">  1       21 0.84245164E-02 0.76428312E+01</pdfrwt>
<totfact> 0.15127958E+09</totfact>
</mgrwt>
</event>
<event>
 4    1  0.3931501E+006  0.5922671E+01  0.7546771E-02  0.2425598E+00
         21   -1    0    0  503  502  0.00000000000E+00  0.00000000000E+00  0.82676018822E+02  0.82676018822E+02  0.00000000000E+00 0. -1.
         21   -1    0    0  501  503 -0.00000000000E+00 -0.00000000000E+00 -0.47151333484E+00  0.47151333484E+00  0.00000000000E+00 0.  1.
          5    1    1    2  501    0  0.27713300095E+01 -0.23038569012E+01  0.54260045388E+02  0.54582328204E+02  0.47000000000E+01 0.  1.
         -5    1    1    2    0  502 -0.27713300095E+01  0.23038569012E+01  0.27944460099E+02  0.28565203953E+02  0.47000000000E+01 0.  1.
<mgrwt>
<rscale>  2 0.59226706E+01</rscale>
<asrwt>0</asrwt>
<pdfrwt beam="1">  1       21 0.12719376E-01 0.59226706E+01</pdfrwt>
<pdfrwt beam="2">  1       21 0.72540579E-04 0.59226706E+01</pdfrwt>
<totfact> 0.27123269E+09</totfact>
</mgrwt>
</event>
<event>
 4    1  0.3931501E+006  0.4838670E+01  0.7546771E-02  0.2596595E+00
         21   -1    0    0  501  502  0.00000000000E+00  0.00000000000E+00  0.11816117503E+02  0.11816117503E+02  0.00000000000E+00 0.  1.
         21   -1    0    0  502  503 -0.00000000000E+00 -0.00000000000E+00 -0.22647892176E+01  0.22647892176E+01  0.00000000000E+00 0.  1.
          5    1    1    2  501    0  0.11379653395E+01  0.16660698033E+00  0.72660178051E+01  0.87297043331E+01  0.47000000000E+01 0.  1.
         -5    1    1    2    0  503 -0.11379653395E+01 -0.16660698033E+00  0.22853104804E+01  0.53512023875E+01  0.47000000000E+01 0.  1.
<mgrwt>
<rscale>  2 0.48386695E+01</rscale>
<asrwt>0</asrwt>
<pdfrwt beam="1">  1       21 0.18178642E-02 0.48386695E+01</pdfrwt>
<pdfrwt beam="2">  1       21 0.34842912E-03 0.48386695E+01</pdfrwt>
<totfact> 0.47323464E+09</totfact>
</mgrwt>
</event>
<event>
 4    1  0.3931501E+006  0.7936131E+01  0.7546771E-02  0.2215831E+00
         21   -1    0    0  503  502  0.00000000000E+00  0.00000000000E+00  0.11244473390E+02  0.11244473390E+02  0.00000000000E+00 0.  1.
         21   -1    0    0  501  503 -0.00000000000E+00 -0.00000000000E+00 -0.67515713033E+03  0.67515713033E+03  0.00000000000E+00 0.  1.
          5    1    1    2  501    0  0.36267222277E+01 -0.52667886211E+01 -0.67373055228E+03  0.67377729203E+03  0.47000000000E+01 0.  1.
         -5    1    1    2    0  502 -0.36267222277E+01  0.52667886211E+01  0.98178953468E+01  0.12624311686E+02  0.47000000000E+01 0.  1.
<mgrwt>
<rscale>  2 0.79361311E+01</rscale>
<asrwt>0</asrwt>
<pdfrwt beam="1">  1       21 0.17299190E-02 0.79361311E+01</pdfrwt>
<pdfrwt beam="2">  1       21 0.10387033E+00 0.79361311E+01</pdfrwt>
<totfact> 0.94411032E+05</totfact>
</mgrwt>
</event>
<event>
 4    1  0.3931501E+006  0.4873481E+01  0.7546771E-02  0.2590100E+00
         21   -1    0    0  503  502  0.00000000000E+00  0.00000000000E+00  0.19107985041E+03  0.19107985041E+03  0.00000000000E+00 0.  1.
         21   -1    0    0  501  503 -0.00000000000E+00 -0.00000000000E+00 -0.15170620210E+01  0.15170620210E+01  0.00000000000E+00 0.  1.
          5    1    1    2  501    0  0.11910506894E+01 -0.49215171059E+00  0.25122591469E+01  0.54829062615E+01  0.47000000000E+01 0.  1.
         -5    1    1    2    0  502 -0.11910506894E+01  0.49215171059E+00  0.18705052924E+03  0.18711400617E+03  0.47000000000E+01 0.  1.
<mgrwt>
<rscale>  2 0.48734808E+01</rscale>
<asrwt>0</asrwt>
<pdfrwt beam="1">  1       21 0.29396881E-01 0.48734808E+01</pdfrwt>
<pdfrwt beam="2">  1       21 0.23339431E-03 0.48734808E+01</pdfrwt>
<totfact> 0.12650296E+08</totfact>
</mgrwt>
</event>
<event>
 4    1  0.3931501E+006  0.5091601E+01  0.7546771E-02  0.2551156E+00
         21   -1    0    0  501  502  0.00000000000E+00  0.00000000000E+00  0.35840463067E+02  0.35840463067E+02  0.00000000000E+00 0.  1.
         21   -1    0    0  502  503 -0.00000000000E+00 -0.00000000000E+00 -0.82262737239E+00  0.82262737239E+00  0.00000000000E+00 0.  1.
          5    1    1    2  501    0 -0.10342987678E+01  0.16627162813E+01  0.11139915262E+02  0.12248351376E+02  0.47000000000E+01 0.  1.
         -5    1    1    2    0  503  0.10342987678E+01 -0.16627162813E+01  0.23877920433E+02  0.24414739064E+02  0.47000000000E+01 0.  1.
<mgrwt>
<rscale>  2 0.50916009E+01</rscale>
<asrwt>0</asrwt>
<pdfrwt beam="1">  1       21 0.55139162E-02 0.50916009E+01</pdfrwt>
<pdfrwt beam="2">  1       21 0.12655809E-03 0.50916009E+01</pdfrwt>
<totfact> 0.39590995E+09</totfact>
</mgrwt>
</event>
<event>
 4    1  0.3931501E+006  0.1002978E+02  0.7546771E-02  0.2073297E+00
         21   -1    0    0  503  502  0.00000000000E+00  0.00000000000E+00  0.49336303965E+01  0.49336303965E+01  0.00000000000E+00 0.  1.
         21   -1    0    0  501  503 -0.00000000000E+00 -0.00000000000E+00 -0.20499821763E+02  0.20499821763E+02  0.00000000000E+00 0. -1.
          5    1    1    2  501    0  0.18527415631E+01 -0.86645115779E+01 -0.87141377943E+01  0.13286557480E+02  0.47000000000E+01 0.  1.
         -5    1    1    2    0  502 -0.18527415631E+01  0.86645115779E+01 -0.68520535720E+01  0.12146894679E+02  0.47000000000E+01 0.  1.
<mgrwt>
<rscale>  2 0.10029776E+02</rscale>
<asrwt>0</asrwt>
<pdfrwt beam="1">  1       21 0.75902006E-03 0.10029776E+02</pdfrwt>
<pdfrwt beam="2">  1       21 0.31538188E-02 0.10029776E+02</pdfrwt>
<totfact> 0.12820623E+09</totfact>
</mgrwt>
</event>
<event>
 4    1  0.3931501E+006  0.1282198E+02  0.7546771E-02  0.1942859E+00
         21   -1    0    0  501  502  0.00000000000E+00  0.00000000000E+00  0.11453488624E+03  0.11453488624E+03  0.00000000000E+00 0.  1.
         21   -1    0    0  502  503 -0.00000000000E+00 -0.00000000000E+00 -0.48452825269E+01  0.48452825269E+01  0.00000000000E+00 0. -1.
          5    1    1    2  501    0 -0.29057825099E+01  0.11570206371E+02  0.10491881743E+03  0.10569939213E+03  0.47000000000E+01 0.  1.
         -5    1    1    2    0  503  0.29057825099E+01 -0.11570206371E+02  0.47707862856E+01  0.13680776631E+02  0.47000000000E+01 0. -1.
<mgrwt>
<rscale>  2 0.12821983E+02</rscale>
<asrwt>0</asrwt>
<pdfrwt beam="1">  1       21 0.17620750E-01 0.12821983E+02</pdfrwt>
<pdfrwt beam="2">  1       21 0.74542817E-03 0.12821983E+02</pdfrwt>
<totfact> 0.98240223E+07</totfact>
</mgrwt>
</event>
<event>
 4    1  0.3931501E+006  0.5604143E+01  0.7546771E-02  0.2469981E+00
         21   -1    0    0  501  502  0.00000000000E+00  0.00000000000E+00  0.12603652599E+02  0.12603652599E+02  0.00000000000E+00 0. -1.
         21   -1    0    0  502  503 -0.00000000000E+00 -0.00000000000E+00 -0.26845941124E+01  0.26845941124E+01  0.00000000000E+00 0. -1.
          5    1    1    2  501    0  0.23384702614E+01  0.19616267374E+01  0.29113028556E+01  0.63152281778E+01  0.47000000000E+01 0. -1.
         -5    1    1    2    0  503 -0.23384702614E+01 -0.19616267374E+01  0.70077556310E+01  0.89730185336E+01  0.47000000000E+01 0. -1.
<mgrwt>
<rscale>  2 0.56041433E+01</rscale>
<asrwt>0</asrwt>
<pdfrwt beam="1">  1       21 0.19390234E-02 0.56041433E+01</pdfrwt>
<pdfrwt beam="2">  1       21 0.41301449E-03 0.56041433E+01</pdfrwt>
<totfact> 0.39737737E+09</totfact>
</mgrwt>
</event>
<event>
 4    1  0.3931501E+006  0.5648284E+01  0.7546771E-02  0.2463579E+00
         21   -1    0    0  501  502  0.00000000000E+00  0.00000000000E+00  0.18822120311E+03  0.18822120311E+03  0.00000000000E+00 0.  1.
         21   -1    0    0  502  503 -0.00000000000E+00 -0.00000000000E+00 -0.22597182858E+00  0.22597182858E+00  0.00000000000E+00 0.  1.
          5    1    1    2  501    0  0.17904763520E+01 -0.25704680083E+01  0.14110144625E+03  0.14121445127E+03  0.47000000000E+01 0.  1.
         -5    1    1    2    0  503 -0.17904763520E+01  0.25704680083E+01  0.46893785032E+02  0.47232723677E+02  0.47000000000E+01 0.  1.
<mgrwt>
<rscale>  2 0.56482839E+01</rscale>
<asrwt>0</asrwt>
<pdfrwt beam="1">  1       21 0.28956983E-01 0.56482839E+01</pdfrwt>
<pdfrwt beam="2">  1       21 0.34765047E-04 0.56482839E+01</pdfrwt>
<totfact> 0.18541403E+09</totfact>
</mgrwt>
</event>
<event>
 4    1  0.3931501E+006  0.5445273E+01  0.7546771E-02  0.2493748E+00
         21   -1    0    0  501  502  0.00000000000E+00  0.00000000000E+00  0.12071859965E+02  0.12071859965E+02  0.00000000000E+00 0.  1.
         21   -1    0    0  502  503 -0.00000000000E+00 -0.00000000000E+00 -0.31015881618E+01  0.31015881618E+01  0.00000000000E+00 0.  1.
          5    1    1    2  501    0  0.24699987956E+01 -0.12083493402E+01  0.79458836202E+01  0.96326563670E+01  0.47000000000E+01 0.  1.
         -5    1    1    2    0  503 -0.24699987956E+01  0.12083493402E+01  0.10243881833E+01  0.55407917601E+01  0.47000000000E+01 0.  1.
<mgrwt>
<rscale>  2 0.54452734E+01</rscale>
<asrwt>0</asrwt>
<pdfrwt beam="1">  1       21 0.18572092E-02 0.54452734E+01</pdfrwt>
<pdfrwt beam="2">  1       21 0.47716741E-03 0.54452734E+01</pdfrwt>
<totfact> 0.33708161E+09</totfact>
</mgrwt>
</event>
<event>
 4    1  0.3931501E+006  0.7132400E+01  0.7546771E-02  0.2287849E+00
         21   -1    0    0  501  502  0.00000000000E+00  0.00000000000E+00  0.91814799385E+00  0.91814799385E+00  0.00000000000E+00 0.  1.
         21   -1    0    0  502  503 -0.00000000000E+00 -0.00000000000E+00 -0.79163251402E+02  0.79163251402E+02  0.00000000000E+00 0. -1.
          5    1    1    2  501    0 -0.20376227169E+01 -0.49627836888E+01 -0.17187647215E+02  0.18608770649E+02  0.47000000000E+01 0.  1.
         -5    1    1    2    0  503  0.20376227169E+01  0.49627836888E+01 -0.61057456193E+02  0.61472628747E+02  0.47000000000E+01 0. -1.
<mgrwt>
<rscale>  2 0.71323999E+01</rscale>
<asrwt>0</asrwt>
<pdfrwt beam="1">  1       21 0.14125354E-03 0.71323999E+01</pdfrwt>
<pdfrwt beam="2">  1       21 0.12178961E-01 0.71323999E+01</pdfrwt>
<totfact> 0.13646681E+09</totfact>
</mgrwt>
</event>
<event>
 4    1  0.3931501E+006  0.5048002E+01  0.7546771E-02  0.2558708E+00
         21   -1    0    0  501  502  0.00000000000E+00  0.00000000000E+00  0.23758612667E+01  0.23758612667E+01  0.00000000000E+00 0. -1.
         21   -1    0    0  502  503 -0.00000000000E+00 -0.00000000000E+00 -0.10783257504E+02  0.10783257504E+02  0.00000000000E+00 0. -1.
          5    1    1    2  501    0 -0.11202813081E+01 -0.14619499290E+01 -0.46851823351E+01  0.68871809413E+01  0.47000000000E+01 0. -1.
         -5    1    1    2    0  503  0.11202813081E+01  0.14619499290E+01 -0.37222139023E+01  0.62719378296E+01  0.47000000000E+01 0. -1.
<mgrwt>
<rscale>  2 0.50480024E+01</rscale>
<asrwt>0</asrwt>
<pdfrwt beam="1">  1       21 0.36551711E-03 0.50480024E+01</pdfrwt>
<pdfrwt beam="2">  1       21 0.16589627E-02 0.50480024E+01</pdfrwt>
<totfact> 0.52784924E+09</totfact>
</mgrwt>
</event>
<event>
 4    1  0.3931501E+006  0.8318205E+01  0.7546771E-02  0.2185591E+00
         21   -1    0    0  503  502  0.00000000000E+00  0.00000000000E+00  0.96173402846E+00  0.96173402846E+00  0.00000000000E+00 0. -1.
         21   -1    0    0  501  503 -0.00000000000E+00 -0.00000000000E+00 -0.80109077630E+02  0.80109077630E+02  0.00000000000E+00 0.  1.
          5    1    1    2  501    0  0.23047618877E+00 -0.68592580724E+01 -0.26633768877E+02  0.27902512166E+02  0.47000000000E+01 0. -1.
         -5    1    1    2    0  502 -0.23047618877E+00  0.68592580724E+01 -0.52513574724E+02  0.53168299492E+02  0.47000000000E+01 0.  1.
<mgrwt>
<rscale>  2 0.83182054E+01</rscale>
<asrwt>0</asrwt>
<pdfrwt beam="1">  1       21 0.14795904E-03 0.83182054E+01</pdfrwt>
<pdfrwt beam="2">  1       21 0.12324477E-01 0.83182054E+01</pdfrwt>
<totfact> 0.13956990E+09</totfact>
</mgrwt>
</event>
<event>
 4    1  0.3931501E+006  0.5029997E+01  0.7546771E-02  0.2561860E+00
         21   -1    0    0  503  502  0.00000000000E+00  0.00000000000E+00  0.22822727708E+04  0.22822727708E+04  0.00000000000E+00 0.  1.
         21   -1    0    0  501  503 -0.00000000000E+00 -0.00000000000E+00 -0.16569899843E+00  0.16569899843E+00  0.00000000000E+00 0.  1.
          5    1    1    2  501    0  0.12172266516E+01  0.13150013358E+01  0.38670826422E+02  0.38996585560E+02  0.47000000000E+01 0.  1.
         -5    1    1    2    0  502 -0.12172266516E+01 -0.13150013358E+01  0.22434362453E+04  0.22434418842E+04  0.47000000000E+01 0.  1.
<mgrwt>
<rscale>  2 0.50299969E+01</rscale>
<asrwt>0</asrwt>
<pdfrwt beam="1">  1       21 0.35109371E+00 0.50299969E+01</pdfrwt>
<pdfrwt beam="2">  1       21 0.25493981E-04 0.50299969E+01</pdfrwt>
<totfact> 0.16020967E+07</totfact>
</mgrwt>
</event>
<event>
 4    1  0.3931501E+006  0.4803725E+01  0.7546771E-02  0.2603197E+00
         21   -1    0    0  501  502  0.00000000000E+00  0.00000000000E+00  0.40577685628E+02  0.40577685628E+02  0.00000000000E+00 0.  1.
         21   -1    0    0  502  503 -0.00000000000E+00 -0.00000000000E+00 -0.57452362483E+00  0.57452362483E+00  0.00000000000E+00 0.  1.
          5    1    1    2  501    0  0.97859687934E+00  0.16769664068E+00  0.22076491244E+02  0.22593079464E+02  0.47000000000E+01 0.  1.
         -5    1    1    2    0  503 -0.97859687934E+00 -0.16769664068E+00  0.17926670760E+02  0.18559129789E+02  0.47000000000E+01 0.  1.
<mgrwt>
<rscale>  2 0.48037250E+01</rscale>
<asrwt>0</asrwt>
<pdfrwt beam="1">  1       21 0.62427186E-02 0.48037250E+01</pdfrwt>
<pdfrwt beam="2">  1       21 0.88388282E-04 0.48037250E+01</pdfrwt>
<totfact> 0.50024414E+09</totfact>
</mgrwt>
</event>
<event>
 4    1  0.3931501E+006  0.6517263E+01  0.7546771E-02  0.2352599E+00
         21   -1    0    0  503  502  0.00000000000E+00  0.00000000000E+00  0.69374163202E+00  0.69374163202E+00  0.00000000000E+00 0.  1.
         21   -1    0    0  501  503 -0.00000000000E+00 -0.00000000000E+00 -0.11981307583E+03  0.11981307583E+03  0.00000000000E+00 0.  1.
          5    1    1    2  501    0  0.31209765987E+01  0.32625488719E+01 -0.10169360528E+03  0.10190222802E+03  0.47000000000E+01 0.  1.
         -5    1    1    2    0  502 -0.31209765987E+01 -0.32625488719E+01 -0.17425728915E+02  0.18604589441E+02  0.47000000000E+01 0.  1.
<mgrwt>
<rscale>  2 0.65172632E+01</rscale>
<asrwt>0</asrwt>
<pdfrwt beam="1">  1       21 0.10672943E-03 0.65172632E+01</pdfrwt>
<pdfrwt beam="2">  1       21 0.18432790E-01 0.65172632E+01</pdfrwt>
<totfact> 0.96712052E+08</totfact>
</mgrwt>
</event>
<event>
 4    1  0.3931501E+006  0.6416068E+01  0.7546771E-02  0.2364225E+00
         21   -1    0    0  501  502  0.00000000000E+00  0.00000000000E+00  0.17396310958E+00  0.17396310958E+00  0.00000000000E+00 0. -1.
         21   -1    0    0  502  503 -0.00000000000E+00 -0.00000000000E+00 -0.23961379196E+03  0.23961379196E+03  0.00000000000E+00 0.  1.
          5    1    1    2  501    0  0.13753361792E+00 -0.43654342116E+01 -0.13308554809E+03  0.13324011799E+03  0.47000000000E+01 0. -1.
         -5    1    1    2    0  503 -0.13753361792E+00  0.43654342116E+01 -0.10635428076E+03  0.10654763708E+03  0.47000000000E+01 0. -1.
<mgrwt>
<rscale>  2 0.64160682E+01</rscale>
<asrwt>0</asrwt>
<pdfrwt beam="1">  1       21 0.26763492E-04 0.64160682E+01</pdfrwt>
<pdfrwt beam="2">  1       21 0.36863747E-01 0.64160682E+01</pdfrwt>
<totfact> 0.19260216E+09</totfact>
</mgrwt>
</event>
<event>
 4    1  0.3931501E+006  0.8068165E+01  0.7546771E-02  0.2205121E+00
         21   -1    0    0  501  502  0.00000000000E+00  0.00000000000E+00  0.31928303989E+01  0.31928303989E+01  0.00000000000E+00 0.  1.
         21   -1    0    0  502  503 -0.00000000000E+00 -0.00000000000E+00 -0.11013529061E+03  0.11013529061E+03  0.00000000000E+00 0.  1.
          5    1    1    2  501    0 -0.41826886038E+01 -0.50507822950E+01 -0.23201014238E+01  0.83951269416E+01  0.47000000000E+01 0.  1.
         -5    1    1    2    0  503  0.41826886038E+01  0.50507822950E+01 -0.10462235879E+03  0.10493299407E+03  0.47000000000E+01 0.  1.
<mgrwt>
<rscale>  2 0.80681650E+01</rscale>
<asrwt>0</asrwt>
<pdfrwt beam="1">  1       21 0.49120473E-03 0.80681650E+01</pdfrwt>
<pdfrwt beam="2">  1       21 0.16943889E-01 0.80681650E+01</pdfrwt>
<totfact> 0.15427948E+08</totfact>
</mgrwt>
</event>
<event>
 4    1  0.3931501E+006  0.5721099E+01  0.7546771E-02  0.2453201E+00
         21   -1    0    0  503  502  0.00000000000E+00  0.00000000000E+00  0.10030692566E+02  0.10030692566E+02  0.00000000000E+00 0.  1.
         21   -1    0    0  501  503 -0.00000000000E+00 -0.00000000000E+00 -0.43423011148E+01  0.43423011148E+01  0.00000000000E+00 0.  1.
          5    1    1    2  501    0 -0.25253323644E+01  0.20648646970E+01 -0.73851824570E+00  0.57685681904E+01  0.47000000000E+01 0.  1.
         -5    1    1    2    0  502  0.25253323644E+01 -0.20648646970E+01  0.64269096969E+01  0.86044254904E+01  0.47000000000E+01 0.  1.
<mgrwt>
<rscale>  2 0.57210987E+01</rscale>
<asrwt>0</asrwt>
<pdfrwt beam="1">  1       21 0.15431835E-02 0.57210987E+01</pdfrwt>
<pdfrwt beam="2">  1       21 0.66804633E-03 0.57210987E+01</pdfrwt>
<totfact> 0.28799697E+09</totfact>
</mgrwt>
</event>
<event>
 4    1  0.3931501E+006  0.8703288E+01  0.7546771E-02  0.2157287E+00
         21   -1    0    0  503  502  0.00000000000E+00  0.00000000000E+00  0.15377380802E+02  0.15377380802E+02  0.00000000000E+00 0.  1.
         21   -1    0    0  501  503 -0.00000000000E+00 -0.00000000000E+00 -0.68233135963E+01  0.68233135963E+01  0.00000000000E+00 0. -1.
          5    1    1    2  501    0 -0.71329308915E+01 -0.16668867278E+01 -0.15765466972E+01  0.88449258875E+01  0.47000000000E+01 0. -1.
         -5    1    1    2    0  502  0.71329308915E+01  0.16668867278E+01  0.10130613903E+02  0.13355768511E+02  0.47000000000E+01 0.  1.
<mgrwt>
<rscale>  2 0.87032876E+01</rscale>
<asrwt>0</asrwt>
<pdfrwt beam="1">  1       21 0.23657509E-02 0.87032876E+01</pdfrwt>
<pdfrwt beam="2">  1       21 0.10497406E-02 0.87032876E+01</pdfrwt>
<totfact> 0.11286508E+09</totfact>
</mgrwt>
</event>
<event>
 4    1  0.3931501E+006  0.8852695E+01  0.7546771E-02  0.2146837E+00
         21   -1    0    0  503  502  0.00000000000E+00  0.00000000000E+00  0.55243906856E+03  0.55243906856E+03  0.00000000000E+00 0.  1.
         21   -1    0    0  501  503 -0.00000000000E+00 -0.00000000000E+00 -0.32200020838E+00  0.32200020838E+00  0.00000000000E+00 0. -1.
          5    1    1    2  501    0  0.14077458449E+01  0.73687487423E+01  0.69338728763E+02  0.69901570174E+02  0.47000000000E+01 0. -1.
         -5    1    1    2    0  502 -0.14077458449E+01 -0.73687487423E+01  0.48277833959E+03  0.48285949860E+03  0.47000000000E+01 0.  1.
<mgrwt>
<rscale>  2 0.88526949E+01</rscale>
<asrwt>0</asrwt>
<pdfrwt beam="1">  1       21 0.84989867E-01 0.88526949E+01</pdfrwt>
<pdfrwt beam="2">  1       21 0.49538936E-04 0.88526949E+01</pdfrwt>
<totfact> 0.21451164E+08</totfact>
</mgrwt>
</event>
<event>
 4    1  0.3931501E+006  0.5416325E+01  0.7546771E-02  0.2498205E+00
         21   -1    0    0  501  502  0.00000000000E+00  0.00000000000E+00  0.31707705226E+02  0.31707705226E+02  0.00000000000E+00 0.  1.
         21   -1    0    0  502  503 -0.00000000000E+00 -0.00000000000E+00 -0.14058489223E+01  0.14058489223E+01  0.00000000000E+00 0.  1.
          5    1    1    2  501    0 -0.13930350161E+01 -0.23034819728E+01  0.24831740781E+02  0.25415584313E+02  0.47000000000E+01 0.  1.
         -5    1    1    2    0  503  0.13930350161E+01  0.23034819728E+01  0.54701155229E+01  0.76979698356E+01  0.47000000000E+01 0.  1.
<mgrwt>
<rscale>  2 0.54163249E+01</rscale>
<asrwt>0</asrwt>
<pdfrwt beam="1">  1       21 0.48781079E-02 0.54163249E+01</pdfrwt>
<pdfrwt beam="2">  1       21 0.21628447E-03 0.54163249E+01</pdfrwt>
<totfact> 0.24510741E+09</totfact>
</mgrwt>
</event>
<event>
 4    1  0.3931501E+006  0.5445920E+01  0.7546771E-02  0.2493648E+00
         21   -1    0    0  503  502  0.00000000000E+00  0.00000000000E+00  0.69431362552E+01  0.69431362552E+01  0.00000000000E+00 0.  1.
         21   -1    0    0  501  503 -0.00000000000E+00 -0.00000000000E+00 -0.45902181752E+01  0.45902181752E+01  0.00000000000E+00 0.  1.
          5    1    1    2  501    0  0.10561612044E+01 -0.25401895499E+01 -0.34293321286E+00  0.54567062068E+01  0.47000000000E+01 0.  1.
         -5    1    1    2    0  502 -0.10561612044E+01  0.25401895499E+01  0.26958512929E+01  0.60766482235E+01  0.47000000000E+01 0.  1.
<mgrwt>
<rscale>  2 0.54459195E+01</rscale>
<asrwt>0</asrwt>
<pdfrwt beam="1">  1       21 0.10681748E-02 0.54459195E+01</pdfrwt>
<pdfrwt beam="2">  1       21 0.70618741E-03 0.54459195E+01</pdfrwt>
<totfact> 0.42812997E+09</totfact>
</mgrwt>
</event>
<event>
 4    1  0.3931501E+006  0.1262502E+02  0.7546771E-02  0.1950577E+00
         21   -1    0    0  503  502  0.00000000000E+00  0.00000000000E+00  0.11543529230E+01  0.11543529230E+01  0.00000000000E+00 0. -1.
         21   -1    0    0  501  503 -0.00000000000E+00 -0.00000000000E+00 -0.14849205683E+03  0.14849205683E+03  0.00000000000E+00 0. -1.
          5    1    1    2  501    0 -0.11630889629E+02  0.14224737019E+01 -0.93483646392E+02  0.94332301825E+02  0.47000000000E+01 0. -1.
         -5    1    1    2    0  502  0.11630889629E+02 -0.14224737019E+01 -0.53854057519E+02  0.55314107932E+02  0.47000000000E+01 0. -1.
<mgrwt>
<rscale>  2 0.12625016E+02</rscale>
<asrwt>0</asrwt>
<pdfrwt beam="1">  1       21 0.17759266E-03 0.12625016E+02</pdfrwt>
<pdfrwt beam="2">  1       21 0.22844944E-01 0.12625016E+02</pdfrwt>
<totfact> 0.49007302E+08</totfact>
</mgrwt>
</event>
<event>
 4    1  0.3931501E+006  0.4800227E+01  0.7546771E-02  0.2603862E+00
         21   -1    0    0  503  502  0.00000000000E+00  0.00000000000E+00  0.30893746666E+00  0.30893746666E+00  0.00000000000E+00 0. -1.
         21   -1    0    0  501  503 -0.00000000000E+00 -0.00000000000E+00 -0.16339734263E+03  0.16339734263E+03  0.00000000000E+00 0. -1.
          5    1    1    2  501    0  0.72890114695E-01  0.97307124742E+00 -0.14189025730E+03  0.14197143127E+03  0.47000000000E+01 0. -1.
         -5    1    1    2    0  502 -0.72890114695E-01 -0.97307124742E+00 -0.21198147869E+02  0.21734848830E+02  0.47000000000E+01 0. -1.
<mgrwt>
<rscale>  2 0.48002271E+01</rscale>
<asrwt>0</asrwt>
<pdfrwt beam="1">  1       21 0.47528925E-04 0.48002271E+01</pdfrwt>
<pdfrwt beam="2">  1       21 0.25138008E-01 0.48002271E+01</pdfrwt>
<totfact> 0.13388398E+09</totfact>
</mgrwt>
</event>
<event>
 4    1  0.3931501E+006  0.6117724E+01  0.7546771E-02  0.2400349E+00
         21   -1    0    0  503  502  0.00000000000E+00  0.00000000000E+00  0.27900002631E+01  0.27900002631E+01  0.00000000000E+00 0. -1.
         21   -1    0    0  501  503 -0.00000000000E+00 -0.00000000000E+00 -0.13414672237E+02  0.13414672237E+02  0.00000000000E+00 0.  1.
          5    1    1    2  501    0  0.35116500511E+01 -0.17334532353E+01 -0.53385867668E+01  0.81195477009E+01  0.47000000000E+01 0. -1.
         -5    1    1    2    0  502 -0.35116500511E+01  0.17334532353E+01 -0.52860852068E+01  0.80851247989E+01  0.47000000000E+01 0.  1.
<mgrwt>
<rscale>  2 0.61177239E+01</rscale>
<asrwt>0</asrwt>
<pdfrwt beam="1">  1       21 0.42923081E-03 0.61177239E+01</pdfrwt>
<pdfrwt beam="2">  1       21 0.20637957E-02 0.61177239E+01</pdfrwt>
<totfact> 0.37328552E+09</totfact>
</mgrwt>
</event>
<event>
 4    1  0.3931501E+006  0.4991183E+01  0.7546771E-02  0.2568720E+00
         21   -1    0    0  501  502  0.00000000000E+00  0.00000000000E+00  0.10163083950E+03  0.10163083950E+03  0.00000000000E+00 0. -1.
         21   -1    0    0  502  503 -0.00000000000E+00 -0.00000000000E+00 -0.33230472835E+00  0.33230472835E+00  0.00000000000E+00 0. -1.
          5    1    1    2  501    0  0.11491469910E+01 -0.12253019587E+01  0.76762548237E+02  0.76924643097E+02  0.47000000000E+01 0. -1.
         -5    1    1    2    0  503 -0.11491469910E+01  0.12253019587E+01  0.24535986534E+02  0.25038501131E+02  0.47000000000E+01 0. -1.
<mgrwt>
<rscale>  2 0.49911826E+01</rscale>
<asrwt>0</asrwt>
<pdfrwt beam="1">  1       21 0.15635489E-01 0.49911826E+01</pdfrwt>
<pdfrwt beam="2">  1       21 0.51123885E-04 0.49911826E+01</pdfrwt>
<totfact> 0.26818062E+09</totfact>
</mgrwt>
</event>
<event>
 4    1  0.3931501E+006  0.7102964E+01  0.7546771E-02  0.2290737E+00
         21   -1    0    0  501  502  0.00000000000E+00  0.00000000000E+00  0.50760261978E+01  0.50760261978E+01  0.00000000000E+00 0. -1.
         21   -1    0    0  502  503 -0.00000000000E+00 -0.00000000000E+00 -0.14514766247E+02  0.14514766247E+02  0.00000000000E+00 0.  1.
          5    1    1    2  501    0 -0.52108196033E+01 -0.10997545621E+01  0.78028051420E+00  0.71456937183E+01  0.47000000000E+01 0. -1.
         -5    1    1    2    0  503  0.52108196033E+01  0.10997545621E+01 -0.10219020563E+02  0.12445098726E+02  0.47000000000E+01 0.  1.
<mgrwt>
<rscale>  2 0.71029642E+01</rscale>
<asrwt>0</asrwt>
<pdfrwt beam="1">  1       21 0.78092711E-03 0.71029642E+01</pdfrwt>
<pdfrwt beam="2">  1       21 0.22330410E-02 0.71029642E+01</pdfrwt>
<totfact> 0.16269569E+09</totfact>
</mgrwt>
</event>
<event>
 4    1  0.3931501E+006  0.7133038E+01  0.7546771E-02  0.2287787E+00
         21   -1    0    0  503  502  0.00000000000E+00  0.00000000000E+00  0.42881546559E+00  0.42881546559E+00  0.00000000000E+00 0. -1.
         21   -1    0    0  501  503 -0.00000000000E+00 -0.00000000000E+00 -0.19861935332E+03  0.19861935332E+03  0.00000000000E+00 0.  1.
          5    1    1    2  501    0 -0.30609726803E+01 -0.44068891186E+01 -0.16224494920E+03  0.16240167415E+03  0.47000000000E+01 0.  1.
         -5    1    1    2    0  502  0.30609726803E+01  0.44068891186E+01 -0.35945588660E+02  0.36646494642E+02  0.47000000000E+01 0. -1.
<mgrwt>
<rscale>  2 0.71330376E+01</rscale>
<asrwt>0</asrwt>
<pdfrwt beam="1">  1       21 0.65971703E-04 0.71330376E+01</pdfrwt>
<pdfrwt beam="2">  1       21 0.30556781E-01 0.71330376E+01</pdfrwt>
<totfact> 0.85255569E+08</totfact>
</mgrwt>
</event>
<event>
 4    1  0.3931501E+006  0.6542284E+01  0.7546771E-02  0.2349771E+00
         21   -1    0    0  503  502  0.00000000000E+00  0.00000000000E+00  0.16989053952E+02  0.16989053952E+02  0.00000000000E+00 0. -1.
         21   -1    0    0  501  503 -0.00000000000E+00 -0.00000000000E+00 -0.37527922910E+01  0.37527922910E+01  0.00000000000E+00 0.  1.
          5    1    1    2  501    0  0.25842650995E+01 -0.37460713601E+01  0.67249241185E+00  0.65767562509E+01  0.47000000000E+01 0.  1.
         -5    1    1    2    0  502 -0.25842650995E+01  0.37460713601E+01  0.12563769250E+02  0.14165089993E+02  0.47000000000E+01 0. -1.
<mgrwt>
<rscale>  2 0.65422838E+01</rscale>
<asrwt>0</asrwt>
<pdfrwt beam="1">  1       21 0.26137006E-02 0.65422838E+01</pdfrwt>
<pdfrwt beam="2">  1       21 0.57735267E-03 0.65422838E+01</pdfrwt>
<totfact> 0.18580752E+09</totfact>
</mgrwt>
</event>
<event>
 4    1  0.3931501E+006  0.5011085E+01  0.7546771E-02  0.2565191E+00
         21   -1    0    0  501  502  0.00000000000E+00  0.00000000000E+00  0.59413963790E-01  0.59413963790E-01  0.00000000000E+00 0.  1.
         21   -1    0    0  502  503 -0.00000000000E+00 -0.00000000000E+00 -0.42410707829E+03  0.42410707829E+03  0.00000000000E+00 0.  1.
          5    1    1    2  501    0  0.15881400975E+01  0.70624355747E+00 -0.19956812584E+03  0.19963102920E+03  0.47000000000E+01 0.  1.
         -5    1    1    2    0  503 -0.15881400975E+01 -0.70624355747E+00 -0.22447953849E+03  0.22453546305E+03  0.47000000000E+01 0.  1.
<mgrwt>
<rscale>  2 0.50110846E+01</rscale>
<asrwt>0</asrwt>
<pdfrwt beam="1">  1       21 0.91408065E-05 0.50110846E+01</pdfrwt>
<pdfrwt beam="2">  1       21 0.65245839E-01 0.50110846E+01</pdfrwt>
<totfact> 0.23772799E+09</totfact>
</mgrwt>
</event>
<event>
 4    1  0.3931501E+006  0.6905058E+01  0.7546771E-02  0.2310673E+00
         21   -1    0    0  501  502  0.00000000000E+00  0.00000000000E+00  0.75171296246E+00  0.75171296246E+00  0.00000000000E+00 0.  1.
         21   -1    0    0  502  503 -0.00000000000E+00 -0.00000000000E+00 -0.66717417626E+02  0.66717417626E+02  0.00000000000E+00 0. -1.
          5    1    1    2  501    0 -0.35936856259E+01 -0.35602326431E+01 -0.25492557124E+02  0.26411177588E+02  0.47000000000E+01 0.  1.
         -5    1    1    2    0  503  0.35936856259E+01  0.35602326431E+01 -0.40473147539E+02  0.41057953000E+02  0.47000000000E+01 0. -1.
<mgrwt>
<rscale>  2 0.69050585E+01</rscale>
<asrwt>0</asrwt>
<pdfrwt beam="1">  1       21 0.11564818E-03 0.69050585E+01</pdfrwt>
<pdfrwt beam="2">  1       21 0.10264215E-01 0.69050585E+01</pdfrwt>
<totfact> 0.22857202E+09</totfact>
</mgrwt>
</event>
<event>
 4    1  0.3931501E+006  0.7332285E+01  0.7546771E-02  0.2268743E+00
         21   -1    0    0  503  502  0.00000000000E+00  0.00000000000E+00  0.11214735361E+01  0.11214735361E+01  0.00000000000E+00 0. -1.
         21   -1    0    0  501  503 -0.00000000000E+00 -0.00000000000E+00 -0.48065745870E+02  0.48065745870E+02  0.00000000000E+00 0. -1.
          5    1    1    2  501    0 -0.51831663324E+01 -0.21925313265E+01 -0.22209615806E+02  0.23388660524E+02  0.47000000000E+01 0. -1.
         -5    1    1    2    0  502  0.51831663324E+01  0.21925313265E+01 -0.24734656528E+02  0.25798558883E+02  0.47000000000E+01 0. -1.
<mgrwt>
<rscale>  2 0.73322852E+01</rscale>
<asrwt>0</asrwt>
<pdfrwt beam="1">  1       21 0.17253439E-03 0.73322852E+01</pdfrwt>
<pdfrwt beam="2">  1       21 0.73947302E-02 0.73322852E+01</pdfrwt>
<totfact> 0.22964508E+09</totfact>
</mgrwt>
</event>
<event>
 4    1  0.3931501E+006  0.5470810E+01  0.7546771E-02  0.2489848E+00
         21   -1    0    0  503  502  0.00000000000E+00  0.00000000000E+00  0.13353795021E+02  0.13353795021E+02  0.00000000000E+00 0. -1.
         21   -1    0    0  501  503 -0.00000000000E+00 -0.00000000000E+00 -0.14141831477E+02  0.14141831477E+02  0.00000000000E+00 0. -1.
          5    1    1    2  501    0  0.27990947678E+01  0.69468049996E-01 -0.13005441886E+02  0.14109262063E+02  0.47000000000E+01 0. -1.
         -5    1    1    2    0  502 -0.27990947678E+01 -0.69468049996E-01  0.12217405430E+02  0.13386364435E+02  0.47000000000E+01 0. -1.
<mgrwt>
<rscale>  2 0.54708096E+01</rscale>
<asrwt>0</asrwt>
<pdfrwt beam="1">  1       21 0.20544300E-02 0.54708096E+01</pdfrwt>
<pdfrwt beam="2">  1       21 0.21756664E-02 0.54708096E+01</pdfrwt>
<totfact> 0.34837357E+08</totfact>
</mgrwt>
</event>
<event>
 4    1  0.3931501E+006  0.9813158E+01  0.7546771E-02  0.2085780E+00
         21   -1    0    0  503  502  0.00000000000E+00  0.00000000000E+00  0.24189486894E+03  0.24189486894E+03  0.00000000000E+00 0. -1.
         21   -1    0    0  501  503 -0.00000000000E+00 -0.00000000000E+00 -0.64184585093E+01  0.64184585093E+01  0.00000000000E+00 0.  1.
          5    1    1    2  501    0 -0.82750519593E+01 -0.23940715761E+01 -0.25064784529E+01  0.10128203092E+02  0.47000000000E+01 0.  1.
         -5    1    1    2    0  502  0.82750519593E+01  0.23940715761E+01  0.23798288888E+03  0.23818512436E+03  0.47000000000E+01 0. -1.
<mgrwt>
<rscale>  2 0.98131577E+01</rscale>
<asrwt>0</asrwt>
<pdfrwt beam="1">  1       21 0.37214588E-01 0.98131577E+01</pdfrwt>
<pdfrwt beam="2">  1       21 0.98745534E-03 0.98131577E+01</pdfrwt>
<totfact> 0.16265631E+07</totfact>
</mgrwt>
</event>
<event>
 4    1  0.3931501E+006  0.4851236E+01  0.7546771E-02  0.2594241E+00
         21   -1    0    0  503  502  0.00000000000E+00  0.00000000000E+00  0.82595037879E+01  0.82595037879E+01  0.00000000000E+00 0. -1.
         21   -1    0    0  501  503 -0.00000000000E+00 -0.00000000000E+00 -0.24280970088E+03  0.24280970088E+03  0.00000000000E+00 0. -1.
          5    1    1    2  501    0 -0.10751099366E+01  0.53723883561E+00 -0.24207095009E+03  0.24211955593E+03  0.47000000000E+01 0. -1.
         -5    1    1    2    0  502  0.10751099366E+01 -0.53723883561E+00  0.75207529952E+01  0.89496487393E+01  0.47000000000E+01 0. -1.
<mgrwt>
<rscale>  2 0.48512356E+01</rscale>
<asrwt>0</asrwt>
<pdfrwt beam="1">  1       21 0.12706930E-02 0.48512356E+01</pdfrwt>
<pdfrwt beam="2">  1       21 0.37355334E-01 0.48512356E+01</pdfrwt>
<totfact> 0.82365407E+06</totfact>
</mgrwt>
</event>
<event>
 4    1  0.3931501E+006  0.4879301E+01  0.7546771E-02  0.2589022E+00
         21   -1    0    0  501  502  0.00000000000E+00  0.00000000000E+00  0.15550348033E+01  0.15550348033E+01  0.00000000000E+00 0. -1.
         21   -1    0    0  502  503 -0.00000000000E+00 -0.00000000000E+00 -0.15363972653E+02  0.15363972653E+02  0.00000000000E+00 0. -1.
          5    1    1    2  501    0 -0.24939938795E+00 -0.12866133481E+01 -0.64030474003E+01  0.80502540315E+01  0.47000000000E+01 0. -1.
         -5    1    1    2    0  503  0.24939938795E+00  0.12866133481E+01 -0.74058904497E+01  0.88687534251E+01  0.47000000000E+01 0. -1.
<mgrwt>
<rscale>  2 0.48793006E+01</rscale>
<asrwt>0</asrwt>
<pdfrwt beam="1">  1       21 0.23923613E-03 0.48793006E+01</pdfrwt>
<pdfrwt beam="2">  1       21 0.23636880E-02 0.48793006E+01</pdfrwt>
<totfact> 0.54777173E+09</totfact>
</mgrwt>
</event>
<event>
 4    1  0.3931501E+006  0.5939581E+01  0.7546771E-02  0.2423354E+00
         21   -1    0    0  503  502  0.00000000000E+00  0.00000000000E+00  0.20327164034E+02  0.20327164034E+02  0.00000000000E+00 0. -1.
         21   -1    0    0  501  503 -0.00000000000E+00 -0.00000000000E+00 -0.18607269505E+01  0.18607269505E+01  0.00000000000E+00 0. -1.
          5    1    1    2  501    0 -0.33200848875E+01 -0.14716167343E+01  0.63556670278E+01  0.86990299942E+01  0.47000000000E+01 0. -1.
         -5    1    1    2    0  502  0.33200848875E+01  0.14716167343E+01  0.12110770056E+02  0.13488860990E+02  0.47000000000E+01 0. -1.
<mgrwt>
<rscale>  2 0.59395807E+01</rscale>
<asrwt>0</asrwt>
<pdfrwt beam="1">  1       21 0.31272558E-02 0.59395807E+01</pdfrwt>
<pdfrwt beam="2">  1       21 0.28626570E-03 0.59395807E+01</pdfrwt>
<totfact> 0.34828551E+09</totfact>
</mgrwt>
</event>
<event>
 4    1  0.3931501E+006  0.1294642E+02  0.7546771E-02  0.1938076E+00
         21   -1    0    0  501  502  0.00000000000E+00  0.00000000000E+00  0.57715868471E+01  0.57715868471E+01  0.00000000000E+00 0. -1.
         21   -1    0    0  502  503 -0.00000000000E+00 -0.00000000000E+00 -0.77627854996E+02  0.77627854996E+02  0.00000000000E+00 0.  1.
          5    1    1    2  501    0  0.25116972970E+01  0.11798780928E+02 -0.29378605008E+01  0.13275574527E+02  0.47000000000E+01 0. -1.
         -5    1    1    2    0  503 -0.25116972970E+01 -0.11798780928E+02 -0.68918407648E+02  0.70123867316E+02  0.47000000000E+01 0.  1.
<mgrwt>
<rscale>  2 0.12946422E+02</rscale>
<asrwt>0</asrwt>
<pdfrwt beam="1">  1       21 0.88793649E-03 0.12946422E+02</pdfrwt>
<pdfrwt beam="2">  1       21 0.11942746E-01 0.12946422E+02</pdfrwt>
<totfact> 0.14526123E+08</totfact>
</mgrwt>
</event>
<event>
 4    1  0.3931501E+006  0.5909567E+01  0.7546771E-02  0.2427344E+00
         21   -1    0    0  503  502  0.00000000000E+00  0.00000000000E+00  0.75078995616E+02  0.75078995616E+02  0.00000000000E+00 0.  1.
         21   -1    0    0  501  503 -0.00000000000E+00 -0.00000000000E+00 -0.50175231102E+00  0.50175231102E+00  0.00000000000E+00 0.  1.
          5    1    1    2  501    0 -0.11696227244E+01  0.33859959829E+01  0.27081778535E+02  0.27719049672E+02  0.47000000000E+01 0.  1.
         -5    1    1    2    0  502  0.11696227244E+01 -0.33859959829E+01  0.47495464770E+02  0.47861698255E+02  0.47000000000E+01 0.  1.
<mgrwt>
<rscale>  2 0.59095673E+01</rscale>
<asrwt>0</asrwt>
<pdfrwt beam="1">  1       21 0.11550606E-01 0.59095673E+01</pdfrwt>
<pdfrwt beam="2">  1       21 0.77192723E-04 0.59095673E+01</pdfrwt>
<totfact> 0.28929761E+09</totfact>
</mgrwt>
</event>
<event>
 4    1  0.3931501E+006  0.4800796E+01  0.7546771E-02  0.2603754E+00
         21   -1    0    0  503  502  0.00000000000E+00  0.00000000000E+00  0.56854517600E+03  0.56854517600E+03  0.00000000000E+00 0.  1.
         21   -1    0    0  501  503 -0.00000000000E+00 -0.00000000000E+00 -0.74481986958E-01  0.74481986958E-01  0.00000000000E+00 0.  1.
          5    1    1    2  501    0  0.81535110605E+00 -0.54115297392E+00  0.47616767345E+03  0.47619187402E+03  0.47000000000E+01 0.  1.
         -5    1    1    2    0  502 -0.81535110605E+00  0.54115297392E+00  0.92303020564E+02  0.92427783968E+02  0.47000000000E+01 0.  1.
<mgrwt>
<rscale>  2 0.48007962E+01</rscale>
<asrwt>0</asrwt>
<pdfrwt beam="1">  1       21 0.87465013E-01 0.48007962E+01</pdfrwt>
<pdfrwt beam="2">  1       21 0.11459223E-04 0.48007962E+01</pdfrwt>
<totfact> 0.97501585E+08</totfact>
</mgrwt>
</event>
<event>
 4    1  0.3931501E+006  0.4959923E+01  0.7546771E-02  0.2574313E+00
         21   -1    0    0  503  502  0.00000000000E+00  0.00000000000E+00  0.41633847236E+00  0.41633847236E+00  0.00000000000E+00 0. -1.
         21   -1    0    0  501  503 -0.00000000000E+00 -0.00000000000E+00 -0.12799303087E+03  0.12799303087E+03  0.00000000000E+00 0. -1.
          5    1    1    2  501    0  0.12118714676E+01 -0.10208830154E+01 -0.11089663228E+03  0.11100749473E+03  0.47000000000E+01 0. -1.
         -5    1    1    2    0  502 -0.12118714676E+01  0.10208830154E+01 -0.16680060114E+02  0.17401874611E+02  0.47000000000E+01 0. -1.
<mgrwt>
<rscale>  2 0.49599228E+01</rscale>
<asrwt>0</asrwt>
<pdfrwt beam="1">  1       21 0.64051970E-04 0.49599228E+01</pdfrwt>
<pdfrwt beam="2">  1       21 0.19691267E-01 0.49599228E+01</pdfrwt>
<totfact> 0.13760220E+09</totfact>
</mgrwt>
</event>
<event>
 4    1  0.3931501E+006  0.5410813E+01  0.7546771E-02  0.2499059E+00
         21   -1    0    0  501  502  0.00000000000E+00  0.00000000000E+00  0.48638352191E+02  0.48638352191E+02  0.00000000000E+00 0.  1.
         21   -1    0    0  502  503 -0.00000000000E+00 -0.00000000000E+00 -0.60504701218E+00  0.60504701218E+00  0.00000000000E+00 0.  1.
          5    1    1    2  501    0  0.19512614260E+01 -0.18383339935E+01  0.22249480522E+02  0.22897953545E+02  0.47000000000E+01 0.  1.
         -5    1    1    2    0  503 -0.19512614260E+01  0.18383339935E+01  0.25783824656E+02  0.26345445658E+02  0.47000000000E+01 0.  1.
<mgrwt>
<rscale>  2 0.54108126E+01</rscale>
<asrwt>0</asrwt>
<pdfrwt beam="1">  1       21 0.74828204E-02 0.54108126E+01</pdfrwt>
<pdfrwt beam="2">  1       21 0.93084194E-04 0.54108126E+01</pdfrwt>
<totfact> 0.40284055E+09</totfact>
</mgrwt>
</event>
<event>
 4    1  0.3931501E+006  0.9969928E+01  0.7546771E-02  0.2076703E+00
         21   -1    0    0  501  502  0.00000000000E+00  0.00000000000E+00  0.46728962389E+00  0.46728962389E+00  0.00000000000E+00 0.  1.
         21   -1    0    0  502  503 -0.00000000000E+00 -0.00000000000E+00 -0.22933533171E+03  0.22933533171E+03  0.00000000000E+00 0. -1.
          5    1    1    2  501    0  0.81846324829E+01 -0.32126710077E+01 -0.83501829038E+02  0.84094916116E+02  0.47000000000E+01 0. -1.
         -5    1    1    2    0  503 -0.81846324829E+01  0.32126710077E+01 -0.14536621305E+03  0.14570770522E+03  0.47000000000E+01 0. -1.
<mgrwt>
<rscale>  2 0.99699280E+01</rscale>
<asrwt>0</asrwt>
<pdfrwt beam="1">  1       21 0.71890763E-04 0.99699280E+01</pdfrwt>
<pdfrwt beam="2">  1       21 0.35282333E-01 0.99699280E+01</pdfrwt>
<totfact> 0.71927564E+08</totfact>
</mgrwt>
</event>
<event>
 4    1  0.3931501E+006  0.6929182E+01  0.7546771E-02  0.2308193E+00
         21   -1    0    0  501  502  0.00000000000E+00  0.00000000000E+00  0.39941320275E+00  0.39941320275E+00  0.00000000000E+00 0. -1.
         21   -1    0    0  502  503 -0.00000000000E+00 -0.00000000000E+00 -0.26636482512E+03  0.26636482512E+03  0.00000000000E+00 0.  1.
          5    1    1    2  501    0 -0.35147605224E+00 -0.50793726937E+01 -0.34180787252E+02  0.34876063132E+02  0.47000000000E+01 0. -1.
         -5    1    1    2    0  503  0.35147605224E+00  0.50793726937E+01 -0.23178462466E+03  0.23188817519E+03  0.47000000000E+01 0.  1.
<mgrwt>
<rscale>  2 0.69291819E+01</rscale>
<asrwt>0</asrwt>
<pdfrwt beam="1">  1       21 0.61448192E-04 0.69291819E+01</pdfrwt>
<pdfrwt beam="2">  1       21 0.40979199E-01 0.69291819E+01</pdfrwt>
<totfact> 0.55286388E+08</totfact>
</mgrwt>
</event>
<event>
 4    1  0.3931501E+006  0.5509294E+01  0.7546771E-02  0.2484030E+00
         21   -1    0    0  503  502  0.00000000000E+00  0.00000000000E+00  0.48993500362E+02  0.48993500362E+02  0.00000000000E+00 0. -1.
         21   -1    0    0  501  503 -0.00000000000E+00 -0.00000000000E+00 -0.66342001022E+00  0.66342001022E+00  0.00000000000E+00 0. -1.
          5    1    1    2  501    0 -0.26940346913E+01  0.10022451275E+01  0.30552106943E+02  0.31044863615E+02  0.47000000000E+01 0. -1.
         -5    1    1    2    0  502  0.26940346913E+01 -0.10022451275E+01  0.17777973409E+02  0.18612056757E+02  0.47000000000E+01 0. -1.
<mgrwt>
<rscale>  2 0.55092938E+01</rscale>
<asrwt>0</asrwt>
<pdfrwt beam="1">  1       21 0.75374587E-02 0.55092938E+01</pdfrwt>
<pdfrwt beam="2">  1       21 0.10206466E-03 0.55092938E+01</pdfrwt>
<totfact> 0.35834554E+09</totfact>
</mgrwt>
</event>
<event>
 4    1  0.3931501E+006  0.7016830E+01  0.7546771E-02  0.2299300E+00
         21   -1    0    0  503  502  0.00000000000E+00  0.00000000000E+00  0.14214301498E+02  0.14214301498E+02  0.00000000000E+00 0.  1.
         21   -1    0    0  501  503 -0.00000000000E+00 -0.00000000000E+00 -0.34646544950E+01  0.34646544950E+01  0.00000000000E+00 0. -1.
          5    1    1    2  501    0 -0.28699338228E+01 -0.43484926207E+01  0.55112761881E+01  0.89224477270E+01  0.47000000000E+01 0. -1.
         -5    1    1    2    0  502  0.28699338228E+01  0.43484926207E+01  0.52383708148E+01  0.87565082660E+01  0.47000000000E+01 0.  1.
<mgrwt>
<rscale>  2 0.70168304E+01</rscale>
<asrwt>0</asrwt>
<pdfrwt beam="1">  1       21 0.21868156E-02 0.70168304E+01</pdfrwt>
<pdfrwt beam="2">  1       21 0.53302377E-03 0.70168304E+01</pdfrwt>
<totfact> 0.28472232E+09</totfact>
</mgrwt>
</event>
<event>
 4    1  0.3931501E+006  0.6527605E+01  0.7546771E-02  0.2351428E+00
         21   -1    0    0  501  502  0.00000000000E+00  0.00000000000E+00  0.16288867691E+03  0.16288867691E+03  0.00000000000E+00 0. -1.
         21   -1    0    0  502  503 -0.00000000000E+00 -0.00000000000E+00 -0.36343439929E+00  0.36343439929E+00  0.00000000000E+00 0.  1.
          5    1    1    2  501    0  0.12061772021E+01  0.43663212547E+01  0.12447318417E+03  0.12464422651E+03  0.47000000000E+01 0. -1.
         -5    1    1    2    0  503 -0.12061772021E+01 -0.43663212547E+01  0.38052058337E+02  0.38607884796E+02  0.47000000000E+01 0.  1.
<mgrwt>
<rscale>  2 0.65276048E+01</rscale>
<asrwt>0</asrwt>
<pdfrwt beam="1">  1       21 0.25059738E-01 0.65276048E+01</pdfrwt>
<pdfrwt beam="2">  1       21 0.55913115E-04 0.65276048E+01</pdfrwt>
<totfact> 0.13985954E+09</totfact>
</mgrwt>
</event>
<event>
 4    1  0.3931501E+006  0.5846220E+01  0.7546771E-02  0.2435878E+00
         21   -1    0    0  501  502  0.00000000000E+00  0.00000000000E+00  0.12109581782E+02  0.12109581782E+02  0.00000000000E+00 0. -1.
         21   -1    0    0  502  503 -0.00000000000E+00 -0.00000000000E+00 -0.28225262380E+01  0.28225262380E+01  0.00000000000E+00 0. -1.
          5    1    1    2  501    0 -0.27873369674E+00 -0.34656306104E+01  0.45970545895E+01  0.74371499178E+01  0.47000000000E+01 0. -1.
         -5    1    1    2    0  503  0.27873369674E+00  0.34656306104E+01  0.46900009547E+01  0.74949581024E+01  0.47000000000E+01 0. -1.
<mgrwt>
<rscale>  2 0.58462200E+01</rscale>
<asrwt>0</asrwt>
<pdfrwt beam="1">  1       21 0.18630126E-02 0.58462200E+01</pdfrwt>
<pdfrwt beam="2">  1       21 0.43423481E-03 0.58462200E+01</pdfrwt>
<totfact> 0.40835579E+09</totfact>
</mgrwt>
</event>
<event>
 4    1  0.3931501E+006  0.5539421E+01  0.7546771E-02  0.2479523E+00
         21   -1    0    0  503  502  0.00000000000E+00  0.00000000000E+00  0.22674299503E+01  0.22674299503E+01  0.00000000000E+00 0. -1.
         21   -1    0    0  501  503 -0.00000000000E+00 -0.00000000000E+00 -0.13786734025E+02  0.13786734025E+02  0.00000000000E+00 0.  1.
          5    1    1    2  501    0 -0.85395987132E-02  0.29317424678E+01 -0.46707351711E+01  0.72457541954E+01  0.47000000000E+01 0.  1.
         -5    1    1    2    0  502  0.85395987132E-02 -0.29317424678E+01 -0.68485689039E+01  0.88084097800E+01  0.47000000000E+01 0. -1.
<mgrwt>
<rscale>  2 0.55394212E+01</rscale>
<asrwt>0</asrwt>
<pdfrwt beam="1">  1       21 0.34883538E-03 0.55394212E+01</pdfrwt>
<pdfrwt beam="2">  1       21 0.21210360E-02 0.55394212E+01</pdfrwt>
<totfact> 0.43606359E+09</totfact>
</mgrwt>
</event>
<event>
 4    1  0.3931501E+006  0.5786462E+01  0.7546771E-02  0.2444073E+00
         21   -1    0    0  503  502  0.00000000000E+00  0.00000000000E+00  0.31056001835E+03  0.31056001835E+03  0.00000000000E+00 0. -1.
         21   -1    0    0  501  503 -0.00000000000E+00 -0.00000000000E+00 -0.35528005546E+00  0.35528005546E+00  0.00000000000E+00 0. -1.
          5    1    1    2  501    0 -0.24818149044E+01  0.22877371158E+01  0.25359562270E+02  0.26011354152E+02  0.47000000000E+01 0. -1.
         -5    1    1    2    0  502  0.24818149044E+01 -0.22877371158E+01  0.28484517603E+03  0.28490394425E+03  0.47000000000E+01 0. -1.
<mgrwt>
<rscale>  2 0.57864623E+01</rscale>
<asrwt>0</asrwt>
<pdfrwt beam="1">  1       21 0.47778247E-01 0.57864623E+01</pdfrwt>
<pdfrwt beam="2">  1       21 0.54658718E-04 0.57864623E+01</pdfrwt>
<totfact> 0.43587956E+08</totfact>
</mgrwt>
</event>
<event>
 4    1  0.3931501E+006  0.7420246E+01  0.7546771E-02  0.2260602E+00
         21   -1    0    0  503  502  0.00000000000E+00  0.00000000000E+00  0.10023129173E+03  0.10023129173E+03  0.00000000000E+00 0.  1.
         21   -1    0    0  501  503 -0.00000000000E+00 -0.00000000000E+00 -0.61676610916E+00  0.61676610916E+00  0.00000000000E+00 0. -1.
          5    1    1    2  501    0 -0.40904305871E+01  0.40296929549E+01  0.66480648449E+02  0.66893472521E+02  0.47000000000E+01 0. -1.
         -5    1    1    2    0  502  0.40904305871E+01 -0.40296929549E+01  0.33133877172E+02  0.33954585318E+02  0.47000000000E+01 0.  1.
<mgrwt>
<rscale>  2 0.74202458E+01</rscale>
<asrwt>0</asrwt>
<pdfrwt beam="1">  1       21 0.15420186E-01 0.74202458E+01</pdfrwt>
<pdfrwt beam="2">  1       21 0.94887173E-04 0.74202458E+01</pdfrwt>
<totfact> 0.16580666E+09</totfact>
</mgrwt>
</event>
<event>
 4    1  0.3931501E+006  0.6814529E+01  0.7546771E-02  0.2320108E+00
         21   -1    0    0  501  502  0.00000000000E+00  0.00000000000E+00  0.85265227572E+02  0.85265227572E+02  0.00000000000E+00 0.  1.
         21   -1    0    0  502  503 -0.00000000000E+00 -0.00000000000E+00 -0.80617557558E+00  0.80617557558E+00  0.00000000000E+00 0.  1.
          5    1    1    2  501    0  0.14179207959E+01  0.47262358609E+01  0.66742142310E+02  0.67089130005E+02  0.47000000000E+01 0.  1.
         -5    1    1    2    0  503 -0.14179207959E+01 -0.47262358609E+01  0.17716909687E+02  0.18982273142E+02  0.47000000000E+01 0.  1.
<mgrwt>
<rscale>  2 0.68145289E+01</rscale>
<asrwt>0</asrwt>
<pdfrwt beam="1">  1       21 0.13117720E-01 0.68145289E+01</pdfrwt>
<pdfrwt beam="2">  1       21 0.12402708E-03 0.68145289E+01</pdfrwt>
<totfact> 0.14021756E+09</totfact>
</mgrwt>
</event>
<event>
 4    1  0.3931501E+006  0.5607177E+01  0.7546771E-02  0.2469538E+00
         21   -1    0    0  503  502  0.00000000000E+00  0.00000000000E+00  0.12658136927E+02  0.12658136927E+02  0.00000000000E+00 0.  1.
         21   -1    0    0  501  503 -0.00000000000E+00 -0.00000000000E+00 -0.29558787819E+01  0.29558787819E+01  0.00000000000E+00 0.  1.
          5    1    1    2  501    0 -0.21511429344E+01 -0.21732496620E+01  0.17312115489E+01  0.58683492947E+01  0.47000000000E+01 0.  1.
         -5    1    1    2    0  502  0.21511429344E+01  0.21732496620E+01  0.79710465965E+01  0.97456664144E+01  0.47000000000E+01 0.  1.
<mgrwt>
<rscale>  2 0.56071767E+01</rscale>
<asrwt>0</asrwt>
<pdfrwt beam="1">  1       21 0.19474057E-02 0.56071767E+01</pdfrwt>
<pdfrwt beam="2">  1       21 0.45475059E-03 0.56071767E+01</pdfrwt>
<totfact> 0.34601330E+09</totfact>
</mgrwt>
</event>
<event>
 4    1  0.3931501E+006  0.4868163E+01  0.7546771E-02  0.2591087E+00
         21   -1    0    0  501  502  0.00000000000E+00  0.00000000000E+00  0.38146268361E+01  0.38146268361E+01  0.00000000000E+00 0.  1.
         21   -1    0    0  502  503 -0.00000000000E+00 -0.00000000000E+00 -0.13468817401E+02  0.13468817401E+02  0.00000000000E+00 0.  1.
          5    1    1    2  501    0  0.12290452404E+01 -0.31377489382E+00  0.15158168849E+01  0.50986966683E+01  0.47000000000E+01 0.  1.
         -5    1    1    2    0  503 -0.12290452404E+01  0.31377489382E+00 -0.11170007450E+02  0.12184747569E+02  0.47000000000E+01 0.  1.
<mgrwt>
<rscale>  2 0.48681626E+01</rscale>
<asrwt>0</asrwt>
<pdfrwt beam="1">  1       21 0.58686566E-03 0.48681626E+01</pdfrwt>
<pdfrwt beam="2">  1       21 0.20721258E-02 0.48681626E+01</pdfrwt>
<totfact> 0.19399021E+09</totfact>
</mgrwt>
</event>
<event>
 4    1  0.3931501E+006  0.1201868E+02  0.7546771E-02  0.1975542E+00
         21   -1    0    0  503  502  0.00000000000E+00  0.00000000000E+00  0.50185357615E+00  0.50185357615E+00  0.00000000000E+00 0. -1.
         21   -1    0    0  501  503 -0.00000000000E+00 -0.00000000000E+00 -0.41126744261E+03  0.41126744261E+03  0.00000000000E+00 0.  1.
          5    1    1    2  501    0 -0.14444977283E+01  0.10966866459E+02 -0.31817640277E+03  0.31840331659E+03  0.47000000000E+01 0.  1.
         -5    1    1    2    0  502  0.14444977283E+01 -0.10966866459E+02 -0.92589186265E+02  0.93365979601E+02  0.47000000000E+01 0. -1.
<mgrwt>
<rscale>  2 0.12018683E+02</rscale>
<asrwt>0</asrwt>
<pdfrwt beam="1">  1       21 0.77208590E-04 0.12018683E+02</pdfrwt>
<pdfrwt beam="2">  1       21 0.63271630E-01 0.12018683E+02</pdfrwt>
<totfact> 0.23989758E+08</totfact>
</mgrwt>
</event>
<event>
 4    1  0.3931501E+006  0.5268594E+01  0.7546771E-02  0.2521603E+00
         21   -1    0    0  501  502  0.00000000000E+00  0.00000000000E+00  0.49907682655E-01  0.49907682655E-01  0.00000000000E+00 0.  1.
         21   -1    0    0  502  503 -0.00000000000E+00 -0.00000000000E+00 -0.59309141889E+03  0.59309141889E+03  0.00000000000E+00 0.  1.
          5    1    1    2  501    0 -0.23527293850E+01 -0.36433926584E+00 -0.22254357324E+03  0.22260593000E+03  0.47000000000E+01 0.  1.
         -5    1    1    2    0  503  0.23527293850E+01  0.36433926584E+00 -0.37049793797E+03  0.37053539658E+03  0.47000000000E+01 0.  1.
<mgrwt>
<rscale>  2 0.52685936E+01</rscale>
<asrwt>0</asrwt>
<pdfrwt beam="1">  1       21 0.76781782E-05 0.52685936E+01</pdfrwt>
<pdfrwt beam="2">  1       21 0.91243964E-01 0.52685936E+01</pdfrwt>
<totfact> 0.16453767E+09</totfact>
</mgrwt>
</event>
<event>
 4    1  0.3931501E+006  0.5249724E+01  0.7546771E-02  0.2524672E+00
         21   -1    0    0  501  502  0.00000000000E+00  0.00000000000E+00  0.47655618989E+00  0.47655618989E+00  0.00000000000E+00 0. -1.
         21   -1    0    0  502  503 -0.00000000000E+00 -0.00000000000E+00 -0.80633159846E+02  0.80633159846E+02  0.00000000000E+00 0. -1.
          5    1    1    2  501    0  0.13047634707E+01 -0.19409263590E+01 -0.18511964197E+02  0.19241944322E+02  0.47000000000E+01 0. -1.
         -5    1    1    2    0  503 -0.13047634707E+01  0.19409263590E+01 -0.61644639459E+02  0.61867771714E+02  0.47000000000E+01 0. -1.
<mgrwt>
<rscale>  2 0.52497241E+01</rscale>
<asrwt>0</asrwt>
<pdfrwt beam="1">  1       21 0.73316395E-04 0.52497241E+01</pdfrwt>
<pdfrwt beam="2">  1       21 0.12405092E-01 0.52497241E+01</pdfrwt>
<totfact> 0.24967051E+09</totfact>
</mgrwt>
</event>
<event>
 4    1  0.3931501E+006  0.1136218E+02  0.7546771E-02  0.2004857E+00
         21   -1    0    0  501  502  0.00000000000E+00  0.00000000000E+00  0.12542038848E+03  0.12542038848E+03  0.00000000000E+00 0. -1.
         21   -1    0    0  502  503 -0.00000000000E+00 -0.00000000000E+00 -0.16129199781E+01  0.16129199781E+01  0.00000000000E+00 0.  1.
          5    1    1    2  501    0  0.75617376149E+01 -0.70589813275E+01  0.10011001349E+03  0.10075273641E+03  0.47000000000E+01 0. -1.
         -5    1    1    2    0  503 -0.75617376149E+01  0.70589813275E+01  0.23697455013E+02  0.26280572049E+02  0.47000000000E+01 0.  1.
<mgrwt>
<rscale>  2 0.11362178E+02</rscale>
<asrwt>0</asrwt>
<pdfrwt beam="1">  1       21 0.19295437E-01 0.11362178E+02</pdfrwt>
<pdfrwt beam="2">  1       21 0.24814163E-03 0.11362178E+02</pdfrwt>
<totfact> 0.38806295E+08</totfact>
</mgrwt>
</event>
<event>
 4    1  0.3931501E+006  0.6560866E+01  0.7546771E-02  0.2347682E+00
         21   -1    0    0  503  502  0.00000000000E+00  0.00000000000E+00  0.21468724674E+03  0.21468724674E+03  0.00000000000E+00 0.  1.
         21   -1    0    0  501  503 -0.00000000000E+00 -0.00000000000E+00 -0.20269556868E+00  0.20269556868E+00  0.00000000000E+00 0.  1.
          5    1    1    2  501    0 -0.41584591282E+01 -0.19136838542E+01  0.11842265991E+03  0.11860426362E+03  0.47000000000E+01 0.  1.
         -5    1    1    2    0  502  0.41584591282E+01  0.19136838542E+01  0.96061891260E+02  0.96285678689E+02  0.47000000000E+01 0.  1.
<mgrwt>
<rscale>  2 0.65608664E+01</rscale>
<asrwt>0</asrwt>
<pdfrwt beam="1">  1       21 0.33028625E-01 0.65608664E+01</pdfrwt>
<pdfrwt beam="2">  1       21 0.31184105E-04 0.65608664E+01</pdfrwt>
<totfact> 0.19283439E+09</totfact>
</mgrwt>
</event>
<event>
 4    1  0.3931501E+006  0.5658241E+01  0.7546771E-02  0.2462146E+00
         21   -1    0    0  503  502  0.00000000000E+00  0.00000000000E+00  0.49945220723E+00  0.49945220723E+00  0.00000000000E+00 0. -1.
         21   -1    0    0  501  503 -0.00000000000E+00 -0.00000000000E+00 -0.10169206450E+03  0.10169206450E+03  0.00000000000E+00 0. -1.
          5    1    1    2  501    0 -0.87325204466E+00  0.30270648807E+01 -0.81661931590E+02  0.81857722677E+02  0.47000000000E+01 0. -1.
         -5    1    1    2    0  502  0.87325204466E+00 -0.30270648807E+01 -0.19530680698E+02  0.20333794025E+02  0.47000000000E+01 0. -1.
<mgrwt>
<rscale>  2 0.56582410E+01</rscale>
<asrwt>0</asrwt>
<pdfrwt beam="1">  1       21 0.76838836E-04 0.56582410E+01</pdfrwt>
<pdfrwt beam="2">  1       21 0.15644926E-01 0.56582410E+01</pdfrwt>
<totfact> 0.17470415E+09</totfact>
</mgrwt>
</event>
<event>
 4    1  0.3931501E+006  0.7018894E+01  0.7546771E-02  0.2299093E+00
         21   -1    0    0  501  502  0.00000000000E+00  0.00000000000E+00  0.15734104797E+01  0.15734104797E+01  0.00000000000E+00 0.  1.
         21   -1    0    0  502  503 -0.00000000000E+00 -0.00000000000E+00 -0.36809380237E+02  0.36809380237E+02  0.00000000000E+00 0. -1.
          5    1    1    2  501    0 -0.30262331842E+01  0.42446192289E+01 -0.10200629311E+02  0.12382153206E+02  0.47000000000E+01 0.  1.
         -5    1    1    2    0  503  0.30262331842E+01 -0.42446192289E+01 -0.25035340446E+02  0.26000637510E+02  0.47000000000E+01 0. -1.
<mgrwt>
<rscale>  2 0.70188945E+01</rscale>
<asrwt>0</asrwt>
<pdfrwt beam="1">  1       21 0.24206317E-03 0.70188945E+01</pdfrwt>
<pdfrwt beam="2">  1       21 0.56629811E-02 0.70188945E+01</pdfrwt>
<totfact> 0.20916607E+09</totfact>
</mgrwt>
</event>
<event>
 4    1  0.3931501E+006  0.4843498E+01  0.7546771E-02  0.2595689E+00
         21   -1    0    0  501  502  0.00000000000E+00  0.00000000000E+00  0.13586607064E+02  0.13586607064E+02  0.00000000000E+00 0.  1.
         21   -1    0    0  502  503 -0.00000000000E+00 -0.00000000000E+00 -0.21264075312E+01  0.21264075312E+01  0.00000000000E+00 0.  1.
          5    1    1    2  501    0 -0.31569692156E+00 -0.11268561667E+01  0.91365215884E+01  0.10340962049E+02  0.47000000000E+01 0. -1.
         -5    1    1    2    0  503  0.31569692156E+00  0.11268561667E+01  0.23236779442E+01  0.53720525458E+01  0.47000000000E+01 0. -1.
<mgrwt>
<rscale>  2 0.48434976E+01</rscale>
<asrwt>0</asrwt>
<pdfrwt beam="1">  1       21 0.20902472E-02 0.48434976E+01</pdfrwt>
<pdfrwt beam="2">  1       21 0.32713963E-03 0.48434976E+01</pdfrwt>
<totfact> 0.42365881E+09</totfact>
</mgrwt>
</event>
<event>
 4    1  0.3931501E+006  0.5808095E+01  0.7546771E-02  0.2441090E+00
         21   -1    0    0  503  502  0.00000000000E+00  0.00000000000E+00  0.19373521866E+02  0.19373521866E+02  0.00000000000E+00 0. -1.
         21   -1    0    0  501  503 -0.00000000000E+00 -0.00000000000E+00 -0.19150957663E+01  0.19150957663E+01  0.00000000000E+00 0. -1.
          5    1    1    2  501    0 -0.72129345326E+00 -0.33352218745E+01  0.11936335990E+02  0.13274414716E+02  0.47000000000E+01 0. -1.
         -5    1    1    2    0  502  0.72129345326E+00  0.33352218745E+01  0.55220901101E+01  0.80142029162E+01  0.47000000000E+01 0. -1.
<mgrwt>
<rscale>  2 0.58080951E+01</rscale>
<asrwt>0</asrwt>
<pdfrwt beam="1">  1       21 0.29805417E-02 0.58080951E+01</pdfrwt>
<pdfrwt beam="2">  1       21 0.29463013E-03 0.58080951E+01</pdfrwt>
<totfact> 0.35184416E+09</totfact>
</mgrwt>
</event>
<event>
 4    1  0.3931501E+006  0.5031671E+01  0.7546771E-02  0.2561566E+00
         21   -1    0    0  501  502  0.00000000000E+00  0.00000000000E+00  0.24670343712E+01  0.24670343712E+01  0.00000000000E+00 0. -1.
         21   -1    0    0  502  503 -0.00000000000E+00 -0.00000000000E+00 -0.93698124714E+02  0.93698124714E+02  0.00000000000E+00 0. -1.
          5    1    1    2  501    0  0.14186913506E+01  0.11022826518E+01 -0.24245995466E+00  0.50375092082E+01  0.47000000000E+01 0. -1.
         -5    1    1    2    0  503 -0.14186913506E+01 -0.11022826518E+01 -0.90988630388E+02  0.91127649877E+02  0.47000000000E+01 0. -1.
<mgrwt>
<rscale>  2 0.50316709E+01</rscale>
<asrwt>0</asrwt>
<pdfrwt beam="1">  1       21 0.37954371E-03 0.50316709E+01</pdfrwt>
<pdfrwt beam="2">  1       21 0.14415097E-01 0.50316709E+01</pdfrwt>
<totfact> 0.20916656E+08</totfact>
</mgrwt>
</event>
<event>
 4    1  0.3931501E+006  0.6811681E+01  0.7546771E-02  0.2320408E+00
         21   -1    0    0  503  502  0.00000000000E+00  0.00000000000E+00  0.30338694684E+01  0.30338694684E+01  0.00000000000E+00 0. -1.
         21   -1    0    0  501  503 -0.00000000000E+00 -0.00000000000E+00 -0.25782298190E+02  0.25782298190E+02  0.00000000000E+00 0. -1.
          5    1    1    2  501    0 -0.29750039405E+01  0.39317101104E+01 -0.20563987634E+02  0.21662792532E+02  0.47000000000E+01 0. -1.
         -5    1    1    2    0  502  0.29750039405E+01 -0.39317101104E+01 -0.21844410868E+01  0.71533751265E+01  0.47000000000E+01 0. -1.
<mgrwt>
<rscale>  2 0.68116806E+01</rscale>
<asrwt>0</asrwt>
<pdfrwt beam="1">  1       21 0.46674915E-03 0.68116806E+01</pdfrwt>
<pdfrwt beam="2">  1       21 0.39665074E-02 0.68116806E+01</pdfrwt>
<totfact> 0.13989491E+09</totfact>
</mgrwt>
</event>
<event>
 4    1  0.3931501E+006  0.6566018E+01  0.7546771E-02  0.2347104E+00
         21   -1    0    0  503  502  0.00000000000E+00  0.00000000000E+00  0.42920555020E+00  0.42920555020E+00  0.00000000000E+00 0. -1.
         21   -1    0    0  501  503 -0.00000000000E+00 -0.00000000000E+00 -0.13660715484E+03  0.13660715484E+03  0.00000000000E+00 0. -1.
          5    1    1    2  501    0 -0.11163952533E+01 -0.44470501887E+01 -0.10334080449E+03  0.10354918863E+03  0.47000000000E+01 0. -1.
         -5    1    1    2    0  502  0.11163952533E+01  0.44470501887E+01 -0.32837144795E+02  0.33487171753E+02  0.47000000000E+01 0. -1.
<mgrwt>
<rscale>  2 0.65660181E+01</rscale>
<asrwt>0</asrwt>
<pdfrwt beam="1">  1       21 0.66031578E-04 0.65660181E+01</pdfrwt>
<pdfrwt beam="2">  1       21 0.21016500E-01 0.65660181E+01</pdfrwt>
<totfact> 0.15010558E+09</totfact>
</mgrwt>
</event>
<event>
 4    1  0.3931501E+006  0.5002304E+01  0.7546771E-02  0.2566745E+00
         21   -1    0    0  503  502  0.00000000000E+00  0.00000000000E+00  0.19104296230E+02  0.19104296230E+02  0.00000000000E+00 0. -1.
         21   -1    0    0  501  503 -0.00000000000E+00 -0.00000000000E+00 -0.16860749622E+01  0.16860749622E+01  0.00000000000E+00 0. -1.
          5    1    1    2  501    0  0.81195266279E+00  0.15079064583E+01  0.37984585734E+01  0.62810298955E+01  0.47000000000E+01 0. -1.
         -5    1    1    2    0  502 -0.81195266279E+00 -0.15079064583E+01  0.13619762695E+02  0.14509341297E+02  0.47000000000E+01 0. -1.
<mgrwt>
<rscale>  2 0.50023044E+01</rscale>
<asrwt>0</asrwt>
<pdfrwt beam="1">  1       21 0.29391223E-02 0.50023044E+01</pdfrwt>
<pdfrwt beam="2">  1       21 0.25939616E-03 0.50023044E+01</pdfrwt>
<totfact> 0.36934964E+09</totfact>
</mgrwt>
</event>
<event>
 4    1  0.3931501E+006  0.8278589E+01  0.7546771E-02  0.2188622E+00
         21   -1    0    0  501  502  0.00000000000E+00  0.00000000000E+00  0.30241686916E+01  0.30241686916E+01  0.00000000000E+00 0. -1.
         21   -1    0    0  502  503 -0.00000000000E+00 -0.00000000000E+00 -0.29090670232E+02  0.29090670232E+02  0.00000000000E+00 0. -1.
          5    1    1    2  501    0 -0.34113917189E+00  0.68065155224E+01 -0.54850275536E+01  0.99307883250E+01  0.47000000000E+01 0. -1.
         -5    1    1    2    0  503  0.34113917189E+00 -0.68065155224E+01 -0.20581473987E+02  0.22184050599E+02  0.47000000000E+01 0. -1.
<mgrwt>
<rscale>  2 0.82785886E+01</rscale>
<asrwt>0</asrwt>
<pdfrwt beam="1">  1       21 0.46525674E-03 0.82785886E+01</pdfrwt>
<pdfrwt beam="2">  1       21 0.44754876E-02 0.82785886E+01</pdfrwt>
<totfact> 0.13483826E+09</totfact>
</mgrwt>
</event>
<event>
 4    1  0.3931501E+006  0.7492427E+01  0.7546771E-02  0.2254038E+00
         21   -1    0    0  503  502  0.00000000000E+00  0.00000000000E+00  0.14614691936E+00  0.14614691936E+00  0.00000000000E+00 0. -1.
         21   -1    0    0  501  503 -0.00000000000E+00 -0.00000000000E+00 -0.40978589610E+03  0.40978589610E+03  0.00000000000E+00 0.  1.
          5    1    1    2  501    0 -0.28953271558E+01  0.50659202467E+01 -0.25612581734E+03  0.25623538158E+03  0.47000000000E+01 0.  1.
         -5    1    1    2    0  502  0.28953271558E+01 -0.50659202467E+01 -0.15351393185E+03  0.15369666144E+03  0.47000000000E+01 0. -1.
<mgrwt>
<rscale>  2 0.74924273E+01</rscale>
<asrwt>0</asrwt>
<pdfrwt beam="1">  1       21 0.22484089E-04 0.74924273E+01</pdfrwt>
<pdfrwt beam="2">  1       21 0.63044131E-01 0.74924273E+01</pdfrwt>
<totfact> 0.10221778E+09</totfact>
</mgrwt>
</event>
<event>
 4    1  0.3931501E+006  0.5823117E+01  0.7546771E-02  0.2439030E+00
         21   -1    0    0  501  502  0.00000000000E+00  0.00000000000E+00  0.35025010537E+00  0.35025010537E+00  0.00000000000E+00 0. -1.
         21   -1    0    0  502  503 -0.00000000000E+00 -0.00000000000E+00 -0.10207397226E+03  0.10207397226E+03  0.00000000000E+00 0. -1.
          5    1    1    2  501    0  0.31229850089E+01  0.14372408737E+01 -0.39235172384E+02  0.39664939792E+02  0.47000000000E+01 0. -1.
         -5    1    1    2    0  503 -0.31229850089E+01 -0.14372408737E+01 -0.62488549768E+02  0.62759282570E+02  0.47000000000E+01 0. -1.
<mgrwt>
<rscale>  2 0.58231174E+01</rscale>
<asrwt>0</asrwt>
<pdfrwt beam="1">  1       21 0.53884605E-04 0.58231174E+01</pdfrwt>
<pdfrwt beam="2">  1       21 0.15703696E-01 0.58231174E+01</pdfrwt>
<totfact> 0.28584416E+09</totfact>
</mgrwt>
</event>
<event>
 4    1  0.3931501E+006  0.8437147E+01  0.7546771E-02  0.2176628E+00
         21   -1    0    0  501  502  0.00000000000E+00  0.00000000000E+00  0.12199507255E+00  0.12199507255E+00  0.00000000000E+00 0. -1.
         21   -1    0    0  502  503 -0.00000000000E+00 -0.00000000000E+00 -0.61020656890E+03  0.61020656890E+03  0.00000000000E+00 0. -1.
          5    1    1    2  501    0 -0.70004166369E+01  0.29935434681E+00 -0.24121355315E+03  0.24136106494E+03  0.47000000000E+01 0. -1.
         -5    1    1    2    0  503  0.70004166369E+01 -0.29935434681E+00 -0.36887102068E+03  0.36896749903E+03  0.47000000000E+01 0. -1.
<mgrwt>
<rscale>  2 0.84371468E+01</rscale>
<asrwt>0</asrwt>
<pdfrwt beam="1">  1       21 0.18768223E-04 0.84371468E+01</pdfrwt>
<pdfrwt beam="2">  1       21 0.93879184E-01 0.84371468E+01</pdfrwt>
<totfact> 0.63731723E+08</totfact>
</mgrwt>
</event>
<event>
 4    1  0.3931501E+006  0.4722712E+01  0.7546771E-02  0.2618827E+00
         21   -1    0    0  503  502  0.00000000000E+00  0.00000000000E+00  0.12449428574E+03  0.12449428574E+03  0.00000000000E+00 0.  1.
         21   -1    0    0  501  503 -0.00000000000E+00 -0.00000000000E+00 -0.19063447469E+00  0.19063447469E+00  0.00000000000E+00 0.  1.
          5    1    1    2  501    0 -0.25505932153E+00  0.38595059413E+00  0.46854769838E+02  0.47092180558E+02  0.47000000000E+01 0.  1.
         -5    1    1    2    0  502  0.25505932153E+00 -0.38595059413E+00  0.77448881431E+02  0.77592739660E+02  0.47000000000E+01 0.  1.
<mgrwt>
<rscale>  2 0.47227125E+01</rscale>
<asrwt>0</asrwt>
<pdfrwt beam="1">  1       21 0.19152902E-01 0.47227125E+01</pdfrwt>
<pdfrwt beam="2">  1       21 0.29328480E-04 0.47227125E+01</pdfrwt>
<totfact> 0.38519728E+09</totfact>
</mgrwt>
</event>
<event>
 4    1  0.3931501E+006  0.4905981E+01  0.7546771E-02  0.2584108E+00
         21   -1    0    0  501  502  0.00000000000E+00  0.00000000000E+00  0.10813028542E-01  0.10813028542E-01  0.00000000000E+00 0.  1.
         21   -1    0    0  502  503 -0.00000000000E+00 -0.00000000000E+00 -0.23608760098E+04  0.23608760098E+04  0.00000000000E+00 0.  1.
          5    1    1    2  501    0  0.94830602982E+00 -0.10389240474E+01 -0.89817366491E+03  0.89818706347E+03  0.47000000000E+01 0.  1.
         -5    1    1    2    0  503 -0.94830602982E+00  0.10389240474E+01 -0.14626915319E+04  0.14626997594E+04  0.47000000000E+01 0.  1.
<mgrwt>
<rscale>  2 0.49059808E+01</rscale>
<asrwt>0</asrwt>
<pdfrwt beam="1">  1       21 0.16655963E-05 0.49059808E+01</pdfrwt>
<pdfrwt beam="2">  1       21 0.36276389E+00 0.49059808E+01</pdfrwt>
<totfact> 0.56920292E+08</totfact>
</mgrwt>
</event>
<event>
 4    1  0.3931501E+006  0.4813329E+01  0.7546771E-02  0.2601374E+00
         21   -1    0    0  503  502  0.00000000000E+00  0.00000000000E+00  0.25097658079E+02  0.25097658079E+02  0.00000000000E+00 0. -1.
         21   -1    0    0  501  503 -0.00000000000E+00 -0.00000000000E+00 -0.96407503202E+01  0.96407503202E+01  0.00000000000E+00 0. -1.
          5    1    1    2  501    0 -0.86476452480E+00  0.57473510992E+00 -0.87882635663E+01  0.10020065601E+02  0.47000000000E+01 0. -1.
         -5    1    1    2    0  502  0.86476452480E+00 -0.57473510992E+00  0.24245171325E+02  0.24718342799E+02  0.47000000000E+01 0. -1.
<mgrwt>
<rscale>  2 0.48133292E+01</rscale>
<asrwt>0</asrwt>
<pdfrwt beam="1">  1       21 0.38611781E-02 0.48133292E+01</pdfrwt>
<pdfrwt beam="2">  1       21 0.14831924E-02 0.48133292E+01</pdfrwt>
<totfact> 0.21747758E+08</totfact>
</mgrwt>
</event>
<event>
 4    1  0.3931501E+006  0.5638727E+01  0.7546771E-02  0.2464958E+00
         21   -1    0    0  503  502  0.00000000000E+00  0.00000000000E+00  0.17740886624E+03  0.17740886624E+03  0.00000000000E+00 0.  1.
         21   -1    0    0  501  503 -0.00000000000E+00 -0.00000000000E+00 -0.20777431310E+00  0.20777431310E+00  0.00000000000E+00 0. -1.
          5    1    1    2  501    0  0.31044062508E+01 -0.26057697811E+00  0.55678056734E+02  0.55962855898E+02  0.47000000000E+01 0. -1.
         -5    1    1    2    0  502 -0.31044062508E+01  0.26057697811E+00  0.12152303519E+03  0.12165378466E+03  0.47000000000E+01 0.  1.
<mgrwt>
<rscale>  2 0.56387267E+01</rscale>
<asrwt>0</asrwt>
<pdfrwt beam="1">  1       21 0.27293551E-01 0.56387267E+01</pdfrwt>
<pdfrwt beam="2">  1       21 0.31965421E-04 0.56387267E+01</pdfrwt>
<totfact> 0.22847075E+09</totfact>
</mgrwt>
</event>
<event>
 4    1  0.3931501E+006  0.5334119E+01  0.7546771E-02  0.2511089E+00
         21   -1    0    0  503  502  0.00000000000E+00  0.00000000000E+00  0.13019977450E+01  0.13019977450E+01  0.00000000000E+00 0.  1.
         21   -1    0    0  501  503 -0.00000000000E+00 -0.00000000000E+00 -0.80381638754E+02  0.80381638754E+02  0.00000000000E+00 0.  1.
          5    1    1    2  501    0 -0.16505320201E+01  0.19075034540E+01 -0.74390406629E+02  0.74581401327E+02  0.47000000000E+01 0.  1.
         -5    1    1    2    0  502  0.16505320201E+01 -0.19075034540E+01 -0.46892343798E+01  0.71022351725E+01  0.47000000000E+01 0.  1.
<mgrwt>
<rscale>  2 0.53341190E+01</rscale>
<asrwt>0</asrwt>
<pdfrwt beam="1">  1       21 0.20030731E-03 0.53341190E+01</pdfrwt>
<pdfrwt beam="2">  1       21 0.12366408E-01 0.53341190E+01</pdfrwt>
<totfact> 0.66302532E+08</totfact>
</mgrwt>
</event>
<event>
 4    1  0.3931501E+006  0.5278383E+01  0.7546771E-02  0.2520018E+00
         21   -1    0    0  501  502  0.00000000000E+00  0.00000000000E+00  0.26974504878E+02  0.26974504878E+02  0.00000000000E+00 0. -1.
         21   -1    0    0  502  503 -0.00000000000E+00 -0.00000000000E+00 -0.12848195816E+01  0.12848195816E+01  0.00000000000E+00 0. -1.
          5    1    1    2  501    0 -0.23173558435E+01  0.63339586381E+00  0.19101783441E+02  0.19817655236E+02  0.47000000000E+01 0. -1.
         -5    1    1    2    0  503  0.23173558435E+01 -0.63339586381E+00  0.65879018558E+01  0.84416692240E+01  0.47000000000E+01 0. -1.
<mgrwt>
<rscale>  2 0.52783831E+01</rscale>
<asrwt>0</asrwt>
<pdfrwt beam="1">  1       21 0.41499234E-02 0.52783831E+01</pdfrwt>
<pdfrwt beam="2">  1       21 0.19766457E-03 0.52783831E+01</pdfrwt>
<totfact> 0.34203030E+09</totfact>
</mgrwt>
</event>
<event>
 4    1  0.3931501E+006  0.9088780E+01  0.7546771E-02  0.2130885E+00
         21   -1    0    0  501  502  0.00000000000E+00  0.00000000000E+00  0.11352814494E+02  0.11352814494E+02  0.00000000000E+00 0.  1.
         21   -1    0    0  502  503 -0.00000000000E+00 -0.00000000000E+00 -0.10019598011E+02  0.10019598011E+02  0.00000000000E+00 0.  1.
          5    1    1    2  501    0  0.98157338776E+00 -0.77170221921E+01  0.62582436420E+01  0.11035013879E+02  0.47000000000E+01 0.  1.
         -5    1    1    2    0  503 -0.98157338776E+00  0.77170221921E+01 -0.49250271591E+01  0.10337398626E+02  0.47000000000E+01 0.  1.
<mgrwt>
<rscale>  2 0.90887798E+01</rscale>
<asrwt>0</asrwt>
<pdfrwt beam="1">  1       21 0.17465868E-02 0.90887798E+01</pdfrwt>
<pdfrwt beam="2">  1       21 0.15414766E-02 0.90887798E+01</pdfrwt>
<totfact> 0.10380485E+09</totfact>
</mgrwt>
</event>
<event>
 4    1  0.3931501E+006  0.6537986E+01  0.7546771E-02  0.2350255E+00
         21   -1    0    0  501  502  0.00000000000E+00  0.00000000000E+00  0.11288807170E+01  0.11288807170E+01  0.00000000000E+00 0.  1.
         21   -1    0    0  502  503 -0.00000000000E+00 -0.00000000000E+00 -0.39455089582E+02  0.39455089582E+02  0.00000000000E+00 0.  1.
          5    1    1    2  501    0 -0.13754044242E+01 -0.43316888911E+01 -0.15089677729E+02  0.16445170718E+02  0.47000000000E+01 0.  1.
         -5    1    1    2    0  503  0.13754044242E+01  0.43316888911E+01 -0.23236531136E+02  0.24138799581E+02  0.47000000000E+01 0.  1.
<mgrwt>
<rscale>  2 0.65379864E+01</rscale>
<asrwt>0</asrwt>
<pdfrwt beam="1">  1       21 0.17367395E-03 0.65379864E+01</pdfrwt>
<pdfrwt beam="2">  1       21 0.60700140E-02 0.65379864E+01</pdfrwt>
<totfact> 0.28102246E+09</totfact>
</mgrwt>
</event>
