<event>
 4    1  0.3900819E+006  0.5865471E+01  0.7546771E-02  0.2433268E+00
         21   -1    0    0  503  502  0.00000000000E+00  0.00000000000E+00  0.71727577283E+00  0.71727577283E+00  0.00000000000E+00 0. -1.
         21   -1    0    0  501  503 -0.00000000000E+00 -0.00000000000E+00 -0.52889548421E+02  0.52889548421E+02  0.00000000000E+00 0.  1.
          5    1    1    2  501    0  0.10819161899E+01 -0.33381448396E+01 -0.34265351765E+02  0.34763746708E+02  0.47000000000E+01 0.  1.
         -5    1    1    2    0  502 -0.10819161899E+01  0.33381448396E+01 -0.17906920883E+02  0.18843077485E+02  0.47000000000E+01 0. -1.
<mgrwt>
<rscale>  2 0.58654713E+01</rscale>
<asrwt>0</asrwt>
<pdfrwt beam="1">  1       21 0.11035012E-03 0.58654713E+01</pdfrwt>
<pdfrwt beam="2">  1       21 0.81368533E-02 0.58654713E+01</pdfrwt>
<totfact> 0.30421098E+09</totfact>
</mgrwt>
</event>
<event>
 4    1  0.3900819E+006  0.4969501E+01  0.7546771E-02  0.2572593E+00
         21   -1    0    0  503  502  0.00000000000E+00  0.00000000000E+00  0.75589637104E-01  0.75589637104E-01  0.00000000000E+00 0.  1.
         21   -1    0    0  501  503 -0.00000000000E+00 -0.00000000000E+00 -0.10277167156E+04  0.10277167156E+04  0.00000000000E+00 0.  1.
          5    1    1    2  501    0  0.52339246455E+00 -0.15270903329E+01 -0.93824416145E+03  0.93825732208E+03  0.47000000000E+01 0.  1.
         -5    1    1    2    0  502 -0.52339246455E+00  0.15270903329E+01 -0.89396964530E+02  0.89534983173E+02  0.47000000000E+01 0.  1.
<mgrwt>
<rscale>  2 0.49695014E+01</rscale>
<asrwt>0</asrwt>
<pdfrwt beam="1">  1       21 0.11628073E-04 0.49695014E+01</pdfrwt>
<pdfrwt beam="2">  1       21 0.15812525E+00 0.49695014E+01</pdfrwt>
<totfact> 0.29308176E+08</totfact>
</mgrwt>
</event>
<event>
 4    1  0.3900819E+006  0.8226416E+01  0.7546771E-02  0.2192650E+00
         21   -1    0    0  501  502  0.00000000000E+00  0.00000000000E+00  0.63483183908E+01  0.63483183908E+01  0.00000000000E+00 0.  1.
         21   -1    0    0  502  503 -0.00000000000E+00 -0.00000000000E+00 -0.16183154909E+02  0.16183154909E+02  0.00000000000E+00 0.  1.
          5    1    1    2  501    0 -0.55966205290E+01  0.37764752483E+01  0.16639521007E+01  0.83930127630E+01  0.47000000000E+01 0.  1.
         -5    1    1    2    0  503  0.55966205290E+01 -0.37764752483E+01 -0.11498788619E+02  0.14138460537E+02  0.47000000000E+01 0.  1.
<mgrwt>
<rscale>  2 0.82264164E+01</rscale>
<asrwt>0</asrwt>
<pdfrwt beam="1">  1       21 0.97666435E-03 0.82264164E+01</pdfrwt>
<pdfrwt beam="2">  1       21 0.24897162E-02 0.82264164E+01</pdfrwt>
<totfact> 0.11194286E+09</totfact>
</mgrwt>
</event>
<event>
 4    1  0.3900819E+006  0.1362373E+02  0.7546771E-02  0.1913222E+00
         21   -1    0    0  501  502  0.00000000000E+00  0.00000000000E+00  0.20019691744E+02  0.20019691744E+02  0.00000000000E+00 0.  1.
         21   -1    0    0  502  503 -0.00000000000E+00 -0.00000000000E+00 -0.41460192210E+02  0.41460192210E+02  0.00000000000E+00 0. -1.
          5    1    1    2  501    0  0.65483650359E+01  0.10983389066E+02  0.16365526573E+02  0.21294045647E+02  0.47000000000E+01 0.  1.
         -5    1    1    2    0  503 -0.65483650359E+01 -0.10983389066E+02 -0.37806027039E+02  0.40185838307E+02  0.47000000000E+01 0. -1.
<mgrwt>
<rscale>  2 0.13623726E+02</rscale>
<asrwt>0</asrwt>
<pdfrwt beam="1">  1       21 0.30799526E-02 0.13623726E+02</pdfrwt>
<pdfrwt beam="2">  1       21 0.63784910E-02 0.13623726E+02</pdfrwt>
<totfact> 0.63191774E+07</totfact>
</mgrwt>
</event>
<event>
 4    1  0.3900819E+006  0.6595862E+01  0.7546771E-02  0.2343774E+00
         21   -1    0    0  501  502  0.00000000000E+00  0.00000000000E+00  0.11650751726E+01  0.11650751726E+01  0.00000000000E+00 0.  1.
         21   -1    0    0  502  503 -0.00000000000E+00 -0.00000000000E+00 -0.55480813442E+03  0.55480813442E+03  0.00000000000E+00 0.  1.
          5    1    1    2  501    0  0.31330506426E+01 -0.34057868881E+01 -0.83527859302E+01  0.10643045779E+02  0.47000000000E+01 0.  1.
         -5    1    1    2    0  503 -0.31330506426E+01  0.34057868881E+01 -0.54529027331E+03  0.54533016381E+03  0.47000000000E+01 0.  1.
<mgrwt>
<rscale>  2 0.65958616E+01</rscale>
<asrwt>0</asrwt>
<pdfrwt beam="1">  1       21 0.17924204E-03 0.65958616E+01</pdfrwt>
<pdfrwt beam="2">  1       21 0.85355237E-01 0.65958616E+01</pdfrwt>
<totfact> 0.32014903E+07</totfact>
</mgrwt>
</event>
<event>
 4    1  0.3900819E+006  0.8900583E+01  0.7546771E-02  0.2143547E+00
         21   -1    0    0  503  502  0.00000000000E+00  0.00000000000E+00  0.19407175164E+02  0.19407175164E+02  0.00000000000E+00 0.  1.
         21   -1    0    0  501  503 -0.00000000000E+00 -0.00000000000E+00 -0.59382642118E+01  0.59382642118E+01  0.00000000000E+00 0. -1.
          5    1    1    2  501    0 -0.75388301196E+01 -0.54443680133E+00 -0.35084489708E+00  0.89074947738E+01  0.47000000000E+01 0. -1.
         -5    1    1    2    0  502  0.75388301196E+01  0.54443680133E+00  0.13819755849E+02  0.16437944602E+02  0.47000000000E+01 0.  1.
<mgrwt>
<rscale>  2 0.89005826E+01</rscale>
<asrwt>0</asrwt>
<pdfrwt beam="1">  1       21 0.29857192E-02 0.89005826E+01</pdfrwt>
<pdfrwt beam="2">  1       21 0.91357912E-03 0.89005826E+01</pdfrwt>
<totfact> 0.99041146E+08</totfact>
</mgrwt>
</event>
<event>
 4    1  0.3900819E+006  0.4891078E+01  0.7546771E-02  0.2586847E+00
         21   -1    0    0  503  502  0.00000000000E+00  0.00000000000E+00  0.44088554791E+00  0.44088554791E+00  0.00000000000E+00 0.  1.
         21   -1    0    0  501  503 -0.00000000000E+00 -0.00000000000E+00 -0.70459022428E+02  0.70459022428E+02  0.00000000000E+00 0.  1.
          5    1    1    2  501    0 -0.70560902719E+00 -0.11553196474E+01 -0.52006596222E+02  0.52236086168E+02  0.47000000000E+01 0.  1.
         -5    1    1    2    0  502  0.70560902719E+00  0.11553196474E+01 -0.18011540658E+02  0.18663821807E+02  0.47000000000E+01 0.  1.
<mgrwt>
<rscale>  2 0.48910784E+01</rscale>
<asrwt>0</asrwt>
<pdfrwt beam="1">  1       21 0.67828558E-04 0.48910784E+01</pdfrwt>
<pdfrwt beam="2">  1       21 0.10839848E-01 0.48910784E+01</pdfrwt>
<totfact> 0.31747742E+09</totfact>
</mgrwt>
</event>
<event>
 4    1  0.3900819E+006  0.5089227E+01  0.7546771E-02  0.2551564E+00
         21   -1    0    0  503  502  0.00000000000E+00  0.00000000000E+00  0.82129300741E+01  0.82129300741E+01  0.00000000000E+00 0. -1.
         21   -1    0    0  501  503 -0.00000000000E+00 -0.00000000000E+00 -0.41226010406E+01  0.41226010406E+01  0.00000000000E+00 0.  1.
          5    1    1    2  501    0  0.44299012002E+00 -0.19010487389E+01 -0.94507672754E+00  0.51762338215E+01  0.47000000000E+01 0.  1.
         -5    1    1    2    0  502 -0.44299012002E+00  0.19010487389E+01  0.50354057610E+01  0.71592972932E+01  0.47000000000E+01 0. -1.
<mgrwt>
<rscale>  2 0.50892265E+01</rscale>
<asrwt>0</asrwt>
<pdfrwt beam="1">  1       21 0.12635277E-02 0.50892265E+01</pdfrwt>
<pdfrwt beam="2">  1       21 0.63424632E-03 0.50892265E+01</pdfrwt>
<totfact> 0.36639729E+09</totfact>
</mgrwt>
</event>
<event>
 4    1  0.3900819E+006  0.5578835E+01  0.7546771E-02  0.2473690E+00
         21   -1    0    0  501  502  0.00000000000E+00  0.00000000000E+00  0.24198368266E+03  0.24198368266E+03  0.00000000000E+00 0. -1.
         21   -1    0    0  502  503 -0.00000000000E+00 -0.00000000000E+00 -0.20672664551E+00  0.20672664551E+00  0.00000000000E+00 0. -1.
          5    1    1    2  501    0 -0.13524866303E+01  0.26840593003E+01  0.19532378649E+03  0.19540344153E+03  0.47000000000E+01 0. -1.
         -5    1    1    2    0  503  0.13524866303E+01 -0.26840593003E+01  0.46453169525E+02  0.46786967772E+02  0.47000000000E+01 0. -1.
<mgrwt>
<rscale>  2 0.55788345E+01</rscale>
<asrwt>0</asrwt>
<pdfrwt beam="1">  1       21 0.37228032E-01 0.55788345E+01</pdfrwt>
<pdfrwt beam="2">  1       21 0.31804293E-04 0.55788345E+01</pdfrwt>
<totfact> 0.13505858E+09</totfact>
</mgrwt>
</event>
<event>
 4    1  0.3900819E+006  0.5124841E+01  0.7546771E-02  0.2545473E+00
         21   -1    0    0  501  502  0.00000000000E+00  0.00000000000E+00  0.16134327296E+00  0.16134327296E+00  0.00000000000E+00 0. -1.
         21   -1    0    0  502  503 -0.00000000000E+00 -0.00000000000E+00 -0.32981928173E+03  0.32981928173E+03  0.00000000000E+00 0. -1.
          5    1    1    2  501    0 -0.99658754059E+00 -0.17834819111E+01 -0.47413475487E+02  0.47689638835E+02  0.47000000000E+01 0. -1.
         -5    1    1    2    0  503  0.99658754059E+00  0.17834819111E+01 -0.28224446297E+03  0.28229098617E+03  0.47000000000E+01 0. -1.
<mgrwt>
<rscale>  2 0.51248409E+01</rscale>
<asrwt>0</asrwt>
<pdfrwt beam="1">  1       21 0.24821800E-04 0.51248409E+01</pdfrwt>
<pdfrwt beam="2">  1       21 0.50741923E-01 0.51248409E+01</pdfrwt>
<totfact> 0.10186691E+09</totfact>
</mgrwt>
</event>
<event>
 4    1  0.3900819E+006  0.4993959E+01  0.7546771E-02  0.2568226E+00
         21   -1    0    0  503  502  0.00000000000E+00  0.00000000000E+00  0.91516837716E+02  0.91516837716E+02  0.00000000000E+00 0.  1.
         21   -1    0    0  501  503 -0.00000000000E+00 -0.00000000000E+00 -0.28223931826E+00  0.28223931826E+00  0.00000000000E+00 0. -1.
          5    1    1    2  501    0  0.16880720290E+01  0.65967128920E-02  0.37097119671E+02  0.37431750141E+02  0.47000000000E+01 0. -1.
         -5    1    1    2    0  502 -0.16880720290E+01 -0.65967128920E-02  0.54137478726E+02  0.54367326893E+02  0.47000000000E+01 0.  1.
<mgrwt>
<rscale>  2 0.49939594E+01</rscale>
<asrwt>0</asrwt>
<pdfrwt beam="1">  1       21 0.14079490E-01 0.49939594E+01</pdfrwt>
<pdfrwt beam="2">  1       21 0.43421506E-04 0.49939594E+01</pdfrwt>
<totfact> 0.39200713E+09</totfact>
</mgrwt>
</event>
<event>
 4    1  0.3900819E+006  0.9495668E+01  0.7546771E-02  0.2104880E+00
         21   -1    0    0  503  502  0.00000000000E+00  0.00000000000E+00  0.39410853414E+01  0.39410853414E+01  0.00000000000E+00 0. -1.
         21   -1    0    0  501  503 -0.00000000000E+00 -0.00000000000E+00 -0.23014593403E+02  0.23014593403E+02  0.00000000000E+00 0. -1.
          5    1    1    2  501    0  0.17662158956E+00  0.82490313703E+01 -0.85018707652E+01  0.12745568651E+02  0.47000000000E+01 0. -1.
         -5    1    1    2    0  502 -0.17662158956E+00 -0.82490313703E+01 -0.10571637297E+02  0.14210110093E+02  0.47000000000E+01 0. -1.
<mgrwt>
<rscale>  2 0.94956682E+01</rscale>
<asrwt>0</asrwt>
<pdfrwt beam="1">  1       21 0.60632083E-03 0.94956682E+01</pdfrwt>
<pdfrwt beam="2">  1       21 0.35407066E-02 0.94956682E+01</pdfrwt>
<totfact> 0.14392374E+09</totfact>
</mgrwt>
</event>
<event>
 4    1  0.3900819E+006  0.8878891E+01  0.7546771E-02  0.2145034E+00
         21   -1    0    0  501  502  0.00000000000E+00  0.00000000000E+00  0.10403615698E+00  0.10403615698E+00  0.00000000000E+00 0. -1.
         21   -1    0    0  502  503 -0.00000000000E+00 -0.00000000000E+00 -0.80327959740E+03  0.80327959740E+03  0.00000000000E+00 0. -1.
          5    1    1    2  501    0  0.18329247066E+01  0.73065098853E+01 -0.49720736183E+03  0.49728663300E+03  0.47000000000E+01 0. -1.
         -5    1    1    2    0  503 -0.18329247066E+01 -0.73065098853E+01 -0.30596819941E+03  0.30609700056E+03  0.47000000000E+01 0. -1.
<mgrwt>
<rscale>  2 0.88788907E+01</rscale>
<asrwt>0</asrwt>
<pdfrwt beam="1">  1       21 0.16006169E-04 0.88788907E+01</pdfrwt>
<pdfrwt beam="2">  1       21 0.12357680E+00 0.88788907E+01</pdfrwt>
<totfact> 0.45526322E+08</totfact>
</mgrwt>
</event>
<event>
 4    1  0.3900819E+006  0.4873574E+01  0.7546771E-02  0.2590082E+00
         21   -1    0    0  503  502  0.00000000000E+00  0.00000000000E+00  0.44549546391E+01  0.44549546391E+01  0.00000000000E+00 0. -1.
         21   -1    0    0  501  503 -0.00000000000E+00 -0.00000000000E+00 -0.59721601383E+02  0.59721601383E+02  0.00000000000E+00 0. -1.
          5    1    1    2  501    0 -0.12320993428E+01 -0.37901317942E+00 -0.58255813826E+02  0.58459315462E+02  0.47000000000E+01 0. -1.
         -5    1    1    2    0  502  0.12320993428E+01  0.37901317942E+00  0.29891670818E+01  0.57172405602E+01  0.47000000000E+01 0. -1.
<mgrwt>
<rscale>  2 0.48735736E+01</rscale>
<asrwt>0</asrwt>
<pdfrwt beam="1">  1       21 0.68537759E-03 0.48735736E+01</pdfrwt>
<pdfrwt beam="2">  1       21 0.91879393E-02 0.48735736E+01</pdfrwt>
<totfact> 0.17991761E+08</totfact>
</mgrwt>
</event>
<event>
 4    1  0.3900819E+006  0.5472629E+01  0.7546771E-02  0.2489572E+00
         21   -1    0    0  503  502  0.00000000000E+00  0.00000000000E+00  0.13402781127E+01  0.13402781127E+01  0.00000000000E+00 0.  1.
         21   -1    0    0  501  503 -0.00000000000E+00 -0.00000000000E+00 -0.26065928962E+02  0.26065928962E+02  0.00000000000E+00 0.  1.
          5    1    1    2  501    0 -0.18881992724E+01 -0.20722855681E+01 -0.17539584647E+02  0.18373532420E+02  0.47000000000E+01 0. -1.
         -5    1    1    2    0  502  0.18881992724E+01  0.20722855681E+01 -0.71860662017E+01  0.90326746550E+01  0.47000000000E+01 0. -1.
<mgrwt>
<rscale>  2 0.54726286E+01</rscale>
<asrwt>0</asrwt>
<pdfrwt beam="1">  1       21 0.20619665E-03 0.54726286E+01</pdfrwt>
<pdfrwt beam="2">  1       21 0.40101426E-02 0.54726286E+01</pdfrwt>
<totfact> 0.35175241E+09</totfact>
</mgrwt>
</event>
<event>
 4    1  0.3900819E+006  0.5210788E+01  0.7546771E-02  0.2531066E+00
         21   -1    0    0  501  502  0.00000000000E+00  0.00000000000E+00  0.29053525221E+00  0.29053525221E+00  0.00000000000E+00 0. -1.
         21   -1    0    0  502  503 -0.00000000000E+00 -0.00000000000E+00 -0.94509774276E+02  0.94509774276E+02  0.00000000000E+00 0. -1.
          5    1    1    2  501    0 -0.94475394039E+00 -0.20419957030E+01 -0.52114388480E+02  0.52374247423E+02  0.47000000000E+01 0. -1.
         -5    1    1    2    0  503  0.94475394039E+00  0.20419957030E+01 -0.42104850544E+02  0.42426062105E+02  0.47000000000E+01 0. -1.
<mgrwt>
<rscale>  2 0.52107875E+01</rscale>
<asrwt>0</asrwt>
<pdfrwt beam="1">  1       21 0.44697709E-04 0.52107875E+01</pdfrwt>
<pdfrwt beam="2">  1       21 0.14539972E-01 0.52107875E+01</pdfrwt>
<totfact> 0.37408409E+09</totfact>
</mgrwt>
</event>
<event>
 4    1  0.3900819E+006  0.5590377E+01  0.7546771E-02  0.2471995E+00
         21   -1    0    0  501  502  0.00000000000E+00  0.00000000000E+00  0.68066978876E+02  0.68066978876E+02  0.00000000000E+00 0. -1.
         21   -1    0    0  502  503 -0.00000000000E+00 -0.00000000000E+00 -0.15912065279E+01  0.15912065279E+01  0.00000000000E+00 0. -1.
          5    1    1    2  501    0 -0.17639570830E+01  0.24598310582E+01  0.62615380114E+02  0.62864442575E+02  0.47000000000E+01 0. -1.
         -5    1    1    2    0  503  0.17639570830E+01 -0.24598310582E+01  0.38603922338E+01  0.67937428288E+01  0.47000000000E+01 0. -1.
<mgrwt>
<rscale>  2 0.55903769E+01</rscale>
<asrwt>0</asrwt>
<pdfrwt beam="1">  1       21 0.10471841E-01 0.55903769E+01</pdfrwt>
<pdfrwt beam="2">  1       21 0.24480106E-03 0.55903769E+01</pdfrwt>
<totfact> 0.67776183E+08</totfact>
</mgrwt>
</event>
<event>
 4    1  0.3900819E+006  0.9160612E+01  0.7546771E-02  0.2126162E+00
         21   -1    0    0  501  502  0.00000000000E+00  0.00000000000E+00  0.10922406614E+03  0.10922406614E+03  0.00000000000E+00 0. -1.
         21   -1    0    0  502  503 -0.00000000000E+00 -0.00000000000E+00 -0.13630875409E+01  0.13630875409E+01  0.00000000000E+00 0.  1.
          5    1    1    2  501    0 -0.58030924056E+01 -0.53057453906E+01  0.90455794773E+02  0.90918466901E+02  0.47000000000E+01 0. -1.
         -5    1    1    2    0  503  0.58030924056E+01  0.53057453906E+01  0.17405183824E+02  0.19668686778E+02  0.47000000000E+01 0.  1.
<mgrwt>
<rscale>  2 0.91606122E+01</rscale>
<asrwt>0</asrwt>
<pdfrwt beam="1">  1       21 0.16803696E-01 0.91606122E+01</pdfrwt>
<pdfrwt beam="2">  1       21 0.20970586E-03 0.91606122E+01</pdfrwt>
<totfact> 0.55322200E+08</totfact>
</mgrwt>
</event>
<event>
 4    1  0.3900819E+006  0.7065676E+01  0.7546771E-02  0.2294423E+00
         21   -1    0    0  501  502  0.00000000000E+00  0.00000000000E+00  0.59952844197E+01  0.59952844197E+01  0.00000000000E+00 0. -1.
         21   -1    0    0  502  503 -0.00000000000E+00 -0.00000000000E+00 -0.92728606951E+01  0.92728606951E+01  0.00000000000E+00 0.  1.
          5    1    1    2  501    0 -0.14674886815E+01 -0.50675690748E+01  0.79915149293E+00  0.71107258748E+01  0.47000000000E+01 0.  1.
         -5    1    1    2    0  503  0.14674886815E+01  0.50675690748E+01 -0.40767277683E+01  0.81574192399E+01  0.47000000000E+01 0.  1.
<mgrwt>
<rscale>  2 0.70656761E+01</rscale>
<asrwt>0</asrwt>
<pdfrwt beam="1">  1       21 0.92235145E-03 0.70656761E+01</pdfrwt>
<pdfrwt beam="2">  1       21 0.14265939E-02 0.70656761E+01</pdfrwt>
<totfact> 0.24465350E+09</totfact>
</mgrwt>
</event>
<event>
 4    1  0.3900819E+006  0.5643103E+01  0.7546771E-02  0.2464326E+00
         21   -1    0    0  503  502  0.00000000000E+00  0.00000000000E+00  0.44106413148E+01  0.44106413148E+01  0.00000000000E+00 0.  1.
         21   -1    0    0  501  503 -0.00000000000E+00 -0.00000000000E+00 -0.17945703028E+02  0.17945703028E+02  0.00000000000E+00 0.  1.
          5    1    1    2  501    0  0.29481790905E+01 -0.10309494256E+01 -0.15409335031E+02  0.16410125617E+02  0.47000000000E+01 0.  1.
         -5    1    1    2    0  502 -0.29481790905E+01  0.10309494256E+01  0.18742733177E+01  0.59462187260E+01  0.47000000000E+01 0.  1.
<mgrwt>
<rscale>  2 0.56431035E+01</rscale>
<asrwt>0</asrwt>
<pdfrwt beam="1">  1       21 0.67856019E-03 0.56431035E+01</pdfrwt>
<pdfrwt beam="2">  1       21 0.27608774E-02 0.56431035E+01</pdfrwt>
<totfact> 0.12100441E+09</totfact>
</mgrwt>
</event>
<event>
 4    1  0.3900819E+006  0.4753918E+01  0.7546771E-02  0.2612752E+00
         21   -1    0    0  501  502  0.00000000000E+00  0.00000000000E+00  0.41028379864E+01  0.41028379864E+01  0.00000000000E+00 0.  1.
         21   -1    0    0  502  503 -0.00000000000E+00 -0.00000000000E+00 -0.76884849316E+01  0.76884849316E+01  0.00000000000E+00 0.  1.
          5    1    1    2  501    0  0.27565251917E+00 -0.65859935852E+00  0.13466513257E+01  0.49409722949E+01  0.47000000000E+01 0.  1.
         -5    1    1    2    0  503 -0.27565251917E+00  0.65859935852E+00 -0.49322982709E+01  0.68503506231E+01  0.47000000000E+01 0.  1.
<mgrwt>
<rscale>  2 0.47539181E+01</rscale>
<asrwt>0</asrwt>
<pdfrwt beam="1">  1       21 0.63120585E-03 0.47539181E+01</pdfrwt>
<pdfrwt beam="2">  1       21 0.11828438E-02 0.47539181E+01</pdfrwt>
<totfact> 0.37642724E+09</totfact>
</mgrwt>
</event>
<event>
 4    1  0.3900819E+006  0.4900856E+01  0.7546771E-02  0.2585048E+00
         21   -1    0    0  501  502  0.00000000000E+00  0.00000000000E+00  0.17885441609E+00  0.17885441609E+00  0.00000000000E+00 0. -1.
         21   -1    0    0  502  503 -0.00000000000E+00 -0.00000000000E+00 -0.13429469640E+03  0.13429469640E+03  0.00000000000E+00 0. -1.
          5    1    1    2  501    0 -0.10220266049E+01 -0.94013175550E+00 -0.67449196382E+02  0.67627009979E+02  0.47000000000E+01 0. -1.
         -5    1    1    2    0  503  0.10220266049E+01  0.94013175550E+00 -0.66666645605E+02  0.66846540840E+02  0.47000000000E+01 0. -1.
<mgrwt>
<rscale>  2 0.49008556E+01</rscale>
<asrwt>0</asrwt>
<pdfrwt beam="1">  1       21 0.27516205E-04 0.49008556E+01</pdfrwt>
<pdfrwt beam="2">  1       21 0.20660616E-01 0.49008556E+01</pdfrwt>
<totfact> 0.38566322E+09</totfact>
</mgrwt>
</event>
<event>
 4    1  0.3900819E+006  0.1423239E+02  0.7546771E-02  0.1892438E+00
         21   -1    0    0  501  502  0.00000000000E+00  0.00000000000E+00  0.12829664884E+02  0.12829664884E+02  0.00000000000E+00 0. -1.
         21   -1    0    0  502  503 -0.00000000000E+00 -0.00000000000E+00 -0.26614549250E+02  0.26614549250E+02  0.00000000000E+00 0. -1.
          5    1    1    2  501    0  0.55268337020E+01 -0.12244383175E+02  0.56860709358E+01  0.15326193683E+02  0.47000000000E+01 0. -1.
         -5    1    1    2    0  503 -0.55268337020E+01  0.12244383175E+02 -0.19470955302E+02  0.24118020451E+02  0.47000000000E+01 0. -1.
<mgrwt>
<rscale>  2 0.14232386E+02</rscale>
<asrwt>0</asrwt>
<pdfrwt beam="1">  1       21 0.19737946E-02 0.14232386E+02</pdfrwt>
<pdfrwt beam="2">  1       21 0.40945460E-02 0.14232386E+02</pdfrwt>
<totfact> 0.25163288E+08</totfact>
</mgrwt>
</event>
<event>
 4    1  0.3900819E+006  0.6082513E+01  0.7546771E-02  0.2404807E+00
         21   -1    0    0  503  502  0.00000000000E+00  0.00000000000E+00  0.29834629406E+02  0.29834629406E+02  0.00000000000E+00 0.  1.
         21   -1    0    0  501  503 -0.00000000000E+00 -0.00000000000E+00 -0.16096348641E+01  0.16096348641E+01  0.00000000000E+00 0. -1.
          5    1    1    2  501    0 -0.19566606480E+01 -0.33284286782E+01  0.65790373313E+01  0.89599492501E+01  0.47000000000E+01 0. -1.
         -5    1    1    2    0  502  0.19566606480E+01  0.33284286782E+01  0.21645957211E+02  0.22484315020E+02  0.47000000000E+01 0.  1.
<mgrwt>
<rscale>  2 0.60825125E+01</rscale>
<asrwt>0</asrwt>
<pdfrwt beam="1">  1       21 0.45899426E-02 0.60825125E+01</pdfrwt>
<pdfrwt beam="2">  1       21 0.24763615E-03 0.60825125E+01</pdfrwt>
<totfact> 0.24708905E+09</totfact>
</mgrwt>
</event>
<event>
 4    1  0.3900819E+006  0.9581793E+01  0.7546771E-02  0.2099600E+00
         21   -1    0    0  503  502  0.00000000000E+00  0.00000000000E+00  0.31331947023E+03  0.31331947023E+03  0.00000000000E+00 0. -1.
         21   -1    0    0  501  503 -0.00000000000E+00 -0.00000000000E+00 -0.53334121573E+00  0.53334121573E+00  0.00000000000E+00 0.  1.
          5    1    1    2  501    0 -0.82971948362E+01 -0.93665008835E+00  0.51055305147E+02  0.51946654745E+02  0.47000000000E+01 0.  1.
         -5    1    1    2    0  502  0.82971948362E+01  0.93665008835E+00  0.26173082387E+03  0.26190615670E+03  0.47000000000E+01 0. -1.
<mgrwt>
<rscale>  2 0.95817929E+01</rscale>
<asrwt>0</asrwt>
<pdfrwt beam="1">  1       21 0.48202848E-01 0.95817929E+01</pdfrwt>
<pdfrwt beam="2">  1       21 0.82052745E-04 0.95817929E+01</pdfrwt>
<totfact> 0.33407154E+08</totfact>
</mgrwt>
</event>
<event>
 4    1  0.3900819E+006  0.6956433E+01  0.7546771E-02  0.2305408E+00
         21   -1    0    0  503  502  0.00000000000E+00  0.00000000000E+00  0.14491204308E+01  0.14491204308E+01  0.00000000000E+00 0. -1.
         21   -1    0    0  501  503 -0.00000000000E+00 -0.00000000000E+00 -0.40971756523E+02  0.40971756523E+02  0.00000000000E+00 0.  1.
          5    1    1    2  501    0  0.33309034542E+01 -0.38996206101E+01 -0.28883044922E+02  0.29708958963E+02  0.47000000000E+01 0.  1.
         -5    1    1    2    0  502 -0.33309034542E+01  0.38996206101E+01 -0.10639591170E+02  0.12711917990E+02  0.47000000000E+01 0. -1.
<mgrwt>
<rscale>  2 0.69564329E+01</rscale>
<asrwt>0</asrwt>
<pdfrwt beam="1">  1       21 0.22294158E-03 0.69564329E+01</pdfrwt>
<pdfrwt beam="2">  1       21 0.63033478E-02 0.69564329E+01</pdfrwt>
<totfact> 0.19793524E+09</totfact>
</mgrwt>
</event>
<event>
 4    1  0.3900819E+006  0.3095169E+02  0.7546771E-02  0.1587801E+00
         21   -1    0    0  503  502  0.00000000000E+00  0.00000000000E+00  0.30306380940E+01  0.30306380940E+01  0.00000000000E+00 0. -1.
         21   -1    0    0  501  503 -0.00000000000E+00 -0.00000000000E+00 -0.92739432037E+03  0.92739432037E+03  0.00000000000E+00 0.  1.
          5    1    1    2  501    0 -0.83266734179E+01  0.29437793292E+02 -0.83987723427E+03  0.84044736647E+03  0.47000000000E+01 0.  1.
         -5    1    1    2    0  502  0.83266734179E+01 -0.29437793292E+02 -0.84486448007E+02  0.89977591993E+02  0.47000000000E+01 0. -1.
<mgrwt>
<rscale>  2 0.30951691E+02</rscale>
<asrwt>0</asrwt>
<pdfrwt beam="1">  1       21 0.46625232E-03 0.30951691E+02</pdfrwt>
<pdfrwt beam="2">  1       21 0.14267595E+00 0.30951691E+02</pdfrwt>
<totfact> 0.39515598E+06</totfact>
</mgrwt>
</event>
<event>
 4    1  0.3900819E+006  0.6730906E+01  0.7546771E-02  0.2329009E+00
         21   -1    0    0  503  502  0.00000000000E+00  0.00000000000E+00  0.28415766099E+01  0.28415766099E+01  0.00000000000E+00 0. -1.
         21   -1    0    0  501  503 -0.00000000000E+00 -0.00000000000E+00 -0.16102847299E+02  0.16102847299E+02  0.00000000000E+00 0.  1.
          5    1    1    2  501    0 -0.31918104289E+01  0.36093541879E+01 -0.75724672829E+01  0.10131502959E+02  0.47000000000E+01 0. -1.
         -5    1    1    2    0  502  0.31918104289E+01 -0.36093541879E+01 -0.56888034064E+01  0.88129209496E+01  0.47000000000E+01 0.  1.
<mgrwt>
<rscale>  2 0.67309057E+01</rscale>
<asrwt>0</asrwt>
<pdfrwt beam="1">  1       21 0.43716563E-03 0.67309057E+01</pdfrwt>
<pdfrwt beam="2">  1       21 0.24773611E-02 0.67309057E+01</pdfrwt>
<totfact> 0.30310934E+09</totfact>
</mgrwt>
</event>
<event>
 4    1  0.3900819E+006  0.5356427E+01  0.7546771E-02  0.2507559E+00
         21   -1    0    0  503  502  0.00000000000E+00  0.00000000000E+00  0.11750068226E+01  0.11750068226E+01  0.00000000000E+00 0.  1.
         21   -1    0    0  501  503 -0.00000000000E+00 -0.00000000000E+00 -0.62907468562E+02  0.62907468562E+02  0.00000000000E+00 0.  1.
          5    1    1    2  501    0 -0.23012819755E+01 -0.11425441165E+01 -0.55929007777E+02  0.56184919834E+02  0.47000000000E+01 0.  1.
         -5    1    1    2    0  502  0.23012819755E+01  0.11425441165E+01 -0.58034539626E+01  0.78975555512E+01  0.47000000000E+01 0.  1.
<mgrwt>
<rscale>  2 0.53564266E+01</rscale>
<asrwt>0</asrwt>
<pdfrwt beam="1">  1       21 0.18077022E-03 0.53564266E+01</pdfrwt>
<pdfrwt beam="2">  1       21 0.96780753E-02 0.53564266E+01</pdfrwt>
<totfact> 0.11119910E+09</totfact>
</mgrwt>
</event>
<event>
 4    1  0.3900819E+006  0.1460581E+02  0.7546771E-02  0.1880341E+00
         21   -1    0    0  501  502  0.00000000000E+00  0.00000000000E+00  0.33250545261E+02  0.33250545261E+02  0.00000000000E+00 0.  1.
         21   -1    0    0  502  503 -0.00000000000E+00 -0.00000000000E+00 -0.64772119155E+01  0.64772119155E+01  0.00000000000E+00 0. -1.
          5    1    1    2  501    0 -0.13015913199E+02 -0.46718052289E+01  0.15320412064E+02  0.21167068440E+02  0.47000000000E+01 0. -1.
         -5    1    1    2    0  503  0.13015913199E+02  0.46718052289E+01  0.11452921281E+02  0.18560688737E+02  0.47000000000E+01 0.  1.
<mgrwt>
<rscale>  2 0.14605813E+02</rscale>
<asrwt>0</asrwt>
<pdfrwt beam="1">  1       21 0.51154684E-02 0.14605813E+02</pdfrwt>
<pdfrwt beam="2">  1       21 0.99649416E-03 0.14605813E+02</pdfrwt>
<totfact> 0.49817508E+08</totfact>
</mgrwt>
</event>
<event>
 4    1  0.3900819E+006  0.4910526E+01  0.7546771E-02  0.2583275E+00
         21   -1    0    0  503  502  0.00000000000E+00  0.00000000000E+00  0.97847448207E+01  0.97847448207E+01  0.00000000000E+00 0.  1.
         21   -1    0    0  501  503 -0.00000000000E+00 -0.00000000000E+00 -0.30559699622E+01  0.30559699622E+01  0.00000000000E+00 0.  1.
          5    1    1    2  501    0  0.37005685322E+00 -0.13734334068E+01  0.53952297354E+00  0.49400755497E+01  0.47000000000E+01 0.  1.
         -5    1    1    2    0  502 -0.37005685322E+00  0.13734334068E+01  0.61892518850E+01  0.79006392332E+01  0.47000000000E+01 0.  1.
<mgrwt>
<rscale>  2 0.49105256E+01</rscale>
<asrwt>0</asrwt>
<pdfrwt beam="1">  1       21 0.15053453E-02 0.49105256E+01</pdfrwt>
<pdfrwt beam="2">  1       21 0.47014923E-03 0.49105256E+01</pdfrwt>
<totfact> 0.41663137E+09</totfact>
</mgrwt>
</event>
<event>
 4    1  0.3900819E+006  0.4829910E+01  0.7546771E-02  0.2598242E+00
         21   -1    0    0  503  502  0.00000000000E+00  0.00000000000E+00  0.76627181428E+00  0.76627181428E+00  0.00000000000E+00 0. -1.
         21   -1    0    0  501  503 -0.00000000000E+00 -0.00000000000E+00 -0.43729337221E+02  0.43729337221E+02  0.00000000000E+00 0. -1.
          5    1    1    2  501    0  0.96445413558E+00 -0.55485387046E+00 -0.33744465612E+02  0.34088370363E+02  0.47000000000E+01 0. -1.
         -5    1    1    2    0  502 -0.96445413558E+00  0.55485387046E+00 -0.92185997949E+01  0.10407238672E+02  0.47000000000E+01 0. -1.
<mgrwt>
<rscale>  2 0.48299104E+01</rscale>
<asrwt>0</asrwt>
<pdfrwt beam="1">  1       21 0.11788797E-03 0.48299104E+01</pdfrwt>
<pdfrwt beam="2">  1       21 0.67275904E-02 0.48299104E+01</pdfrwt>
<totfact> 0.30752938E+09</totfact>
</mgrwt>
</event>
<event>
 4    1  0.3900819E+006  0.7155948E+01  0.7546771E-02  0.2285553E+00
         21   -1    0    0  503  502  0.00000000000E+00  0.00000000000E+00  0.10362964222E+03  0.10362964222E+03  0.00000000000E+00 0. -1.
         21   -1    0    0  501  503 -0.00000000000E+00 -0.00000000000E+00 -0.19396349538E+01  0.19396349538E+01  0.00000000000E+00 0.  1.
          5    1    1    2  501    0 -0.53928165997E+01 -0.18739280476E+00  0.52774419833E+01  0.88915117291E+01  0.47000000000E+01 0.  1.
         -5    1    1    2    0  502  0.53928165997E+01  0.18739280476E+00  0.96412565278E+02  0.96677765440E+02  0.47000000000E+01 0. -1.
<mgrwt>
<rscale>  2 0.71559477E+01</rscale>
<asrwt>0</asrwt>
<pdfrwt beam="1">  1       21 0.15943018E-01 0.71559477E+01</pdfrwt>
<pdfrwt beam="2">  1       21 0.29840546E-03 0.71559477E+01</pdfrwt>
<totfact> 0.31864281E+08</totfact>
</mgrwt>
</event>
<event>
 4    1  0.3900819E+006  0.8957587E+01  0.7546771E-02  0.2139667E+00
         21   -1    0    0  501  502  0.00000000000E+00  0.00000000000E+00  0.13930150643E+04  0.13930150643E+04  0.00000000000E+00 0.  1.
         21   -1    0    0  502  503 -0.00000000000E+00 -0.00000000000E+00 -0.10955226038E+00  0.10955226038E+00  0.00000000000E+00 0.  1.
          5    1    1    2  501    0  0.73331783299E+01  0.20911380498E+01  0.11761303554E+04  0.11761644661E+04  0.47000000000E+01 0.  1.
         -5    1    1    2    0  503 -0.73331783299E+01 -0.20911380498E+01  0.21677515663E+03  0.21696015048E+03  0.47000000000E+01 0.  1.
<mgrwt>
<rscale>  2 0.89575869E+01</rscale>
<asrwt>0</asrwt>
<pdfrwt beam="1">  1       21 0.21429582E+00 0.89575869E+01</pdfrwt>
<pdfrwt beam="2">  1       21 0.16855310E-04 0.89575869E+01</pdfrwt>
<totfact> 0.12297624E+08</totfact>
</mgrwt>
</event>
<event>
 4    1  0.3900819E+006  0.5127503E+01  0.7546771E-02  0.2545020E+00
         21   -1    0    0  503  502  0.00000000000E+00  0.00000000000E+00  0.87822255437E+02  0.87822255437E+02  0.00000000000E+00 0.  1.
         21   -1    0    0  501  503 -0.00000000000E+00 -0.00000000000E+00 -0.10084018455E+01  0.10084018455E+01  0.00000000000E+00 0.  1.
          5    1    1    2  501    0  0.13086595313E+01  0.15775602039E+01  0.61635412199E+01  0.80175137252E+01  0.47000000000E+01 0.  1.
         -5    1    1    2    0  502 -0.13086595313E+01 -0.15775602039E+01  0.80650312372E+02  0.80813143558E+02  0.47000000000E+01 0.  1.
<mgrwt>
<rscale>  2 0.51275029E+01</rscale>
<asrwt>0</asrwt>
<pdfrwt beam="1">  1       21 0.13511110E-01 0.51275029E+01</pdfrwt>
<pdfrwt beam="2">  1       21 0.15513881E-03 0.51275029E+01</pdfrwt>
<totfact> 0.78811865E+08</totfact>
</mgrwt>
</event>
<event>
 4    1  0.3900819E+006  0.5317850E+01  0.7546771E-02  0.2513679E+00
         21   -1    0    0  501  502  0.00000000000E+00  0.00000000000E+00  0.59185391511E+02  0.59185391511E+02  0.00000000000E+00 0. -1.
         21   -1    0    0  502  503 -0.00000000000E+00 -0.00000000000E+00 -0.63387558551E+00  0.63387558551E+00  0.00000000000E+00 0. -1.
          5    1    1    2  501    0 -0.14050315442E+01 -0.20531479496E+01  0.44116613343E+02  0.44435966323E+02  0.47000000000E+01 0. -1.
         -5    1    1    2    0  503  0.14050315442E+01  0.20531479496E+01  0.14434902583E+02  0.15383300774E+02  0.47000000000E+01 0. -1.
<mgrwt>
<rscale>  2 0.53178501E+01</rscale>
<asrwt>0</asrwt>
<pdfrwt beam="1">  1       21 0.91054405E-02 0.53178501E+01</pdfrwt>
<pdfrwt beam="2">  1       21 0.97519367E-04 0.53178501E+01</pdfrwt>
<totfact> 0.27709081E+09</totfact>
</mgrwt>
</event>
<event>
 4    1  0.3900819E+006  0.9335303E+01  0.7546771E-02  0.2114915E+00
         21   -1    0    0  503  502  0.00000000000E+00  0.00000000000E+00  0.60702727802E+01  0.60702727802E+01  0.00000000000E+00 0.  1.
         21   -1    0    0  501  503 -0.00000000000E+00 -0.00000000000E+00 -0.72787939791E+02  0.72787939791E+02  0.00000000000E+00 0. -1.
          5    1    1    2  501    0  0.18205824613E+01  0.78576939270E+01 -0.68686138815E+02  0.69317627915E+02  0.47000000000E+01 0. -1.
         -5    1    1    2    0  502 -0.18205824613E+01 -0.78576939270E+01  0.19684718044E+01  0.95405846568E+01  0.47000000000E+01 0.  1.
<mgrwt>
<rscale>  2 0.93353026E+01</rscale>
<asrwt>0</asrwt>
<pdfrwt beam="1">  1       21 0.93388815E-03 0.93353026E+01</pdfrwt>
<pdfrwt beam="2">  1       21 0.11198144E-01 0.93353026E+01</pdfrwt>
<totfact> 0.12945223E+08</totfact>
</mgrwt>
</event>
<event>
 4    1  0.3900819E+006  0.8051723E+01  0.7546771E-02  0.2206439E+00
         21   -1    0    0  503  502  0.00000000000E+00  0.00000000000E+00  0.21425634087E+01  0.21425634087E+01  0.00000000000E+00 0. -1.
         21   -1    0    0  501  503 -0.00000000000E+00 -0.00000000000E+00 -0.70105393602E+03  0.70105393602E+03  0.00000000000E+00 0.  1.
          5    1    1    2  501    0  0.50844223333E+01  0.41096102476E+01 -0.69338256222E+03  0.69342930990E+03  0.47000000000E+01 0.  1.
         -5    1    1    2    0  502 -0.50844223333E+01 -0.41096102476E+01 -0.55288103953E+01  0.97671895261E+01  0.47000000000E+01 0. -1.
<mgrwt>
<rscale>  2 0.80517232E+01</rscale>
<asrwt>0</asrwt>
<pdfrwt beam="1">  1       21 0.32962509E-03 0.80517232E+01</pdfrwt>
<pdfrwt beam="2">  1       21 0.10785447E+00 0.80517232E+01</pdfrwt>
<totfact> 0.93123446E+06</totfact>
</mgrwt>
</event>
<event>
 4    1  0.3900819E+006  0.6321400E+01  0.7546771E-02  0.2375380E+00
         21   -1    0    0  501  502  0.00000000000E+00  0.00000000000E+00  0.52755323719E+00  0.52755323719E+00  0.00000000000E+00 0.  1.
         21   -1    0    0  502  503 -0.00000000000E+00 -0.00000000000E+00 -0.78888862172E+02  0.78888862172E+02  0.00000000000E+00 0.  1.
          5    1    1    2  501    0 -0.65124368432E+00  0.41768389295E+01 -0.31255130233E+02  0.31887979987E+02  0.47000000000E+01 0. -1.
         -5    1    1    2    0  503  0.65124368432E+00 -0.41768389295E+01 -0.47106178702E+02  0.47528435422E+02  0.47000000000E+01 0. -1.
<mgrwt>
<rscale>  2 0.63214003E+01</rscale>
<asrwt>0</asrwt>
<pdfrwt beam="1">  1       21 0.81162050E-04 0.63214003E+01</pdfrwt>
<pdfrwt beam="2">  1       21 0.12136746E-01 0.63214003E+01</pdfrwt>
<totfact> 0.26501314E+09</totfact>
</mgrwt>
</event>
<event>
 4    1  0.3900819E+006  0.1085712E+02  0.7546771E-02  0.2029256E+00
         21   -1    0    0  501  502  0.00000000000E+00  0.00000000000E+00  0.73006754680E+02  0.73006754680E+02  0.00000000000E+00 0. -1.
         21   -1    0    0  502  503 -0.00000000000E+00 -0.00000000000E+00 -0.98650934727E+01  0.98650934727E+01  0.00000000000E+00 0.  1.
          5    1    1    2  501    0 -0.79275768719E+01 -0.57393857322E+01  0.69464466198E+02  0.70307816691E+02  0.47000000000E+01 0. -1.
         -5    1    1    2    0  503  0.79275768719E+01  0.57393857322E+01 -0.63228049903E+01  0.12564031462E+02  0.47000000000E+01 0.  1.
<mgrwt>
<rscale>  2 0.10857119E+02</rscale>
<asrwt>0</asrwt>
<pdfrwt beam="1">  1       21 0.11231808E-01 0.10857119E+02</pdfrwt>
<pdfrwt beam="2">  1       21 0.15177067E-02 0.10857119E+02</pdfrwt>
<totfact> 0.67927254E+07</totfact>
</mgrwt>
</event>
<event>
 4    1  0.3900819E+006  0.8377336E+01  0.7546771E-02  0.2181110E+00
         21   -1    0    0  501  502  0.00000000000E+00  0.00000000000E+00  0.33428020820E+02  0.33428020820E+02  0.00000000000E+00 0.  1.
         21   -1    0    0  502  503 -0.00000000000E+00 -0.00000000000E+00 -0.22933913847E+01  0.22933913847E+01  0.00000000000E+00 0.  1.
          5    1    1    2  501    0  0.61927106398E+01  0.31209112920E+01  0.10373117611E+02  0.13333466216E+02  0.47000000000E+01 0.  1.
         -5    1    1    2    0  503 -0.61927106398E+01 -0.31209112920E+01  0.20761511825E+02  0.22387945989E+02  0.47000000000E+01 0.  1.
<mgrwt>
<rscale>  2 0.83773356E+01</rscale>
<asrwt>0</asrwt>
<pdfrwt beam="1">  1       21 0.51427721E-02 0.83773356E+01</pdfrwt>
<pdfrwt beam="2">  1       21 0.35282947E-03 0.83773356E+01</pdfrwt>
<totfact> 0.16257375E+09</totfact>
</mgrwt>
</event>
<event>
 4    1  0.3900819E+006  0.9300948E+01  0.7546771E-02  0.2117100E+00
         21   -1    0    0  501  502  0.00000000000E+00  0.00000000000E+00  0.10015203082E+02  0.10015203082E+02  0.00000000000E+00 0.  1.
         21   -1    0    0  502  503 -0.00000000000E+00 -0.00000000000E+00 -0.31226784861E+02  0.31226784861E+02  0.00000000000E+00 0. -1.
          5    1    1    2  501    0 -0.50687172433E+01  0.62230002150E+01  0.69328503218E+01  0.11600518943E+02  0.47000000000E+01 0.  1.
         -5    1    1    2    0  503  0.50687172433E+01 -0.62230002150E+01 -0.28144432101E+02  0.29641469000E+02  0.47000000000E+01 0. -1.
<mgrwt>
<rscale>  2 0.93009476E+01</rscale>
<asrwt>0</asrwt>
<pdfrwt beam="1">  1       21 0.15408005E-02 0.93009476E+01</pdfrwt>
<pdfrwt beam="2">  1       21 0.48041206E-02 0.93009476E+01</pdfrwt>
<totfact> 0.23267060E+08</totfact>
</mgrwt>
</event>
<event>
 4    1  0.3900819E+006  0.4917400E+01  0.7546771E-02  0.2582019E+00
         21   -1    0    0  501  502  0.00000000000E+00  0.00000000000E+00  0.35505293249E+02  0.35505293249E+02  0.00000000000E+00 0. -1.
         21   -1    0    0  502  503 -0.00000000000E+00 -0.00000000000E+00 -0.14616292084E+01  0.14616292084E+01  0.00000000000E+00 0. -1.
          5    1    1    2  501    0  0.12752668621E+01 -0.68155176962E+00  0.30529291282E+02  0.30922781967E+02  0.47000000000E+01 0. -1.
         -5    1    1    2    0  503 -0.12752668621E+01  0.68155176962E+00  0.35143727588E+01  0.60441404908E+01  0.47000000000E+01 0. -1.
<mgrwt>
<rscale>  2 0.49173996E+01</rscale>
<asrwt>0</asrwt>
<pdfrwt beam="1">  1       21 0.54623522E-02 0.49173996E+01</pdfrwt>
<pdfrwt beam="2">  1       21 0.22486606E-03 0.49173996E+01</pdfrwt>
<totfact> 0.17936330E+09</totfact>
</mgrwt>
</event>
<event>
 4    1  0.3900819E+006  0.5302428E+01  0.7546771E-02  0.2516146E+00
         21   -1    0    0  503  502  0.00000000000E+00  0.00000000000E+00  0.85944606610E+01  0.85944606610E+01  0.00000000000E+00 0.  1.
         21   -1    0    0  501  503 -0.00000000000E+00 -0.00000000000E+00 -0.21407833759E+02  0.21407833759E+02  0.00000000000E+00 0. -1.
          5    1    1    2  501    0 -0.23462561061E+01 -0.72167940989E+00 -0.20214162914E+02  0.20898041085E+02  0.47000000000E+01 0. -1.
         -5    1    1    2    0  502  0.23462561061E+01  0.72167940989E+00  0.74007898159E+01  0.91042533348E+01  0.47000000000E+01 0.  1.
<mgrwt>
<rscale>  2 0.53024276E+01</rscale>
<asrwt>0</asrwt>
<pdfrwt beam="1">  1       21 0.13222247E-02 0.53024276E+01</pdfrwt>
<pdfrwt beam="2">  1       21 0.32935129E-02 0.53024276E+01</pdfrwt>
<totfact> 0.34937409E+08</totfact>
</mgrwt>
</event>
<event>
 4    1  0.3900819E+006  0.6722301E+01  0.7546771E-02  0.2329935E+00
         21   -1    0    0  503  502  0.00000000000E+00  0.00000000000E+00  0.13094441741E+03  0.13094441741E+03  0.00000000000E+00 0. -1.
         21   -1    0    0  501  503 -0.00000000000E+00 -0.00000000000E+00 -0.59657797466E+00  0.59657797466E+00  0.00000000000E+00 0. -1.
          5    1    1    2  501    0 -0.16962650701E+01 -0.44968901396E+01  0.22472261192E+02  0.23456168894E+02  0.47000000000E+01 0. -1.
         -5    1    1    2    0  502  0.16962650701E+01  0.44968901396E+01  0.10787557824E+03  0.10808482649E+03  0.47000000000E+01 0. -1.
<mgrwt>
<rscale>  2 0.67223014E+01</rscale>
<asrwt>0</asrwt>
<pdfrwt beam="1">  1       21 0.20145272E-01 0.67223014E+01</pdfrwt>
<pdfrwt beam="2">  1       21 0.91781331E-04 0.67223014E+01</pdfrwt>
<totfact> 0.10497803E+09</totfact>
</mgrwt>
</event>
<event>
 4    1  0.3900819E+006  0.5329362E+01  0.7546771E-02  0.2511845E+00
         21   -1    0    0  503  502  0.00000000000E+00  0.00000000000E+00  0.54620041918E+02  0.54620041918E+02  0.00000000000E+00 0. -1.
         21   -1    0    0  501  503 -0.00000000000E+00 -0.00000000000E+00 -0.91052815787E+00  0.91052815787E+00  0.00000000000E+00 0.  1.
          5    1    1    2  501    0 -0.21139802647E+01 -0.13576411831E+01  0.86709472339E+01  0.10177790923E+02  0.47000000000E+01 0. -1.
         -5    1    1    2    0  502  0.21139802647E+01  0.13576411831E+01  0.45038566527E+02  0.45352779153E+02  0.47000000000E+01 0. -1.
<mgrwt>
<rscale>  2 0.53293623E+01</rscale>
<asrwt>0</asrwt>
<pdfrwt beam="1">  1       21 0.84030808E-02 0.53293623E+01</pdfrwt>
<pdfrwt beam="2">  1       21 0.14008130E-03 0.53293623E+01</pdfrwt>
<totfact> 0.19309809E+09</totfact>
</mgrwt>
</event>
<event>
 4    1  0.3900819E+006  0.7025837E+01  0.7546771E-02  0.2298397E+00
         21   -1    0    0  503  502  0.00000000000E+00  0.00000000000E+00  0.78928115849E+01  0.78928115849E+01  0.00000000000E+00 0. -1.
         21   -1    0    0  501  503 -0.00000000000E+00 -0.00000000000E+00 -0.72888660919E+01  0.72888660919E+01  0.00000000000E+00 0. -1.
          5    1    1    2  501    0  0.30675740159E+01 -0.42263901116E+01 -0.25581336428E+01  0.74770603483E+01  0.47000000000E+01 0. -1.
         -5    1    1    2    0  502 -0.30675740159E+01  0.42263901116E+01  0.31620791357E+01  0.77046173285E+01  0.47000000000E+01 0. -1.
<mgrwt>
<rscale>  2 0.70258369E+01</rscale>
<asrwt>0</asrwt>
<pdfrwt beam="1">  1       21 0.12142787E-02 0.70258369E+01</pdfrwt>
<pdfrwt beam="2">  1       21 0.11213640E-02 0.70258369E+01</pdfrwt>
<totfact> 0.23231983E+09</totfact>
</mgrwt>
</event>
<event>
 4    1  0.3900819E+006  0.5406676E+01  0.7546771E-02  0.2499700E+00
         21   -1    0    0  501  502  0.00000000000E+00  0.00000000000E+00  0.20672000337E+01  0.20672000337E+01  0.00000000000E+00 0. -1.
         21   -1    0    0  502  503 -0.00000000000E+00 -0.00000000000E+00 -0.17165589643E+02  0.17165589643E+02  0.00000000000E+00 0. -1.
          5    1    1    2  501    0 -0.82465248635E+00 -0.25420655044E+01 -0.35125497618E+01  0.64474921156E+01  0.47000000000E+01 0. -1.
         -5    1    1    2    0  503  0.82465248635E+00  0.25420655044E+01 -0.11585839847E+02  0.12785297561E+02  0.47000000000E+01 0. -1.
<mgrwt>
<rscale>  2 0.54066763E+01</rscale>
<asrwt>0</asrwt>
<pdfrwt beam="1">  1       21 0.31803078E-03 0.54066763E+01</pdfrwt>
<pdfrwt beam="2">  1       21 0.26408599E-02 0.54066763E+01</pdfrwt>
<totfact> 0.35313433E+09</totfact>
</mgrwt>
</event>
<event>
 4    1  0.3900819E+006  0.8603340E+01  0.7546771E-02  0.2164438E+00
         21   -1    0    0  503  502  0.00000000000E+00  0.00000000000E+00  0.28677612182E+01  0.28677612182E+01  0.00000000000E+00 0. -1.
         21   -1    0    0  501  503 -0.00000000000E+00 -0.00000000000E+00 -0.19976761214E+03  0.19976761214E+03  0.00000000000E+00 0.  1.
          5    1    1    2  501    0 -0.43323923554E+01 -0.57582842600E+01 -0.19299615369E+03  0.19318781742E+03  0.47000000000E+01 0.  1.
         -5    1    1    2    0  502  0.43323923554E+01  0.57582842600E+01 -0.39036972363E+01  0.94475559407E+01  0.47000000000E+01 0. -1.
<mgrwt>
<rscale>  2 0.86033401E+01</rscale>
<asrwt>0</asrwt>
<pdfrwt beam="1">  1       21 0.44119403E-03 0.86033401E+01</pdfrwt>
<pdfrwt beam="2">  1       21 0.30733479E-01 0.86033401E+01</pdfrwt>
<totfact> 0.68334532E+07</totfact>
</mgrwt>
</event>
<event>
 4    1  0.3900819E+006  0.5380685E+01  0.7546771E-02  0.2503750E+00
         21   -1    0    0  503  502  0.00000000000E+00  0.00000000000E+00  0.50236487276E+02  0.50236487276E+02  0.00000000000E+00 0. -1.
         21   -1    0    0  501  503 -0.00000000000E+00 -0.00000000000E+00 -0.91758388697E+00  0.91758388697E+00  0.00000000000E+00 0. -1.
          5    1    1    2  501    0  0.25753347776E+01  0.47898088903E+00  0.90610867612E+01  0.10538266708E+02  0.47000000000E+01 0. -1.
         -5    1    1    2    0  502 -0.25753347776E+01 -0.47898088903E+00  0.40257816628E+02  0.40615804455E+02  0.47000000000E+01 0. -1.
<mgrwt>
<rscale>  2 0.53806851E+01</rscale>
<asrwt>0</asrwt>
<pdfrwt beam="1">  1       21 0.77286882E-02 0.53806851E+01</pdfrwt>
<pdfrwt beam="2">  1       21 0.14116679E-03 0.53806851E+01</pdfrwt>
<totfact> 0.21866837E+09</totfact>
</mgrwt>
</event>
<event>
 4    1  0.3900819E+006  0.4825630E+01  0.7546771E-02  0.2599049E+00
         21   -1    0    0  501  502  0.00000000000E+00  0.00000000000E+00  0.13281596260E+00  0.13281596260E+00  0.00000000000E+00 0.  1.
         21   -1    0    0  502  503 -0.00000000000E+00 -0.00000000000E+00 -0.21101382514E+03  0.21101382514E+03  0.00000000000E+00 0.  1.
          5    1    1    2  501    0 -0.69210123872E+00 -0.84717215126E+00 -0.62026418010E+02  0.62213850837E+02  0.47000000000E+01 0.  1.
         -5    1    1    2    0  503  0.69210123872E+00  0.84717215126E+00 -0.14885459116E+03  0.14893279026E+03  0.47000000000E+01 0.  1.
<mgrwt>
<rscale>  2 0.48256300E+01</rscale>
<asrwt>0</asrwt>
<pdfrwt beam="1">  1       21 0.20433193E-04 0.48256300E+01</pdfrwt>
<pdfrwt beam="2">  1       21 0.32463716E-01 0.48256300E+01</pdfrwt>
<totfact> 0.26976638E+09</totfact>
</mgrwt>
</event>
<event>
 4    1  0.3900819E+006  0.6116953E+01  0.7546771E-02  0.2400446E+00
         21   -1    0    0  503  502  0.00000000000E+00  0.00000000000E+00  0.47765751239E+01  0.47765751239E+01  0.00000000000E+00 0.  1.
         21   -1    0    0  501  503 -0.00000000000E+00 -0.00000000000E+00 -0.10791509412E+02  0.10791509412E+02  0.00000000000E+00 0. -1.
          5    1    1    2  501    0 -0.38302217902E+01  0.81025940920E+00 -0.70828335475E+01  0.93586136972E+01  0.47000000000E+01 0. -1.
         -5    1    1    2    0  502  0.38302217902E+01 -0.81025940920E+00  0.10678992591E+01  0.62094708390E+01  0.47000000000E+01 0.  1.
<mgrwt>
<rscale>  2 0.61169534E+01</rscale>
<asrwt>0</asrwt>
<pdfrwt beam="1">  1       21 0.73485772E-03 0.61169534E+01</pdfrwt>
<pdfrwt beam="2">  1       21 0.16602322E-02 0.61169534E+01</pdfrwt>
<totfact> 0.24098556E+09</totfact>
</mgrwt>
</event>
<event>
 4    1  0.3900819E+006  0.1182474E+02  0.7546771E-02  0.1983941E+00
         21   -1    0    0  503  502  0.00000000000E+00  0.00000000000E+00  0.28768453365E+01  0.28768453365E+01  0.00000000000E+00 0.  1.
         21   -1    0    0  501  503 -0.00000000000E+00 -0.00000000000E+00 -0.95597817137E+02  0.95597817137E+02  0.00000000000E+00 0. -1.
          5    1    1    2  501    0  0.10471504921E+02 -0.28428863625E+01 -0.80882309233E+02  0.81742108886E+02  0.47000000000E+01 0. -1.
         -5    1    1    2    0  502 -0.10471504921E+02  0.28428863625E+01 -0.11838662567E+02  0.16732553588E+02  0.47000000000E+01 0.  1.
<mgrwt>
<rscale>  2 0.11824738E+02</rscale>
<asrwt>0</asrwt>
<pdfrwt beam="1">  1       21 0.44259163E-03 0.11824738E+02</pdfrwt>
<pdfrwt beam="2">  1       21 0.14707355E-01 0.11824738E+02</pdfrwt>
<totfact> 0.27245663E+08</totfact>
</mgrwt>
</event>
<event>
 4    1  0.3900819E+006  0.8876848E+01  0.7546771E-02  0.2145174E+00
         21   -1    0    0  503  502  0.00000000000E+00  0.00000000000E+00  0.23311644897E+02  0.23311644897E+02  0.00000000000E+00 0. -1.
         21   -1    0    0  501  503 -0.00000000000E+00 -0.00000000000E+00 -0.35061216285E+01  0.35061216285E+01  0.00000000000E+00 0.  1.
          5    1    1    2  501    0  0.74554866621E+01  0.10602601060E+01  0.73617953806E+01  0.11532322580E+02  0.47000000000E+01 0.  1.
         -5    1    1    2    0  502 -0.74554866621E+01 -0.10602601060E+01  0.12443727888E+02  0.15285443945E+02  0.47000000000E+01 0. -1.
<mgrwt>
<rscale>  2 0.88768481E+01</rscale>
<asrwt>0</asrwt>
<pdfrwt beam="1">  1       21 0.35864068E-02 0.88768481E+01</pdfrwt>
<pdfrwt beam="2">  1       21 0.53940334E-03 0.88768481E+01</pdfrwt>
<totfact> 0.15971787E+09</totfact>
</mgrwt>
</event>
<event>
 4    1  0.3900819E+006  0.5042804E+01  0.7546771E-02  0.2559616E+00
         21   -1    0    0  501  502  0.00000000000E+00  0.00000000000E+00  0.19484344762E+02  0.19484344762E+02  0.00000000000E+00 0. -1.
         21   -1    0    0  502  503 -0.00000000000E+00 -0.00000000000E+00 -0.13302615663E+01  0.13302615663E+01  0.00000000000E+00 0.  1.
          5    1    1    2  501    0 -0.15622115040E+01  0.94834802871E+00  0.10507125511E+02  0.11654593741E+02  0.47000000000E+01 0. -1.
         -5    1    1    2    0  503  0.15622115040E+01 -0.94834802871E+00  0.76469576850E+01  0.91600125875E+01  0.47000000000E+01 0.  1.
<mgrwt>
<rscale>  2 0.50428037E+01</rscale>
<asrwt>0</asrwt>
<pdfrwt beam="1">  1       21 0.29975913E-02 0.50428037E+01</pdfrwt>
<pdfrwt beam="2">  1       21 0.20465564E-03 0.50428037E+01</pdfrwt>
<totfact> 0.49865574E+09</totfact>
</mgrwt>
</event>
<event>
 4    1  0.3900819E+006  0.9608208E+01  0.7546771E-02  0.2097996E+00
         21   -1    0    0  503  502  0.00000000000E+00  0.00000000000E+00  0.73184597647E+00  0.73184597647E+00  0.00000000000E+00 0.  1.
         21   -1    0    0  501  503 -0.00000000000E+00 -0.00000000000E+00 -0.16347067753E+03  0.16347067753E+03  0.00000000000E+00 0. -1.
          5    1    1    2  501    0 -0.56897438699E+01 -0.61525987731E+01 -0.42137264212E+02  0.43218823356E+02  0.47000000000E+01 0.  1.
         -5    1    1    2    0  502  0.56897438699E+01  0.61525987731E+01 -0.12060156734E+03  0.12098370015E+03  0.47000000000E+01 0.  1.
<mgrwt>
<rscale>  2 0.96082078E+01</rscale>
<asrwt>0</asrwt>
<pdfrwt beam="1">  1       21 0.11259172E-03 0.96082078E+01</pdfrwt>
<pdfrwt beam="2">  1       21 0.25149329E-01 0.96082078E+01</pdfrwt>
<totfact> 0.68577892E+08</totfact>
</mgrwt>
</event>
<event>
 4    1  0.3900819E+006  0.5465970E+01  0.7546771E-02  0.2490585E+00
         21   -1    0    0  501  502  0.00000000000E+00  0.00000000000E+00  0.14077518559E+02  0.14077518559E+02  0.00000000000E+00 0.  1.
         21   -1    0    0  502  503 -0.00000000000E+00 -0.00000000000E+00 -0.23142843655E+01  0.23142843655E+01  0.00000000000E+00 0. -1.
          5    1    1    2  501    0  0.27875896236E+01 -0.12719039388E+00  0.82421605831E+01  0.98898960754E+01  0.47000000000E+01 0.  1.
         -5    1    1    2    0  503 -0.27875896236E+01  0.12719039388E+00  0.35210736106E+01  0.65019068493E+01  0.47000000000E+01 0. -1.
<mgrwt>
<rscale>  2 0.54659705E+01</rscale>
<asrwt>0</asrwt>
<pdfrwt beam="1">  1       21 0.21657720E-02 0.54659705E+01</pdfrwt>
<pdfrwt beam="2">  1       21 0.35604376E-03 0.54659705E+01</pdfrwt>
<totfact> 0.40634943E+09</totfact>
</mgrwt>
</event>
<event>
 4    1  0.3900819E+006  0.9824731E+01  0.7546771E-02  0.2085102E+00
         21   -1    0    0  501  502  0.00000000000E+00  0.00000000000E+00  0.49055057105E+02  0.49055057105E+02  0.00000000000E+00 0.  1.
         21   -1    0    0  502  503 -0.00000000000E+00 -0.00000000000E+00 -0.20278375684E+01  0.20278375684E+01  0.00000000000E+00 0. -1.
          5    1    1    2  501    0 -0.72538776257E+01  0.46708251221E+01  0.27912296633E+02  0.29590904874E+02  0.47000000000E+01 0. -1.
         -5    1    1    2    0  503  0.72538776257E+01 -0.46708251221E+01  0.19114922904E+02  0.21491989799E+02  0.47000000000E+01 0.  1.
<mgrwt>
<rscale>  2 0.98247314E+01</rscale>
<asrwt>0</asrwt>
<pdfrwt beam="1">  1       21 0.75469310E-02 0.98247314E+01</pdfrwt>
<pdfrwt beam="2">  1       21 0.31197505E-03 0.98247314E+01</pdfrwt>
<totfact> 0.11844707E+09</totfact>
</mgrwt>
</event>
<event>
 4    1  0.3900819E+006  0.5804672E+01  0.7546771E-02  0.2441561E+00
         21   -1    0    0  503  502  0.00000000000E+00  0.00000000000E+00  0.16528712690E+03  0.16528712690E+03  0.00000000000E+00 0. -1.
         21   -1    0    0  501  503 -0.00000000000E+00 -0.00000000000E+00 -0.25456765372E+00  0.25456765372E+00  0.00000000000E+00 0. -1.
          5    1    1    2  501    0 -0.33204346540E+01 -0.76087512157E+00  0.45572267091E+02  0.45940458695E+02  0.47000000000E+01 0. -1.
         -5    1    1    2    0  502  0.33204346540E+01  0.76087512157E+00  0.11946029216E+03  0.11960123586E+03  0.47000000000E+01 0. -1.
<mgrwt>
<rscale>  2 0.58046720E+01</rscale>
<asrwt>0</asrwt>
<pdfrwt beam="1">  1       21 0.25428703E-01 0.58046720E+01</pdfrwt>
<pdfrwt beam="2">  1       21 0.39164386E-04 0.58046720E+01</pdfrwt>
<totfact> 0.20066760E+09</totfact>
</mgrwt>
</event>
<event>
 4    1  0.3900819E+006  0.8035312E+01  0.7546771E-02  0.2207759E+00
         21   -1    0    0  503  502  0.00000000000E+00  0.00000000000E+00  0.11798786560E+02  0.11798786560E+02  0.00000000000E+00 0.  1.
         21   -1    0    0  501  503 -0.00000000000E+00 -0.00000000000E+00 -0.46065064989E+02  0.46065064989E+02  0.00000000000E+00 0. -1.
          5    1    1    2  501    0 -0.62343213414E+01  0.18998620813E+01 -0.44292274209E+02  0.45015239566E+02  0.47000000000E+01 0. -1.
         -5    1    1    2    0  502  0.62343213414E+01 -0.18998620813E+01  0.10025995781E+02  0.12848611984E+02  0.47000000000E+01 0.  1.
<mgrwt>
<rscale>  2 0.80353120E+01</rscale>
<asrwt>0</asrwt>
<pdfrwt beam="1">  1       21 0.18151979E-02 0.80353120E+01</pdfrwt>
<pdfrwt beam="2">  1       21 0.70869331E-02 0.80353120E+01</pdfrwt>
<totfact> 0.93510232E+07</totfact>
</mgrwt>
</event>
<event>
 4    1  0.3900819E+006  0.7854656E+01  0.7546771E-02  0.2222585E+00
         21   -1    0    0  501  502  0.00000000000E+00  0.00000000000E+00  0.38037921842E+02  0.38037921842E+02  0.00000000000E+00 0. -1.
         21   -1    0    0  502  503 -0.00000000000E+00 -0.00000000000E+00 -0.17971780132E+01  0.17971780132E+01  0.00000000000E+00 0.  1.
          5    1    1    2  501    0  0.62286755237E+01 -0.89956807326E+00  0.11901069528E+02  0.14259420655E+02  0.47000000000E+01 0.  1.
         -5    1    1    2    0  503 -0.62286755237E+01  0.89956807326E+00  0.24339674301E+02  0.25575679200E+02  0.47000000000E+01 0. -1.
<mgrwt>
<rscale>  2 0.78546560E+01</rscale>
<asrwt>0</asrwt>
<pdfrwt beam="1">  1       21 0.58519874E-02 0.78546560E+01</pdfrwt>
<pdfrwt beam="2">  1       21 0.27648895E-03 0.78546560E+01</pdfrwt>
<totfact> 0.17982216E+09</totfact>
</mgrwt>
</event>
<event>
 4    1  0.3900819E+006  0.6114813E+01  0.7546771E-02  0.2400716E+00
         21   -1    0    0  503  502  0.00000000000E+00  0.00000000000E+00  0.87825143554E+03  0.87825143554E+03  0.00000000000E+00 0. -1.
         21   -1    0    0  501  503 -0.00000000000E+00 -0.00000000000E+00 -0.64714632408E+00  0.64714632408E+00  0.00000000000E+00 0. -1.
          5    1    1    2  501    0 -0.10083392989E+01 -0.37794433837E+01  0.14053944697E+02  0.15326588073E+02  0.47000000000E+01 0. -1.
         -5    1    1    2    0  502  0.10083392989E+01  0.37794433837E+01  0.86355034452E+03  0.86357199380E+03  0.47000000000E+01 0. -1.
<mgrwt>
<rscale>  2 0.61148132E+01</rscale>
<asrwt>0</asrwt>
<pdfrwt beam="1">  1       21 0.13511465E+00 0.61148132E+01</pdfrwt>
<pdfrwt beam="2">  1       21 0.99561676E-04 0.61148132E+01</pdfrwt>
<totfact> 0.26609157E+07</totfact>
</mgrwt>
</event>
<event>
 4    1  0.3900819E+006  0.7163938E+01  0.7546771E-02  0.2284777E+00
         21   -1    0    0  501  502  0.00000000000E+00  0.00000000000E+00  0.28093579177E+02  0.28093579177E+02  0.00000000000E+00 0.  1.
         21   -1    0    0  502  503 -0.00000000000E+00 -0.00000000000E+00 -0.18276115820E+01  0.18276115820E+01  0.00000000000E+00 0.  1.
          5    1    1    2  501    0  0.27199936323E+00  0.53998164693E+01  0.12822254844E+02  0.14687825600E+02  0.47000000000E+01 0.  1.
         -5    1    1    2    0  503 -0.27199936323E+00 -0.53998164693E+01  0.13443712751E+02  0.15233365160E+02  0.47000000000E+01 0.  1.
<mgrwt>
<rscale>  2 0.71639376E+01</rscale>
<asrwt>0</asrwt>
<pdfrwt beam="1">  1       21 0.43220888E-02 0.71639376E+01</pdfrwt>
<pdfrwt beam="2">  1       21 0.28117103E-03 0.71639376E+01</pdfrwt>
<totfact> 0.25898134E+09</totfact>
</mgrwt>
</event>
<event>
 4    1  0.3900819E+006  0.6689186E+01  0.7546771E-02  0.2333517E+00
         21   -1    0    0  501  502  0.00000000000E+00  0.00000000000E+00  0.14095860168E+02  0.14095860168E+02  0.00000000000E+00 0. -1.
         21   -1    0    0  502  503 -0.00000000000E+00 -0.00000000000E+00 -0.31936742129E+01  0.31936742129E+01  0.00000000000E+00 0. -1.
          5    1    1    2  501    0 -0.28980197945E+01 -0.37758039486E+01  0.61235160238E+01  0.90687740451E+01  0.47000000000E+01 0. -1.
         -5    1    1    2    0  503  0.28980197945E+01  0.37758039486E+01  0.47786699314E+01  0.82207603360E+01  0.47000000000E+01 0. -1.
<mgrwt>
<rscale>  2 0.66891864E+01</rscale>
<asrwt>0</asrwt>
<pdfrwt beam="1">  1       21 0.21685938E-02 0.66891864E+01</pdfrwt>
<pdfrwt beam="2">  1       21 0.49133450E-03 0.66891864E+01</pdfrwt>
<totfact> 0.31088610E+09</totfact>
</mgrwt>
</event>
<event>
 4    1  0.3900819E+006  0.5880878E+01  0.7546771E-02  0.2431190E+00
         21   -1    0    0  503  502  0.00000000000E+00  0.00000000000E+00  0.53532089713E+00  0.53532089713E+00  0.00000000000E+00 0.  1.
         21   -1    0    0  501  503 -0.00000000000E+00 -0.00000000000E+00 -0.98015769399E+02  0.98015769399E+02  0.00000000000E+00 0.  1.
          5    1    1    2  501    0 -0.35287529449E+01  0.20645470132E+00 -0.77509099509E+02  0.77731880381E+02  0.47000000000E+01 0.  1.
         -5    1    1    2    0  502  0.35287529449E+01 -0.20645470132E+00 -0.19971348993E+02  0.20819209915E+02  0.47000000000E+01 0.  1.
<mgrwt>
<rscale>  2 0.58808776E+01</rscale>
<asrwt>0</asrwt>
<pdfrwt beam="1">  1       21 0.82357015E-04 0.58808776E+01</pdfrwt>
<pdfrwt beam="2">  1       21 0.15079358E-01 0.58808776E+01</pdfrwt>
<totfact> 0.17425300E+09</totfact>
</mgrwt>
</event>
<event>
 4    1  0.3900819E+006  0.4713105E+01  0.7546771E-02  0.2620712E+00
         21   -1    0    0  501  502  0.00000000000E+00  0.00000000000E+00  0.45836263274E+01  0.45836263274E+01  0.00000000000E+00 0. -1.
         21   -1    0    0  502  503 -0.00000000000E+00 -0.00000000000E+00 -0.52076532587E+01  0.52076532587E+01  0.00000000000E+00 0. -1.
          5    1    1    2  501    0 -0.38344748529E-01 -0.34911919457E+00  0.97769128355E+00  0.48134431312E+01  0.47000000000E+01 0. -1.
         -5    1    1    2    0  503  0.38344748529E-01  0.34911919457E+00 -0.16017182149E+01  0.49778364549E+01  0.47000000000E+01 0. -1.
<mgrwt>
<rscale>  2 0.47131046E+01</rscale>
<asrwt>0</asrwt>
<pdfrwt beam="1">  1       21 0.70517328E-03 0.47131046E+01</pdfrwt>
<pdfrwt beam="2">  1       21 0.80117742E-03 0.47131046E+01</pdfrwt>
<totfact> 0.54983022E+09</totfact>
</mgrwt>
</event>
<event>
 4    1  0.3900819E+006  0.6576467E+01  0.7546771E-02  0.2345935E+00
         21   -1    0    0  501  502  0.00000000000E+00  0.00000000000E+00  0.51649116865E+01  0.51649116865E+01  0.00000000000E+00 0. -1.
         21   -1    0    0  502  503 -0.00000000000E+00 -0.00000000000E+00 -0.28353032574E+02  0.28353032574E+02  0.00000000000E+00 0. -1.
          5    1    1    2  501    0 -0.61794312199E+00  0.45582966887E+01  0.24740915967E+01  0.70264537025E+01  0.47000000000E+01 0. -1.
         -5    1    1    2    0  503  0.61794312199E+00 -0.45582966887E+01 -0.25662212484E+02  0.26491490558E+02  0.47000000000E+01 0. -1.
<mgrwt>
<rscale>  2 0.65764673E+01</rscale>
<asrwt>0</asrwt>
<pdfrwt beam="1">  1       21 0.79460180E-03 0.65764673E+01</pdfrwt>
<pdfrwt beam="2">  1       21 0.43620050E-02 0.65764673E+01</pdfrwt>
<totfact> 0.56104864E+08</totfact>
</mgrwt>
</event>
<event>
 4    1  0.3900819E+006  0.5666108E+01  0.7546771E-02  0.2461018E+00
         21   -1    0    0  501  502  0.00000000000E+00  0.00000000000E+00  0.13810162808E+02  0.13810162808E+02  0.00000000000E+00 0. -1.
         21   -1    0    0  502  503 -0.00000000000E+00 -0.00000000000E+00 -0.39236674358E+01  0.39236674358E+01  0.00000000000E+00 0. -1.
          5    1    1    2  501    0  0.30927839214E+01 -0.67041976002E+00  0.10603599410E+02  0.12022524505E+02  0.47000000000E+01 0. -1.
         -5    1    1    2    0  503 -0.30927839214E+01  0.67041976002E+00 -0.71710403733E+00  0.57113057386E+01  0.47000000000E+01 0. -1.
<mgrwt>
<rscale>  2 0.56661076E+01</rscale>
<asrwt>0</asrwt>
<pdfrwt beam="1">  1       21 0.21246404E-02 0.56661076E+01</pdfrwt>
<pdfrwt beam="2">  1       21 0.60364115E-03 0.56661076E+01</pdfrwt>
<totfact> 0.20830312E+09</totfact>
</mgrwt>
</event>
<event>
 4    1  0.3900819E+006  0.1225924E+02  0.7546771E-02  0.1965411E+00
         21   -1    0    0  501  502  0.00000000000E+00  0.00000000000E+00  0.21333492516E+01  0.21333492516E+01  0.00000000000E+00 0. -1.
         21   -1    0    0  502  503 -0.00000000000E+00 -0.00000000000E+00 -0.12612377088E+03  0.12612377088E+03  0.00000000000E+00 0.  1.
          5    1    1    2  501    0 -0.50897535923E+01 -0.10114015964E+02 -0.19387473655E+02  0.22938244163E+02  0.47000000000E+01 0. -1.
         -5    1    1    2    0  503  0.50897535923E+01  0.10114015964E+02 -0.10460294797E+03  0.10531887597E+03  0.47000000000E+01 0.  1.
<mgrwt>
<rscale>  2 0.12259238E+02</rscale>
<asrwt>0</asrwt>
<pdfrwt beam="1">  1       21 0.32820745E-03 0.12259238E+02</pdfrwt>
<pdfrwt beam="2">  1       21 0.19403665E-01 0.12259238E+02</pdfrwt>
<totfact> 0.26748450E+08</totfact>
</mgrwt>
</event>
<event>
 4    1  0.3900819E+006  0.8908236E+01  0.7546771E-02  0.2143024E+00
         21   -1    0    0  501  502  0.00000000000E+00  0.00000000000E+00  0.99846847267E+01  0.99846847267E+01  0.00000000000E+00 0.  1.
         21   -1    0    0  502  503 -0.00000000000E+00 -0.00000000000E+00 -0.84314516998E+01  0.84314516998E+01  0.00000000000E+00 0. -1.
          5    1    1    2  501    0 -0.74831038808E+01 -0.11268612651E+01  0.29819105252E+01  0.93940646358E+01  0.47000000000E+01 0.  1.
         -5    1    1    2    0  503  0.74831038808E+01  0.11268612651E+01 -0.14286774982E+01  0.90220717906E+01  0.47000000000E+01 0. -1.
<mgrwt>
<rscale>  2 0.89082355E+01</rscale>
<asrwt>0</asrwt>
<pdfrwt beam="1">  1       21 0.15361053E-02 0.89082355E+01</pdfrwt>
<pdfrwt beam="2">  1       21 0.12971464E-02 0.89082355E+01</pdfrwt>
<totfact> 0.15898347E+09</totfact>
</mgrwt>
</event>
<event>
 4    1  0.3900819E+006  0.5129311E+01  0.7546771E-02  0.2544713E+00
         21   -1    0    0  503  502  0.00000000000E+00  0.00000000000E+00  0.33641783628E+01  0.33641783628E+01  0.00000000000E+00 0. -1.
         21   -1    0    0  501  503 -0.00000000000E+00 -0.00000000000E+00 -0.12852111222E+02  0.12852111222E+02  0.00000000000E+00 0. -1.
          5    1    1    2  501    0  0.48344920510E+00  0.19965248772E+01 -0.98171926957E+01  0.11076421225E+02  0.47000000000E+01 0. -1.
         -5    1    1    2    0  502 -0.48344920510E+00 -0.19965248772E+01  0.32925983671E+00  0.51398683601E+01  0.47000000000E+01 0. -1.
<mgrwt>
<rscale>  2 0.51293113E+01</rscale>
<asrwt>0</asrwt>
<pdfrwt beam="1">  1       21 0.51756591E-03 0.51293113E+01</pdfrwt>
<pdfrwt beam="2">  1       21 0.19772479E-02 0.51293113E+01</pdfrwt>
<totfact> 0.25980780E+09</totfact>
</mgrwt>
</event>
<event>
 4    1  0.3900819E+006  0.5364617E+01  0.7546771E-02  0.2506270E+00
         21   -1    0    0  503  502  0.00000000000E+00  0.00000000000E+00  0.81148666413E+03  0.81148666413E+03  0.00000000000E+00 0. -1.
         21   -1    0    0  501  503 -0.00000000000E+00 -0.00000000000E+00 -0.35480684370E-01  0.35480684370E-01  0.00000000000E+00 0. -1.
          5    1    1    2  501    0  0.17503627094E-01 -0.25862736513E+01  0.41434237239E+03  0.41437709960E+03  0.47000000000E+01 0. -1.
         -5    1    1    2    0  502 -0.17503627094E-01  0.25862736513E+01  0.39710881106E+03  0.39714504521E+03  0.47000000000E+01 0. -1.
<mgrwt>
<rscale>  2 0.53646172E+01</rscale>
<asrwt>0</asrwt>
<pdfrwt beam="1">  1       21 0.12482924E+00 0.53646172E+01</pdfrwt>
<pdfrwt beam="2">  1       21 0.54592168E-05 0.53646172E+01</pdfrwt>
<totfact> 0.13946918E+09</totfact>
</mgrwt>
</event>
<event>
 4    1  0.3900819E+006  0.1289510E+02  0.7546771E-02  0.1940041E+00
         21   -1    0    0  501  502  0.00000000000E+00  0.00000000000E+00  0.66111064211E+01  0.66111064211E+01  0.00000000000E+00 0.  1.
         21   -1    0    0  502  503 -0.00000000000E+00 -0.00000000000E+00 -0.61601065904E+02  0.61601065904E+02  0.00000000000E+00 0. -1.
          5    1    1    2  501    0 -0.11849367295E+02  0.19457675987E+01 -0.12600382224E+01  0.12956512384E+02  0.47000000000E+01 0.  1.
         -5    1    1    2    0  503  0.11849367295E+02 -0.19457675987E+01 -0.53729921260E+02  0.55255659941E+02  0.47000000000E+01 0. -1.
<mgrwt>
<rscale>  2 0.12895097E+02</rscale>
<asrwt>0</asrwt>
<pdfrwt beam="1">  1       21 0.10170933E-02 0.12895097E+02</pdfrwt>
<pdfrwt beam="2">  1       21 0.94770870E-02 0.12895097E+02</pdfrwt>
<totfact> 0.17271579E+08</totfact>
</mgrwt>
</event>
<event>
 4    1  0.3900819E+006  0.6580172E+01  0.7546771E-02  0.2345521E+00
         21   -1    0    0  503  502  0.00000000000E+00  0.00000000000E+00  0.38276813591E+02  0.38276813591E+02  0.00000000000E+00 0. -1.
         21   -1    0    0  501  503 -0.00000000000E+00 -0.00000000000E+00 -0.20830953604E+01  0.20830953604E+01  0.00000000000E+00 0. -1.
          5    1    1    2  501    0  0.40463569935E+01  0.21990143145E+01  0.44554075675E+01  0.79466549860E+01  0.47000000000E+01 0. -1.
         -5    1    1    2    0  502 -0.40463569935E+01 -0.21990143145E+01  0.31738310663E+02  0.32413253965E+02  0.47000000000E+01 0. -1.
<mgrwt>
<rscale>  2 0.65801724E+01</rscale>
<asrwt>0</asrwt>
<pdfrwt beam="1">  1       21 0.58887400E-02 0.65801724E+01</pdfrwt>
<pdfrwt beam="2">  1       21 0.32047624E-03 0.65801724E+01</pdfrwt>
<totfact> 0.12747816E+09</totfact>
</mgrwt>
</event>
<event>
 4    1  0.3900819E+006  0.5479022E+01  0.7546771E-02  0.2488601E+00
         21   -1    0    0  503  502  0.00000000000E+00  0.00000000000E+00  0.11010309285E+04  0.11010309285E+04  0.00000000000E+00 0.  1.
         21   -1    0    0  501  503 -0.00000000000E+00 -0.00000000000E+00 -0.35697905983E-01  0.35697905983E-01  0.00000000000E+00 0. -1.
          5    1    1    2  501    0  0.78866543945E+00 -0.27032738777E+01  0.28292040708E+03  0.28297345533E+03  0.47000000000E+01 0. -1.
         -5    1    1    2    0  502 -0.78866543945E+00  0.27032738777E+01  0.81807482347E+03  0.81809317103E+03  0.47000000000E+01 0.  1.
<mgrwt>
<rscale>  2 0.54790221E+01</rscale>
<asrwt>0</asrwt>
<pdfrwt beam="1">  1       21 0.16936218E+00 0.54790221E+01</pdfrwt>
<pdfrwt beam="2">  1       21 0.54928674E-05 0.54790221E+01</pdfrwt>
<totfact> 0.73492913E+08</totfact>
</mgrwt>
</event>
<event>
 4    1  0.3900819E+006  0.4786411E+01  0.7546771E-02  0.2606499E+00
         21   -1    0    0  501  502  0.00000000000E+00  0.00000000000E+00  0.32428633177E+02  0.32428633177E+02  0.00000000000E+00 0. -1.
         21   -1    0    0  502  503 -0.00000000000E+00 -0.00000000000E+00 -0.40193776841E+01  0.40193776841E+01  0.00000000000E+00 0. -1.
          5    1    1    2  501    0 -0.52860737195E+00  0.73505170197E+00  0.30749726244E+02  0.31120015920E+02  0.47000000000E+01 0. -1.
         -5    1    1    2    0  503  0.52860737195E+00 -0.73505170197E+00 -0.23404707512E+01  0.53279949414E+01  0.47000000000E+01 0. -1.
<mgrwt>
<rscale>  2 0.47864106E+01</rscale>
<asrwt>0</asrwt>
<pdfrwt beam="1">  1       21 0.49890203E-02 0.47864106E+01</pdfrwt>
<pdfrwt beam="2">  1       21 0.61836582E-03 0.47864106E+01</pdfrwt>
<totfact> 0.50328411E+08</totfact>
</mgrwt>
</event>
<event>
 4    1  0.3900819E+006  0.5530006E+01  0.7546771E-02  0.2480927E+00
         21   -1    0    0  501  502  0.00000000000E+00  0.00000000000E+00  0.23295597812E+02  0.23295597812E+02  0.00000000000E+00 0.  1.
         21   -1    0    0  502  503 -0.00000000000E+00 -0.00000000000E+00 -0.38970310132E+01  0.38970310132E+01  0.00000000000E+00 0.  1.
          5    1    1    2  501    0  0.20655792622E+01 -0.20553213869E+01  0.20771264483E+02  0.21494799183E+02  0.47000000000E+01 0.  1.
         -5    1    1    2    0  503 -0.20655792622E+01  0.20553213869E+01 -0.13726976847E+01  0.56978296417E+01  0.47000000000E+01 0.  1.
<mgrwt>
<rscale>  2 0.55300058E+01</rscale>
<asrwt>0</asrwt>
<pdfrwt beam="1">  1       21 0.35839380E-02 0.55300058E+01</pdfrwt>
<pdfrwt beam="2">  1       21 0.59954325E-03 0.55300058E+01</pdfrwt>
<totfact> 0.96801888E+08</totfact>
</mgrwt>
</event>
<event>
 4    1  0.3900819E+006  0.5761230E+01  0.7546771E-02  0.2447576E+00
         21   -1    0    0  503  502  0.00000000000E+00  0.00000000000E+00  0.25508930708E+01  0.25508930708E+01  0.00000000000E+00 0.  1.
         21   -1    0    0  501  503 -0.00000000000E+00 -0.00000000000E+00 -0.97006572513E+02  0.97006572513E+02  0.00000000000E+00 0.  1.
          5    1    1    2  501    0  0.24969445082E+01 -0.22061365925E+01 -0.93547922281E+02  0.93725159555E+02  0.47000000000E+01 0.  1.
         -5    1    1    2    0  502 -0.24969445082E+01  0.22061365925E+01 -0.90775716045E+00  0.58323060280E+01  0.47000000000E+01 0.  1.
<mgrwt>
<rscale>  2 0.57612300E+01</rscale>
<asrwt>0</asrwt>
<pdfrwt beam="1">  1       21 0.39244521E-03 0.57612300E+01</pdfrwt>
<pdfrwt beam="2">  1       21 0.14924083E-01 0.57612300E+01</pdfrwt>
<totfact> 0.20967130E+08</totfact>
</mgrwt>
</event>
<event>
 4    1  0.3900819E+006  0.7941405E+01  0.7546771E-02  0.2215398E+00
         21   -1    0    0  503  502  0.00000000000E+00  0.00000000000E+00  0.11523325336E+01  0.11523325336E+01  0.00000000000E+00 0. -1.
         21   -1    0    0  501  503 -0.00000000000E+00 -0.00000000000E+00 -0.66077182196E+02  0.66077182196E+02  0.00000000000E+00 0. -1.
          5    1    1    2  501    0 -0.20413551281E+01 -0.60670243132E+01 -0.46392995530E+02  0.47067780370E+02  0.47000000000E+01 0. -1.
         -5    1    1    2    0  502  0.20413551281E+01  0.60670243132E+01 -0.18531854133E+02  0.20161734360E+02  0.47000000000E+01 0. -1.
<mgrwt>
<rscale>  2 0.79414051E+01</rscale>
<asrwt>0</asrwt>
<pdfrwt beam="1">  1       21 0.17728194E-03 0.79414051E+01</pdfrwt>
<pdfrwt beam="2">  1       21 0.10165720E-01 0.79414051E+01</pdfrwt>
<totfact> 0.14305551E+09</totfact>
</mgrwt>
</event>
<event>
 4    1  0.3900819E+006  0.6050074E+01  0.7546771E-02  0.2408952E+00
         21   -1    0    0  501  502  0.00000000000E+00  0.00000000000E+00  0.76122482638E+02  0.76122482638E+02  0.00000000000E+00 0. -1.
         21   -1    0    0  502  503 -0.00000000000E+00 -0.00000000000E+00 -0.72448791854E+00  0.72448791854E+00  0.00000000000E+00 0.  1.
          5    1    1    2  501    0 -0.32607850999E+01 -0.19699441848E+01  0.59981027064E+02  0.60285379714E+02  0.47000000000E+01 0. -1.
         -5    1    1    2    0  503  0.32607850999E+01  0.19699441848E+01  0.15416967655E+02  0.16561590843E+02  0.47000000000E+01 0.  1.
<mgrwt>
<rscale>  2 0.60500743E+01</rscale>
<asrwt>0</asrwt>
<pdfrwt beam="1">  1       21 0.11711145E-01 0.60500743E+01</pdfrwt>
<pdfrwt beam="2">  1       21 0.11145974E-03 0.60500743E+01</pdfrwt>
<totfact> 0.17636521E+09</totfact>
</mgrwt>
</event>
<event>
 4    1  0.3900819E+006  0.7203686E+01  0.7546771E-02  0.2280936E+00
         21   -1    0    0  503  502  0.00000000000E+00  0.00000000000E+00  0.60357996890E+01  0.60357996890E+01  0.00000000000E+00 0. -1.
         21   -1    0    0  501  503 -0.00000000000E+00 -0.00000000000E+00 -0.88704655711E+01  0.88704655711E+01  0.00000000000E+00 0.  1.
          5    1    1    2  501    0 -0.52051858785E+01 -0.16459459749E+01 -0.11002267797E+00  0.72045265751E+01  0.47000000000E+01 0. -1.
         -5    1    1    2    0  502  0.52051858785E+01  0.16459459749E+01 -0.27246432041E+01  0.77017386850E+01  0.47000000000E+01 0.  1.
<mgrwt>
<rscale>  2 0.72036864E+01</rscale>
<asrwt>0</asrwt>
<pdfrwt beam="1">  1       21 0.92858457E-03 0.72036864E+01</pdfrwt>
<pdfrwt beam="2">  1       21 0.13646870E-02 0.72036864E+01</pdfrwt>
<totfact> 0.26220389E+09</totfact>
</mgrwt>
</event>
<event>
 4    1  0.3900819E+006  0.5566671E+01  0.7546771E-02  0.2475483E+00
         21   -1    0    0  503  502  0.00000000000E+00  0.00000000000E+00  0.76518669778E+00  0.76518669778E+00  0.00000000000E+00 0.  1.
         21   -1    0    0  501  503 -0.00000000000E+00 -0.00000000000E+00 -0.78914789896E+02  0.78914789896E+02  0.00000000000E+00 0. -1.
          5    1    1    2  501    0 -0.26559890775E+01 -0.13577752341E+01 -0.66872299231E+02  0.67103593316E+02  0.47000000000E+01 0. -1.
         -5    1    1    2    0  502  0.26559890775E+01  0.13577752341E+01 -0.11277303968E+02  0.12576383278E+02  0.47000000000E+01 0.  1.
<mgrwt>
<rscale>  2 0.55666715E+01</rscale>
<asrwt>0</asrwt>
<pdfrwt beam="1">  1       21 0.11772106E-03 0.55666715E+01</pdfrwt>
<pdfrwt beam="2">  1       21 0.12140734E-01 0.55666715E+01</pdfrwt>
<totfact> 0.14460537E+09</totfact>
</mgrwt>
</event>
<event>
 4    1  0.3900819E+006  0.6587349E+01  0.7546771E-02  0.2344721E+00
         21   -1    0    0  503  502  0.00000000000E+00  0.00000000000E+00  0.11430859771E+02  0.11430859771E+02  0.00000000000E+00 0. -1.
         21   -1    0    0  501  503 -0.00000000000E+00 -0.00000000000E+00 -0.53220188570E+01  0.53220188570E+01  0.00000000000E+00 0.  1.
          5    1    1    2  501    0 -0.27044371742E+01  0.37402121718E+01 -0.14307709037E+01  0.67409400604E+01  0.47000000000E+01 0.  1.
         -5    1    1    2    0  502  0.27044371742E+01 -0.37402121718E+01  0.75396118175E+01  0.10011938567E+02  0.47000000000E+01 0. -1.
<mgrwt>
<rscale>  2 0.65873491E+01</rscale>
<asrwt>0</asrwt>
<pdfrwt beam="1">  1       21 0.17585938E-02 0.65873491E+01</pdfrwt>
<pdfrwt beam="2">  1       21 0.81877213E-03 0.65873491E+01</pdfrwt>
<totfact> 0.20284761E+09</totfact>
</mgrwt>
</event>
<event>
 4    1  0.3900819E+006  0.5473931E+01  0.7546771E-02  0.2489374E+00
         21   -1    0    0  501  502  0.00000000000E+00  0.00000000000E+00  0.23641130589E+00  0.23641130589E+00  0.00000000000E+00 0.  1.
         21   -1    0    0  502  503 -0.00000000000E+00 -0.00000000000E+00 -0.19053546555E+03  0.19053546555E+03  0.00000000000E+00 0.  1.
          5    1    1    2  501    0 -0.27500937604E+01  0.55758887459E+00 -0.39957701387E+02  0.40330904046E+02  0.47000000000E+01 0.  1.
         -5    1    1    2    0  503  0.27500937604E+01 -0.55758887459E+00 -0.15034135286E+03  0.15044097281E+03  0.47000000000E+01 0.  1.
<mgrwt>
<rscale>  2 0.54739310E+01</rscale>
<asrwt>0</asrwt>
<pdfrwt beam="1">  1       21 0.36371125E-04 0.54739310E+01</pdfrwt>
<pdfrwt beam="2">  1       21 0.29313024E-01 0.54739310E+01</pdfrwt>
<totfact> 0.16668544E+09</totfact>
</mgrwt>
</event>
<event>
 4    1  0.3900819E+006  0.5295882E+01  0.7546771E-02  0.2517197E+00
         21   -1    0    0  501  502  0.00000000000E+00  0.00000000000E+00  0.18586586471E+03  0.18586586471E+03  0.00000000000E+00 0.  1.
         21   -1    0    0  502  503 -0.00000000000E+00 -0.00000000000E+00 -0.22367677135E+00  0.22367677135E+00  0.00000000000E+00 0.  1.
          5    1    1    2  501    0 -0.24405665518E+01 -0.85265780859E-06  0.14589617477E+03  0.14599226068E+03  0.47000000000E+01 0.  1.
         -5    1    1    2    0  503  0.24405665518E+01  0.85265780859E-06  0.39746013171E+02  0.40097280807E+02  0.47000000000E+01 0.  1.
<mgrwt>
<rscale>  2 0.52958819E+01</rscale>
<asrwt>0</asrwt>
<pdfrwt beam="1">  1       21 0.28594625E-01 0.52958819E+01</pdfrwt>
<pdfrwt beam="2">  1       21 0.34411960E-04 0.52958819E+01</pdfrwt>
<totfact> 0.18173902E+09</totfact>
</mgrwt>
</event>
<event>
 4    1  0.3900819E+006  0.5981940E+01  0.7546771E-02  0.2417780E+00
         21   -1    0    0  501  502  0.00000000000E+00  0.00000000000E+00  0.27015468651E+03  0.27015468651E+03  0.00000000000E+00 0. -1.
         21   -1    0    0  502  503 -0.00000000000E+00 -0.00000000000E+00 -0.78447445318E+00  0.78447445318E+00  0.00000000000E+00 0.  1.
          5    1    1    2  501    0 -0.28137936492E+01  0.24033666111E+01  0.25818947786E+03  0.25825876574E+03  0.47000000000E+01 0. -1.
         -5    1    1    2    0  503  0.28137936492E+01 -0.24033666111E+01  0.11180734204E+02  0.12680395227E+02  0.47000000000E+01 0.  1.
<mgrwt>
<rscale>  2 0.59819400E+01</rscale>
<asrwt>0</asrwt>
<pdfrwt beam="1">  1       21 0.41562185E-01 0.59819400E+01</pdfrwt>
<pdfrwt beam="2">  1       21 0.12068859E-03 0.59819400E+01</pdfrwt>
<totfact> 0.19739847E+08</totfact>
</mgrwt>
</event>
<event>
 4    1  0.3900819E+006  0.5763633E+01  0.7546771E-02  0.2447241E+00
         21   -1    0    0  503  502  0.00000000000E+00  0.00000000000E+00  0.17382104703E+01  0.17382104703E+01  0.00000000000E+00 0.  1.
         21   -1    0    0  501  503 -0.00000000000E+00 -0.00000000000E+00 -0.22818784877E+02  0.22818784877E+02  0.00000000000E+00 0.  1.
          5    1    1    2  501    0  0.19821829635E+01 -0.26833586986E+01 -0.15489528416E+02  0.16527097560E+02  0.47000000000E+01 0.  1.
         -5    1    1    2    0  502 -0.19821829635E+01  0.26833586986E+01 -0.55910459908E+01  0.80298977875E+01  0.47000000000E+01 0.  1.
<mgrwt>
<rscale>  2 0.57636328E+01</rscale>
<asrwt>0</asrwt>
<pdfrwt beam="1">  1       21 0.26741699E-03 0.57636328E+01</pdfrwt>
<pdfrwt beam="2">  1       21 0.35105824E-02 0.57636328E+01</pdfrwt>
<totfact> 0.31445504E+09</totfact>
</mgrwt>
</event>
<event>
 4    1  0.3900819E+006  0.6636056E+01  0.7546771E-02  0.2339327E+00
         21   -1    0    0  501  502  0.00000000000E+00  0.00000000000E+00  0.13278719186E+02  0.13278719186E+02  0.00000000000E+00 0. -1.
         21   -1    0    0  502  503 -0.00000000000E+00 -0.00000000000E+00 -0.13456030270E+02  0.13456030270E+02  0.00000000000E+00 0.  1.
          5    1    1    2  501    0  0.45242658354E+01 -0.12158353302E+01  0.11515116823E+02  0.13290415808E+02  0.47000000000E+01 0. -1.
         -5    1    1    2    0  503 -0.45242658354E+01  0.12158353302E+01 -0.11692427907E+02  0.13444333649E+02  0.47000000000E+01 0.  1.
<mgrwt>
<rscale>  2 0.66360558E+01</rscale>
<asrwt>0</asrwt>
<pdfrwt beam="1">  1       21 0.20428799E-02 0.66360558E+01</pdfrwt>
<pdfrwt beam="2">  1       21 0.20701585E-02 0.66360558E+01</pdfrwt>
<totfact> 0.43654210E+08</totfact>
</mgrwt>
</event>
<event>
 4    1  0.3900819E+006  0.8760906E+01  0.7546771E-02  0.2153223E+00
         21   -1    0    0  503  502  0.00000000000E+00  0.00000000000E+00  0.48685332828E+00  0.48685332828E+00  0.00000000000E+00 0.  1.
         21   -1    0    0  501  503 -0.00000000000E+00 -0.00000000000E+00 -0.38319700675E+03  0.38319700675E+03  0.00000000000E+00 0. -1.
          5    1    1    2  501    0 -0.43766679376E+01 -0.59588797989E+01 -0.33853512851E+03  0.33864847070E+03  0.47000000000E+01 0. -1.
         -5    1    1    2    0  502  0.43766679376E+01  0.59588797989E+01 -0.44175024909E+02  0.45035389378E+02  0.47000000000E+01 0.  1.
<mgrwt>
<rscale>  2 0.87609058E+01</rscale>
<asrwt>0</asrwt>
<pdfrwt beam="1">  1       21 0.74900351E-04 0.87609058E+01</pdfrwt>
<pdfrwt beam="2">  1       21 0.58953512E-01 0.87609058E+01</pdfrwt>
<totfact> 0.24830583E+08</totfact>
</mgrwt>
</event>
<event>
 4    1  0.3900819E+006  0.4749276E+01  0.7546771E-02  0.2613651E+00
         21   -1    0    0  503  502  0.00000000000E+00  0.00000000000E+00  0.13327236718E+00  0.13327236718E+00  0.00000000000E+00 0.  1.
         21   -1    0    0  501  503 -0.00000000000E+00 -0.00000000000E+00 -0.23809657383E+03  0.23809657383E+03  0.00000000000E+00 0.  1.
          5    1    1    2  501    0 -0.64275935247E+00 -0.22910066293E+00 -0.18303588461E+03  0.18309748956E+03  0.47000000000E+01 0. -1.
         -5    1    1    2    0  502  0.64275935247E+00  0.22910066293E+00 -0.54927416848E+02  0.55132356636E+02  0.47000000000E+01 0. -1.
<mgrwt>
<rscale>  2 0.47492764E+01</rscale>
<asrwt>0</asrwt>
<pdfrwt beam="1">  1       21 0.20503444E-04 0.47492764E+01</pdfrwt>
<pdfrwt beam="2">  1       21 0.36630237E-01 0.47492764E+01</pdfrwt>
<totfact> 0.21596287E+09</totfact>
</mgrwt>
</event>
<event>
 4    1  0.3900819E+006  0.7477645E+01  0.7546771E-02  0.2255374E+00
         21   -1    0    0  501  502  0.00000000000E+00  0.00000000000E+00  0.72841882786E+03  0.72841882786E+03  0.00000000000E+00 0.  1.
         21   -1    0    0  502  503 -0.00000000000E+00 -0.00000000000E+00 -0.17394565047E+00  0.17394565047E+00  0.00000000000E+00 0. -1.
          5    1    1    2  501    0  0.28096330876E+01 -0.50922622031E+01  0.63642003427E+03  0.63646396221E+03  0.47000000000E+01 0.  1.
         -5    1    1    2    0  503 -0.28096330876E+01  0.50922622031E+01  0.91824847940E+02  0.92128811301E+02  0.47000000000E+01 0. -1.
<mgrwt>
<rscale>  2 0.74776448E+01</rscale>
<asrwt>0</asrwt>
<pdfrwt beam="1">  1       21 0.11206199E+00 0.74776448E+01</pdfrwt>
<pdfrwt beam="2">  1       21 0.26761452E-04 0.74776448E+01</pdfrwt>
<totfact> 0.25664885E+08</totfact>
</mgrwt>
</event>
<event>
 4    1  0.3900819E+006  0.5861515E+01  0.7546771E-02  0.2433804E+00
         21   -1    0    0  501  502  0.00000000000E+00  0.00000000000E+00  0.10915904045E+01  0.10915904045E+01  0.00000000000E+00 0. -1.
         21   -1    0    0  502  503 -0.00000000000E+00 -0.00000000000E+00 -0.40507582089E+02  0.40507582089E+02  0.00000000000E+00 0. -1.
          5    1    1    2  501    0 -0.10972538392E+00  0.35007594673E+01 -0.98859391434E+01  0.11493004362E+02  0.47000000000E+01 0. -1.
         -5    1    1    2    0  503  0.10972538392E+00 -0.35007594673E+01 -0.29530052541E+02  0.30106168132E+02  0.47000000000E+01 0. -1.
<mgrwt>
<rscale>  2 0.58615149E+01</rscale>
<asrwt>0</asrwt>
<pdfrwt beam="1">  1       21 0.16793698E-03 0.58615149E+01</pdfrwt>
<pdfrwt beam="2">  1       21 0.62319359E-02 0.58615149E+01</pdfrwt>
<totfact> 0.25773158E+09</totfact>
</mgrwt>
</event>
<event>
 4    1  0.3900819E+006  0.7786883E+01  0.7546771E-02  0.2228289E+00
         21   -1    0    0  503  502  0.00000000000E+00  0.00000000000E+00  0.11494485203E+02  0.11494485203E+02  0.00000000000E+00 0.  1.
         21   -1    0    0  501  503 -0.00000000000E+00 -0.00000000000E+00 -0.12597546632E+03  0.12597546632E+03  0.00000000000E+00 0.  1.
          5    1    1    2  501    0 -0.39074792768E+01 -0.48246408919E+01 -0.12452094789E+03  0.12476418563E+03  0.47000000000E+01 0.  1.
         -5    1    1    2    0  502  0.39074792768E+01  0.48246408919E+01  0.10039966771E+02  0.12705765888E+02  0.47000000000E+01 0.  1.
<mgrwt>
<rscale>  2 0.77868835E+01</rscale>
<asrwt>0</asrwt>
<pdfrwt beam="1">  1       21 0.17683824E-02 0.77868835E+01</pdfrwt>
<pdfrwt beam="2">  1       21 0.19380841E-01 0.77868835E+01</pdfrwt>
<totfact> 0.19445443E+07</totfact>
</mgrwt>
</event>
<event>
 4    1  0.3900819E+006  0.6241748E+01  0.7546771E-02  0.2384983E+00
         21   -1    0    0  503  502  0.00000000000E+00  0.00000000000E+00  0.16061042096E+00  0.16061042096E+00  0.00000000000E+00 0. -1.
         21   -1    0    0  501  503 -0.00000000000E+00 -0.00000000000E+00 -0.25063425195E+03  0.25063425195E+03  0.00000000000E+00 0.  1.
          5    1    1    2  501    0  0.38356191014E+01  0.14688221199E+01 -0.14772874341E+03  0.14786054592E+03  0.47000000000E+01 0. -1.
         -5    1    1    2    0  502 -0.38356191014E+01 -0.14688221199E+01 -0.10274489812E+03  0.10293431645E+03  0.47000000000E+01 0. -1.
<mgrwt>
<rscale>  2 0.62417475E+01</rscale>
<asrwt>0</asrwt>
<pdfrwt beam="1">  1       21 0.24709391E-04 0.62417475E+01</pdfrwt>
<pdfrwt beam="2">  1       21 0.38558967E-01 0.62417475E+01</pdfrwt>
<totfact> 0.19417046E+09</totfact>
</mgrwt>
</event>
<event>
 4    1  0.3900819E+006  0.5453181E+01  0.7546771E-02  0.2492537E+00
         21   -1    0    0  501  502  0.00000000000E+00  0.00000000000E+00  0.33358587194E+02  0.33358587194E+02  0.00000000000E+00 0. -1.
         21   -1    0    0  502  503 -0.00000000000E+00 -0.00000000000E+00 -0.14475832368E+01  0.14475832368E+01  0.00000000000E+00 0. -1.
          5    1    1    2  501    0  0.23085430723E+01 -0.15224348147E+01  0.26742430607E+02  0.27292760462E+02  0.47000000000E+01 0. -1.
         -5    1    1    2    0  503 -0.23085430723E+01  0.15224348147E+01  0.51685733510E+01  0.75134099693E+01  0.47000000000E+01 0. -1.
<mgrwt>
<rscale>  2 0.54531806E+01</rscale>
<asrwt>0</asrwt>
<pdfrwt beam="1">  1       21 0.51320898E-02 0.54531806E+01</pdfrwt>
<pdfrwt beam="2">  1       21 0.22270514E-03 0.54531806E+01</pdfrwt>
<totfact> 0.21999362E+09</totfact>
</mgrwt>
</event>
<event>
 4    1  0.3900819E+006  0.5527221E+01  0.7546771E-02  0.2481343E+00
         21   -1    0    0  501  502  0.00000000000E+00  0.00000000000E+00  0.32431784243E+01  0.32431784243E+01  0.00000000000E+00 0. -1.
         21   -1    0    0  502  503 -0.00000000000E+00 -0.00000000000E+00 -0.20385930660E+02  0.20385930660E+02  0.00000000000E+00 0.  1.
          5    1    1    2  501    0 -0.17855027337E+01 -0.22961175983E+01  0.93817595126E-01  0.55280175270E+01  0.47000000000E+01 0. -1.
         -5    1    1    2    0  503  0.17855027337E+01  0.22961175983E+01 -0.17236569831E+02  0.18101091557E+02  0.47000000000E+01 0.  1.
<mgrwt>
<rscale>  2 0.55272214E+01</rscale>
<asrwt>0</asrwt>
<pdfrwt beam="1">  1       21 0.49895052E-03 0.55272214E+01</pdfrwt>
<pdfrwt beam="2">  1       21 0.31362970E-02 0.55272214E+01</pdfrwt>
<totfact> 0.15144053E+09</totfact>
</mgrwt>
</event>
<event>
 4    1  0.3900819E+006  0.6834468E+01  0.7546771E-02  0.2318012E+00
         21   -1    0    0  501  502  0.00000000000E+00  0.00000000000E+00  0.54630626977E+02  0.54630626977E+02  0.00000000000E+00 0.  1.
         21   -1    0    0  502  503 -0.00000000000E+00 -0.00000000000E+00 -0.12200418351E+01  0.12200418351E+01  0.00000000000E+00 0.  1.
          5    1    1    2  501    0  0.40716464578E+01 -0.28357806414E+01  0.41980036874E+02  0.42532733896E+02  0.47000000000E+01 0.  1.
         -5    1    1    2    0  503 -0.40716464578E+01  0.28357806414E+01  0.11430548268E+02  0.13317934916E+02  0.47000000000E+01 0.  1.
<mgrwt>
<rscale>  2 0.68344683E+01</rscale>
<asrwt>0</asrwt>
<pdfrwt beam="1">  1       21 0.84047100E-02 0.68344683E+01</pdfrwt>
<pdfrwt beam="2">  1       21 0.18769879E-03 0.68344683E+01</pdfrwt>
<totfact> 0.15956727E+09</totfact>
</mgrwt>
</event>
<event>
 4    1  0.3900819E+006  0.5028576E+01  0.7546771E-02  0.2562109E+00
         21   -1    0    0  501  502  0.00000000000E+00  0.00000000000E+00  0.22771546644E+02  0.22771546644E+02  0.00000000000E+00 0.  1.
         21   -1    0    0  502  503 -0.00000000000E+00 -0.00000000000E+00 -0.57653498305E+01  0.57653498305E+01  0.00000000000E+00 0.  1.
          5    1    1    2  501    0 -0.17418711147E+00  0.17793912231E+01  0.21324020624E+02  0.21908912110E+02  0.47000000000E+01 0.  1.
         -5    1    1    2    0  503  0.17418711147E+00 -0.17793912231E+01 -0.43178238105E+01  0.66279843643E+01  0.47000000000E+01 0.  1.
<mgrwt>
<rscale>  2 0.50285758E+01</rscale>
<asrwt>0</asrwt>
<pdfrwt beam="1">  1       21 0.35033148E-02 0.50285758E+01</pdfrwt>
<pdfrwt beam="2">  1       21 0.88697691E-03 0.50285758E+01</pdfrwt>
<totfact> 0.53348752E+08</totfact>
</mgrwt>
</event>
<event>
 4    1  0.3900819E+006  0.4872952E+01  0.7546771E-02  0.2590198E+00
         21   -1    0    0  501  502  0.00000000000E+00  0.00000000000E+00  0.19345908362E+02  0.19345908362E+02  0.00000000000E+00 0.  1.
         21   -1    0    0  502  503 -0.00000000000E+00 -0.00000000000E+00 -0.29528276353E+01  0.29528276353E+01  0.00000000000E+00 0.  1.
          5    1    1    2  501    0  0.22927464357E+00 -0.12661349156E+01  0.16719223580E+02  0.17414881613E+02  0.47000000000E+01 0.  1.
         -5    1    1    2    0  503 -0.22927464357E+00  0.12661349156E+01 -0.32614285303E+00  0.48838543843E+01  0.47000000000E+01 0.  1.
<mgrwt>
<rscale>  2 0.48729523E+01</rscale>
<asrwt>0</asrwt>
<pdfrwt beam="1">  1       21 0.29762935E-02 0.48729523E+01</pdfrwt>
<pdfrwt beam="2">  1       21 0.45428119E-03 0.48729523E+01</pdfrwt>
<totfact> 0.16476053E+09</totfact>
</mgrwt>
</event>
<event>
 4    1  0.3900819E+006  0.7510403E+01  0.7546771E-02  0.2252420E+00
         21   -1    0    0  501  502  0.00000000000E+00  0.00000000000E+00  0.11986166933E+03  0.11986166933E+03  0.00000000000E+00 0.  1.
         21   -1    0    0  502  503 -0.00000000000E+00 -0.00000000000E+00 -0.51858789471E+00  0.51858789471E+00  0.00000000000E+00 0. -1.
          5    1    1    2  501    0  0.42447621189E+00 -0.58425994362E+01  0.77982385103E+02  0.78343209882E+02  0.47000000000E+01 0.  1.
         -5    1    1    2    0  503 -0.42447621189E+00  0.58425994362E+01  0.41360696337E+02  0.42037047347E+02  0.47000000000E+01 0.  1.
<mgrwt>
<rscale>  2 0.75104027E+01</rscale>
<asrwt>0</asrwt>
<pdfrwt beam="1">  1       21 0.18440235E-01 0.75104027E+01</pdfrwt>
<pdfrwt beam="2">  1       21 0.79782848E-04 0.75104027E+01</pdfrwt>
<totfact> 0.15842867E+09</totfact>
</mgrwt>
</event>
<event>
 4    1  0.3900819E+006  0.6176546E+01  0.7546771E-02  0.2392997E+00
         21   -1    0    0  503  502  0.00000000000E+00  0.00000000000E+00  0.27827567152E+01  0.27827567152E+01  0.00000000000E+00 0.  1.
         21   -1    0    0  501  503 -0.00000000000E+00 -0.00000000000E+00 -0.16207564938E+02  0.16207564938E+02  0.00000000000E+00 0. -1.
          5    1    1    2  501    0 -0.37026010012E+00  0.39903172688E+01 -0.10440269793E+02  0.12130497014E+02  0.47000000000E+01 0. -1.
         -5    1    1    2    0  502  0.37026010012E+00 -0.39903172688E+01 -0.29845384299E+01  0.68598246396E+01  0.47000000000E+01 0.  1.
<mgrwt>
<rscale>  2 0.61765463E+01</rscale>
<asrwt>0</asrwt>
<pdfrwt beam="1">  1       21 0.42811642E-03 0.61765463E+01</pdfrwt>
<pdfrwt beam="2">  1       21 0.24934715E-02 0.61765463E+01</pdfrwt>
<totfact> 0.28752148E+09</totfact>
</mgrwt>
</event>
<event>
 4    1  0.3900819E+006  0.6077639E+01  0.7546771E-02  0.2405427E+00
         21   -1    0    0  501  502  0.00000000000E+00  0.00000000000E+00  0.10395493969E+01  0.10395493969E+01  0.00000000000E+00 0. -1.
         21   -1    0    0  502  503 -0.00000000000E+00 -0.00000000000E+00 -0.37262358071E+02  0.37262358071E+02  0.00000000000E+00 0. -1.
          5    1    1    2  501    0 -0.11669929600E+01  0.36723051065E+01 -0.13985002348E+02  0.15248540522E+02  0.47000000000E+01 0. -1.
         -5    1    1    2    0  503  0.11669929600E+01 -0.36723051065E+01 -0.22237806326E+02  0.23053366946E+02  0.47000000000E+01 0. -1.
<mgrwt>
<rscale>  2 0.60776391E+01</rscale>
<asrwt>0</asrwt>
<pdfrwt beam="1">  1       21 0.15993066E-03 0.60776391E+01</pdfrwt>
<pdfrwt beam="2">  1       21 0.57326711E-02 0.60776391E+01</pdfrwt>
<totfact> 0.32192493E+09</totfact>
</mgrwt>
</event>
<event>
 4    1  0.3900819E+006  0.5266321E+01  0.7546771E-02  0.2521972E+00
         21   -1    0    0  501  502  0.00000000000E+00  0.00000000000E+00  0.14566654823E+02  0.14566654823E+02  0.00000000000E+00 0.  1.
         21   -1    0    0  502  503 -0.00000000000E+00 -0.00000000000E+00 -0.26289587933E+01  0.26289587933E+01  0.00000000000E+00 0. -1.
          5    1    1    2  501    0  0.52501814325E+00  0.23170003182E+01  0.10483958846E+02  0.11732328311E+02  0.47000000000E+01 0.  1.
         -5    1    1    2    0  503 -0.52501814325E+00 -0.23170003182E+01  0.14537371841E+01  0.54632853052E+01  0.47000000000E+01 0. -1.
<mgrwt>
<rscale>  2 0.52663208E+01</rscale>
<asrwt>0</asrwt>
<pdfrwt beam="1">  1       21 0.22410238E-02 0.52663208E+01</pdfrwt>
<pdfrwt beam="2">  1       21 0.40445521E-03 0.52663208E+01</pdfrwt>
<totfact> 0.31320030E+09</totfact>
</mgrwt>
</event>
<event>
 4    1  0.3900819E+006  0.9194696E+01  0.7546771E-02  0.2123941E+00
         21   -1    0    0  501  502  0.00000000000E+00  0.00000000000E+00  0.46416076585E+01  0.46416076585E+01  0.00000000000E+00 0.  1.
         21   -1    0    0  502  503 -0.00000000000E+00 -0.00000000000E+00 -0.20609232171E+02  0.20609232171E+02  0.00000000000E+00 0.  1.
          5    1    1    2  501    0 -0.11648684273E+01 -0.78163624169E+01 -0.36796873468E+01  0.99036629010E+01  0.47000000000E+01 0.  1.
         -5    1    1    2    0  503  0.11648684273E+01  0.78163624169E+01 -0.12287937165E+02  0.15347176928E+02  0.47000000000E+01 0.  1.
<mgrwt>
<rscale>  2 0.91946963E+01</rscale>
<asrwt>0</asrwt>
<pdfrwt beam="1">  1       21 0.71409350E-03 0.91946963E+01</pdfrwt>
<pdfrwt beam="2">  1       21 0.31706511E-02 0.91946963E+01</pdfrwt>
<totfact> 0.13166637E+09</totfact>
</mgrwt>
</event>
<event>
 4    1  0.3900819E+006  0.2233777E+02  0.7546771E-02  0.1702475E+00
         21   -1    0    0  503  502  0.00000000000E+00  0.00000000000E+00  0.26792765063E+02  0.26792765063E+02  0.00000000000E+00 0.  1.
         21   -1    0    0  501  503 -0.00000000000E+00 -0.00000000000E+00 -0.19170487560E+02  0.19170487560E+02  0.00000000000E+00 0. -1.
          5    1    1    2  501    0 -0.19324387734E+02 -0.10171223849E+02 -0.70745625778E-01  0.22337877267E+02  0.47000000000E+01 0. -1.
         -5    1    1    2    0  502  0.19324387734E+02  0.10171223849E+02  0.76930231291E+01  0.23625375356E+02  0.47000000000E+01 0.  1.
<mgrwt>
<rscale>  2 0.22337765E+02</rscale>
<asrwt>0</asrwt>
<pdfrwt beam="1">  1       21 0.41219639E-02 0.22337765E+02</pdfrwt>
<pdfrwt beam="2">  1       21 0.29493058E-02 0.22337765E+02</pdfrwt>
<totfact> 0.15841284E+08</totfact>
</mgrwt>
</event>
<event>
 4    1  0.3900819E+006  0.5653377E+01  0.7546771E-02  0.2462845E+00
         21   -1    0    0  501  502  0.00000000000E+00  0.00000000000E+00  0.71188825476E+02  0.71188825476E+02  0.00000000000E+00 0. -1.
         21   -1    0    0  502  503 -0.00000000000E+00 -0.00000000000E+00 -0.98438301196E+00  0.98438301196E+00  0.00000000000E+00 0. -1.
          5    1    1    2  501    0 -0.41350154731E+00 -0.31144320579E+01  0.61716456090E+02  0.61974846695E+02  0.47000000000E+01 0. -1.
         -5    1    1    2    0  503  0.41350154731E+00  0.31144320579E+01  0.84879863743E+01  0.10198361793E+02  0.47000000000E+01 0. -1.
<mgrwt>
<rscale>  2 0.56533769E+01</rscale>
<asrwt>0</asrwt>
<pdfrwt beam="1">  1       21 0.10952123E-01 0.56533769E+01</pdfrwt>
<pdfrwt beam="2">  1       21 0.15144360E-03 0.56533769E+01</pdfrwt>
<totfact> 0.12236757E+09</totfact>
</mgrwt>
</event>
<event>
 4    1  0.3900819E+006  0.8577470E+01  0.7546771E-02  0.2166311E+00
         21   -1    0    0  501  502  0.00000000000E+00  0.00000000000E+00  0.17350488169E+02  0.17350488169E+02  0.00000000000E+00 0.  1.
         21   -1    0    0  502  503 -0.00000000000E+00 -0.00000000000E+00 -0.90184801579E+01  0.90184801579E+01  0.00000000000E+00 0.  1.
          5    1    1    2  501    0  0.55884232573E+01  0.45002797032E+01  0.13762732960E+02  0.16216837251E+02  0.47000000000E+01 0.  1.
         -5    1    1    2    0  503 -0.55884232573E+01 -0.45002797032E+01 -0.54307249487E+01  0.10152131076E+02  0.47000000000E+01 0.  1.
<mgrwt>
<rscale>  2 0.85774700E+01</rscale>
<asrwt>0</asrwt>
<pdfrwt beam="1">  1       21 0.26693059E-02 0.85774700E+01</pdfrwt>
<pdfrwt beam="2">  1       21 0.13874585E-02 0.85774700E+01</pdfrwt>
<totfact> 0.62473003E+08</totfact>
</mgrwt>
</event>
<event>
 4    1  0.3900819E+006  0.7985183E+01  0.7546771E-02  0.2211819E+00
         21   -1    0    0  501  502  0.00000000000E+00  0.00000000000E+00  0.38876591463E+00  0.38876591463E+00  0.00000000000E+00 0.  1.
         21   -1    0    0  502  503 -0.00000000000E+00 -0.00000000000E+00 -0.16465045799E+03  0.16465045799E+03  0.00000000000E+00 0.  1.
          5    1    1    2  501    0  0.29094963673E+00  0.64489137949E+01 -0.87260443019E+02  0.87625042406E+02  0.47000000000E+01 0.  1.
         -5    1    1    2    0  503 -0.29094963673E+00 -0.64489137949E+01 -0.77001249059E+02  0.77414181501E+02  0.47000000000E+01 0.  1.
<mgrwt>
<rscale>  2 0.79851826E+01</rscale>
<asrwt>0</asrwt>
<pdfrwt beam="1">  1       21 0.59810068E-04 0.79851826E+01</pdfrwt>
<pdfrwt beam="2">  1       21 0.25330871E-01 0.79851826E+01</pdfrwt>
<totfact> 0.14415255E+09</totfact>
</mgrwt>
</event>
<event>
 4    1  0.3900819E+006  0.9915901E+01  0.7546771E-02  0.2079806E+00
         21   -1    0    0  503  502  0.00000000000E+00  0.00000000000E+00  0.37653657744E+02  0.37653657744E+02  0.00000000000E+00 0. -1.
         21   -1    0    0  501  503 -0.00000000000E+00 -0.00000000000E+00 -0.26299462966E+01  0.26299462966E+01  0.00000000000E+00 0.  1.
          5    1    1    2  501    0  0.86777110205E+01  0.96562143206E+00  0.15815990930E+02  0.18667368920E+02  0.47000000000E+01 0.  1.
         -5    1    1    2    0  502 -0.86777110205E+01 -0.96562143206E+00  0.19207720518E+02  0.21616235121E+02  0.47000000000E+01 0. -1.
<mgrwt>
<rscale>  2 0.99159010E+01</rscale>
<asrwt>0</asrwt>
<pdfrwt beam="1">  1       21 0.57928700E-02 0.99159010E+01</pdfrwt>
<pdfrwt beam="2">  1       21 0.40460715E-03 0.99159010E+01</pdfrwt>
<totfact> 0.12422092E+09</totfact>
</mgrwt>
</event>
<event>
 4    1  0.3900819E+006  0.6840538E+01  0.7546771E-02  0.2317376E+00
         21   -1    0    0  501  502  0.00000000000E+00  0.00000000000E+00  0.79718524895E+00  0.79718524895E+00  0.00000000000E+00 0.  1.
         21   -1    0    0  502  503 -0.00000000000E+00 -0.00000000000E+00 -0.60396019387E+02  0.60396019387E+02  0.00000000000E+00 0. -1.
          5    1    1    2  501    0 -0.36758308860E+01  0.33453301279E+01 -0.24668741039E+02  0.25599604505E+02  0.47000000000E+01 0. -1.
         -5    1    1    2    0  503  0.36758308860E+01 -0.33453301279E+01 -0.34930093099E+02  0.35593600131E+02  0.47000000000E+01 0. -1.
<mgrwt>
<rscale>  2 0.68405385E+01</rscale>
<asrwt>0</asrwt>
<pdfrwt beam="1">  1       21 0.12264382E-03 0.68405385E+01</pdfrwt>
<pdfrwt beam="2">  1       21 0.92917000E-02 0.68405385E+01</pdfrwt>
<totfact> 0.24445374E+09</totfact>
</mgrwt>
</event>
<event>
 4    1  0.3900819E+006  0.4763034E+01  0.7546771E-02  0.2610990E+00
         21   -1    0    0  501  502  0.00000000000E+00  0.00000000000E+00  0.16230610255E+02  0.16230610255E+02  0.00000000000E+00 0. -1.
         21   -1    0    0  502  503 -0.00000000000E+00 -0.00000000000E+00 -0.14028589322E+01  0.14028589322E+01  0.00000000000E+00 0. -1.
          5    1    1    2  501    0 -0.43633572525E+00 -0.63726533520E+00  0.68823243973E+01  0.83697601568E+01  0.47000000000E+01 0. -1.
         -5    1    1    2    0  503  0.43633572525E+00  0.63726533520E+00  0.79454269259E+01  0.92637090308E+01  0.47000000000E+01 0. -1.
<mgrwt>
<rscale>  2 0.47630343E+01</rscale>
<asrwt>0</asrwt>
<pdfrwt beam="1">  1       21 0.24970168E-02 0.47630343E+01</pdfrwt>
<pdfrwt beam="2">  1       21 0.21582446E-03 0.47630343E+01</pdfrwt>
<totfact> 0.56689291E+09</totfact>
</mgrwt>
</event>
<event>
 4    1  0.3900819E+006  0.4840853E+01  0.7546771E-02  0.2596185E+00
         21   -1    0    0  501  502  0.00000000000E+00  0.00000000000E+00  0.15036202386E+02  0.15036202386E+02  0.00000000000E+00 0. -1.
         21   -1    0    0  502  503 -0.00000000000E+00 -0.00000000000E+00 -0.22828348637E+01  0.22828348637E+01  0.00000000000E+00 0. -1.
          5    1    1    2  501    0  0.52586056759E+00  0.10331144402E+01  0.11254523478E+02  0.12251455158E+02  0.47000000000E+01 0. -1.
         -5    1    1    2    0  503 -0.52586056759E+00 -0.10331144402E+01  0.14988440444E+01  0.50675820914E+01  0.47000000000E+01 0. -1.
<mgrwt>
<rscale>  2 0.48408527E+01</rscale>
<asrwt>0</asrwt>
<pdfrwt beam="1">  1       21 0.23132618E-02 0.48408527E+01</pdfrwt>
<pdfrwt beam="2">  1       21 0.35120537E-03 0.48408527E+01</pdfrwt>
<totfact> 0.33298840E+09</totfact>
</mgrwt>
</event>
<event>
 4    1  0.3900819E+006  0.5174096E+01  0.7546771E-02  0.2537166E+00
         21   -1    0    0  501  502  0.00000000000E+00  0.00000000000E+00  0.37218761396E+00  0.37218761396E+00  0.00000000000E+00 0. -1.
         21   -1    0    0  502  503 -0.00000000000E+00 -0.00000000000E+00 -0.92373970439E+02  0.92373970439E+02  0.00000000000E+00 0.  1.
          5    1    1    2  501    0 -0.15333189334E+01  0.15265000001E+01 -0.24184694059E+02  0.24731977194E+02  0.47000000000E+01 0. -1.
         -5    1    1    2    0  503  0.15333189334E+01 -0.15265000001E+01 -0.67817088766E+02  0.68014180859E+02  0.47000000000E+01 0.  1.
<mgrwt>
<rscale>  2 0.51740960E+01</rscale>
<asrwt>0</asrwt>
<pdfrwt beam="1">  1       21 0.57259574E-04 0.51740960E+01</pdfrwt>
<pdfrwt beam="2">  1       21 0.14211395E-01 0.51740960E+01</pdfrwt>
<totfact> 0.27714246E+09</totfact>
</mgrwt>
</event>
<event>
 4    1  0.3900819E+006  0.7917519E+01  0.7546771E-02  0.2217364E+00
         21   -1    0    0  503  502  0.00000000000E+00  0.00000000000E+00  0.28290974049E+01  0.28290974049E+01  0.00000000000E+00 0.  1.
         21   -1    0    0  501  503 -0.00000000000E+00 -0.00000000000E+00 -0.41173483274E+03  0.41173483274E+03  0.00000000000E+00 0. -1.
          5    1    1    2  501    0 -0.54953072638E+01  0.32247031829E+01 -0.40608014189E+03  0.40615732020E+03  0.47000000000E+01 0. -1.
         -5    1    1    2    0  502  0.54953072638E+01 -0.32247031829E+01 -0.28255934494E+01  0.84066099518E+01  0.47000000000E+01 0.  1.
<mgrwt>
<rscale>  2 0.79175193E+01</rscale>
<asrwt>0</asrwt>
<pdfrwt beam="1">  1       21 0.43524594E-03 0.79175193E+01</pdfrwt>
<pdfrwt beam="2">  1       21 0.63343793E-01 0.79175193E+01</pdfrwt>
<totfact> 0.18127255E+07</totfact>
</mgrwt>
</event>
<event>
 4    1  0.3900819E+006  0.6760718E+01  0.7546771E-02  0.2325815E+00
         21   -1    0    0  501  502  0.00000000000E+00  0.00000000000E+00  0.22948719605E+01  0.22948719605E+01  0.00000000000E+00 0.  1.
         21   -1    0    0  502  503 -0.00000000000E+00 -0.00000000000E+00 -0.27893362029E+02  0.27893362029E+02  0.00000000000E+00 0.  1.
          5    1    1    2  501    0  0.36357672228E+01  0.32246718279E+01 -0.47277200758E+01  0.82497665913E+01  0.47000000000E+01 0.  1.
         -5    1    1    2    0  503 -0.36357672228E+01 -0.32246718279E+01 -0.20870769993E+02  0.21938467398E+02  0.47000000000E+01 0.  1.
<mgrwt>
<rscale>  2 0.67607183E+01</rscale>
<asrwt>0</asrwt>
<pdfrwt beam="1">  1       21 0.35305725E-03 0.67607183E+01</pdfrwt>
<pdfrwt beam="2">  1       21 0.42912861E-02 0.67607183E+01</pdfrwt>
<totfact> 0.18257587E+09</totfact>
</mgrwt>
</event>
<event>
 4    1  0.3900819E+006  0.6255830E+01  0.7546771E-02  0.2383271E+00
         21   -1    0    0  501  502  0.00000000000E+00  0.00000000000E+00  0.78288956026E+02  0.78288956026E+02  0.00000000000E+00 0. -1.
         21   -1    0    0  502  503 -0.00000000000E+00 -0.00000000000E+00 -0.21909711299E+01  0.21909711299E+01  0.00000000000E+00 0. -1.
          5    1    1    2  501    0  0.20799812437E+01 -0.35663823709E+01  0.73401663266E+02  0.73667764833E+02  0.47000000000E+01 0. -1.
         -5    1    1    2    0  503 -0.20799812437E+01  0.35663823709E+01  0.26963216302E+01  0.68121623236E+01  0.47000000000E+01 0. -1.
<mgrwt>
<rscale>  2 0.62558297E+01</rscale>
<asrwt>0</asrwt>
<pdfrwt beam="1">  1       21 0.12044453E-01 0.62558297E+01</pdfrwt>
<pdfrwt beam="2">  1       21 0.33707254E-03 0.62558297E+01</pdfrwt>
<totfact> 0.38347463E+08</totfact>
</mgrwt>
</event>
<event>
 4    1  0.3900819E+006  0.5349278E+01  0.7546771E-02  0.2508688E+00
         21   -1    0    0  503  502  0.00000000000E+00  0.00000000000E+00  0.19322185443E+02  0.19322185443E+02  0.00000000000E+00 0. -1.
         21   -1    0    0  501  503 -0.00000000000E+00 -0.00000000000E+00 -0.15469186615E+01  0.15469186615E+01  0.00000000000E+00 0. -1.
          5    1    1    2  501    0 -0.19787420605E+01  0.16153514023E+01  0.67324770413E+01  0.85988968715E+01  0.47000000000E+01 0. -1.
         -5    1    1    2    0  502  0.19787420605E+01 -0.16153514023E+01  0.11042789740E+02  0.12270207233E+02  0.47000000000E+01 0. -1.
<mgrwt>
<rscale>  2 0.53492785E+01</rscale>
<asrwt>0</asrwt>
<pdfrwt beam="1">  1       21 0.29726437E-02 0.53492785E+01</pdfrwt>
<pdfrwt beam="2">  1       21 0.23798750E-03 0.53492785E+01</pdfrwt>
<totfact> 0.43728248E+09</totfact>
</mgrwt>
</event>
<event>
 4    1  0.3900819E+006  0.5819358E+01  0.7546771E-02  0.2439544E+00
         21   -1    0    0  503  502  0.00000000000E+00  0.00000000000E+00  0.13679910513E+01  0.13679910513E+01  0.00000000000E+00 0. -1.
         21   -1    0    0  501  503 -0.00000000000E+00 -0.00000000000E+00 -0.25059292576E+02  0.25059292576E+02  0.00000000000E+00 0. -1.
          5    1    1    2  501    0  0.30645722340E+01  0.15438009802E+01 -0.13301190741E+02  0.14518491642E+02  0.47000000000E+01 0.  1.
         -5    1    1    2    0  502 -0.30645722340E+01 -0.15438009802E+01 -0.10390110784E+02  0.11908791986E+02  0.47000000000E+01 0.  1.
<mgrwt>
<rscale>  2 0.58193577E+01</rscale>
<asrwt>0</asrwt>
<pdfrwt beam="1">  1       21 0.21046019E-03 0.58193577E+01</pdfrwt>
<pdfrwt beam="2">  1       21 0.38552753E-02 0.58193577E+01</pdfrwt>
<totfact> 0.38347221E+09</totfact>
</mgrwt>
</event>
<event>
 4    1  0.3900819E+006  0.5332502E+01  0.7546771E-02  0.2511346E+00
         21   -1    0    0  501  502  0.00000000000E+00  0.00000000000E+00  0.33202488496E+03  0.33202488496E+03  0.00000000000E+00 0. -1.
         21   -1    0    0  502  503 -0.00000000000E+00 -0.00000000000E+00 -0.24689894333E+00  0.24689894333E+00  0.00000000000E+00 0.  1.
          5    1    1    2  501    0  0.15076797756E+01 -0.20180373323E+01  0.30015369609E+03  0.30020106071E+03  0.47000000000E+01 0. -1.
         -5    1    1    2    0  503 -0.15076797756E+01  0.20180373323E+01  0.31624289922E+02  0.32070723192E+02  0.47000000000E+01 0.  1.
<mgrwt>
<rscale>  2 0.53325016E+01</rscale>
<asrwt>0</asrwt>
<pdfrwt beam="1">  1       21 0.51080394E-01 0.53325016E+01</pdfrwt>
<pdfrwt beam="2">  1       21 0.37984718E-04 0.53325016E+01</pdfrwt>
<totfact> 0.59095619E+08</totfact>
</mgrwt>
</event>
<event>
 4    1  0.3900819E+006  0.1103811E+02  0.7546771E-02  0.2020314E+00
         21   -1    0    0  503  502  0.00000000000E+00  0.00000000000E+00  0.58357614744E+01  0.58357614744E+01  0.00000000000E+00 0.  1.
         21   -1    0    0  501  503 -0.00000000000E+00 -0.00000000000E+00 -0.21775083371E+02  0.21775083371E+02  0.00000000000E+00 0. -1.
          5    1    1    2  501    0 -0.77085390853E+01  0.63504482950E+01 -0.51677425660E+01  0.12187917443E+02  0.47000000000E+01 0. -1.
         -5    1    1    2    0  502  0.77085390853E+01 -0.63504482950E+01 -0.10771579331E+02  0.15422927402E+02  0.47000000000E+01 0. -1.
<mgrwt>
<rscale>  2 0.11038105E+02</rscale>
<asrwt>0</asrwt>
<pdfrwt beam="1">  1       21 0.89780946E-03 0.11038105E+02</pdfrwt>
<pdfrwt beam="2">  1       21 0.33500128E-02 0.11038105E+02</pdfrwt>
<totfact> 0.96965567E+08</totfact>
</mgrwt>
</event>
<event>
 4    1  0.3900819E+006  0.5515597E+01  0.7546771E-02  0.2483084E+00
         21   -1    0    0  501  502  0.00000000000E+00  0.00000000000E+00  0.17504881130E+03  0.17504881130E+03  0.00000000000E+00 0.  1.
         21   -1    0    0  502  503 -0.00000000000E+00 -0.00000000000E+00 -0.23278596679E+00  0.23278596679E+00  0.00000000000E+00 0. -1.
          5    1    1    2  501    0  0.86072065150E+00  0.27551718506E+01  0.13152820811E+03  0.13164380479E+03  0.47000000000E+01 0.  1.
         -5    1    1    2    0  503 -0.86072065150E+00 -0.27551718506E+01  0.43287817226E+02  0.43637792476E+02  0.47000000000E+01 0. -1.
<mgrwt>
<rscale>  2 0.55155972E+01</rscale>
<asrwt>0</asrwt>
<pdfrwt beam="1">  1       21 0.26930481E-01 0.55155972E+01</pdfrwt>
<pdfrwt beam="2">  1       21 0.35813366E-04 0.55155972E+01</pdfrwt>
<totfact> 0.19710396E+09</totfact>
</mgrwt>
</event>
<event>
 4    1  0.3900819E+006  0.8980160E+01  0.7546771E-02  0.2138142E+00
         21   -1    0    0  503  502  0.00000000000E+00  0.00000000000E+00  0.24177109264E+02  0.24177109264E+02  0.00000000000E+00 0. -1.
         21   -1    0    0  501  503 -0.00000000000E+00 -0.00000000000E+00 -0.35050751111E+01  0.35050751111E+01  0.00000000000E+00 0.  1.
          5    1    1    2  501    0  0.69747289497E+01 -0.31474493297E+01  0.13380226363E+02  0.16114395388E+02  0.47000000000E+01 0. -1.
         -5    1    1    2    0  502 -0.69747289497E+01  0.31474493297E+01  0.72918077907E+01  0.11567788988E+02  0.47000000000E+01 0.  1.
<mgrwt>
<rscale>  2 0.89801604E+01</rscale>
<asrwt>0</asrwt>
<pdfrwt beam="1">  1       21 0.37195552E-02 0.89801604E+01</pdfrwt>
<pdfrwt beam="2">  1       21 0.53924234E-03 0.89801604E+01</pdfrwt>
<totfact> 0.15241901E+09</totfact>
</mgrwt>
</event>
<event>
 4    1  0.3900819E+006  0.8426066E+01  0.7546771E-02  0.2177455E+00
         21   -1    0    0  503  502  0.00000000000E+00  0.00000000000E+00  0.29890182608E+03  0.29890182608E+03  0.00000000000E+00 0.  1.
         21   -1    0    0  501  503 -0.00000000000E+00 -0.00000000000E+00 -0.24606946903E+00  0.24606946903E+00  0.00000000000E+00 0.  1.
          5    1    1    2  501    0 -0.24252657518E+01 -0.65594723783E+01  0.12146634616E+03  0.12175825164E+03  0.47000000000E+01 0.  1.
         -5    1    1    2    0  502  0.24252657518E+01  0.65594723783E+01  0.17718941045E+03  0.17738964391E+03  0.47000000000E+01 0.  1.
<mgrwt>
<rscale>  2 0.84260662E+01</rscale>
<asrwt>0</asrwt>
<pdfrwt beam="1">  1       21 0.45984606E-01 0.84260662E+01</pdfrwt>
<pdfrwt beam="2">  1       21 0.37857081E-04 0.84260662E+01</pdfrwt>
<totfact> 0.97562483E+08</totfact>
</mgrwt>
</event>
<event>
 4    1  0.3900819E+006  0.9549696E+01  0.7546771E-02  0.2101559E+00
         21   -1    0    0  503  502  0.00000000000E+00  0.00000000000E+00  0.15708136169E+00  0.15708136169E+00  0.00000000000E+00 0. -1.
         21   -1    0    0  501  503 -0.00000000000E+00 -0.00000000000E+00 -0.10608605341E+04  0.10608605341E+04  0.00000000000E+00 0.  1.
          5    1    1    2  501    0 -0.20378116803E+00 -0.83105455631E+01 -0.88730844229E+03  0.88735983032E+03  0.47000000000E+01 0.  1.
         -5    1    1    2    0  502  0.20378116803E+00  0.83105455631E+01 -0.17339501045E+03  0.17365778515E+03  0.47000000000E+01 0. -1.
<mgrwt>
<rscale>  2 0.95496960E+01</rscale>
<asrwt>0</asrwt>
<pdfrwt beam="1">  1       21 0.24167128E-04 0.95496960E+01</pdfrwt>
<pdfrwt beam="2">  1       21 0.16320415E+00 0.95496960E+01</pdfrwt>
<totfact> 0.14567206E+08</totfact>
</mgrwt>
</event>
<event>
 4    1  0.3900819E+006  0.4786633E+01  0.7546771E-02  0.2606456E+00
         21   -1    0    0  501  502  0.00000000000E+00  0.00000000000E+00  0.30317823341E+02  0.30317823341E+02  0.00000000000E+00 0. -1.
         21   -1    0    0  502  503 -0.00000000000E+00 -0.00000000000E+00 -0.76233888108E+00  0.76233888108E+00  0.00000000000E+00 0. -1.
          5    1    1    2  501    0 -0.86781063182E+00 -0.26223057236E+00  0.16225482568E+02  0.16916800664E+02  0.47000000000E+01 0. -1.
         -5    1    1    2    0  503  0.86781063182E+00  0.26223057236E+00  0.13330001892E+02  0.14163361558E+02  0.47000000000E+01 0. -1.
<mgrwt>
<rscale>  2 0.47866335E+01</rscale>
<asrwt>0</asrwt>
<pdfrwt beam="1">  1       21 0.46642796E-02 0.47866335E+01</pdfrwt>
<pdfrwt beam="2">  1       21 0.11728293E-03 0.47866335E+01</pdfrwt>
<totfact> 0.52441285E+09</totfact>
</mgrwt>
</event>
<event>
 4    1  0.3900819E+006  0.5666845E+01  0.7546771E-02  0.2460912E+00
         21   -1    0    0  503  502  0.00000000000E+00  0.00000000000E+00  0.10857307008E+02  0.10857307008E+02  0.00000000000E+00 0.  1.
         21   -1    0    0  501  503 -0.00000000000E+00 -0.00000000000E+00 -0.39530833324E+01  0.39530833324E+01  0.00000000000E+00 0. -1.
          5    1    1    2  501    0  0.24488940833E+01 -0.20065008201E+01 -0.26370455164E+00  0.56729769842E+01  0.47000000000E+01 0. -1.
         -5    1    1    2    0  502 -0.24488940833E+01  0.20065008201E+01  0.71679282270E+01  0.91374133561E+01  0.47000000000E+01 0.  1.
<mgrwt>
<rscale>  2 0.56668446E+01</rscale>
<asrwt>0</asrwt>
<pdfrwt beam="1">  1       21 0.16703549E-02 0.56668446E+01</pdfrwt>
<pdfrwt beam="2">  1       21 0.60816667E-03 0.56668446E+01</pdfrwt>
<totfact> 0.29071605E+09</totfact>
</mgrwt>
</event>
<event>
 4    1  0.3900819E+006  0.6748886E+01  0.7546771E-02  0.2327080E+00
         21   -1    0    0  503  502  0.00000000000E+00  0.00000000000E+00  0.12775557859E+01  0.12775557859E+01  0.00000000000E+00 0. -1.
         21   -1    0    0  501  503 -0.00000000000E+00 -0.00000000000E+00 -0.39859835851E+02  0.39859835851E+02  0.00000000000E+00 0. -1.
          5    1    1    2  501    0 -0.20497716086E+01  0.43881542380E+01 -0.25974066541E+02  0.26836534686E+02  0.47000000000E+01 0.  1.
         -5    1    1    2    0  502  0.20497716086E+01 -0.43881542380E+01 -0.12608213524E+02  0.14300856951E+02  0.47000000000E+01 0.  1.
<mgrwt>
<rscale>  2 0.67488859E+01</rscale>
<asrwt>0</asrwt>
<pdfrwt beam="1">  1       21 0.19654707E-03 0.67488859E+01</pdfrwt>
<pdfrwt beam="2">  1       21 0.61322816E-02 0.67488859E+01</pdfrwt>
<totfact> 0.23965106E+09</totfact>
</mgrwt>
</event>
<event>
 4    1  0.3900819E+006  0.5051500E+01  0.7546771E-02  0.2558098E+00
         21   -1    0    0  501  502  0.00000000000E+00  0.00000000000E+00  0.39256391159E+00  0.39256391159E+00  0.00000000000E+00 0. -1.
         21   -1    0    0  502  503 -0.00000000000E+00 -0.00000000000E+00 -0.76946133763E+02  0.76946133763E+02  0.00000000000E+00 0. -1.
          5    1    1    2  501    0 -0.13473034009E+01 -0.12698125929E+01 -0.23041835731E+02  0.23589061964E+02  0.47000000000E+01 0. -1.
         -5    1    1    2    0  503  0.13473034009E+01  0.12698125929E+01 -0.53511734120E+02  0.53749635711E+02  0.47000000000E+01 0. -1.
<mgrwt>
<rscale>  2 0.50514998E+01</rscale>
<asrwt>0</asrwt>
<pdfrwt beam="1">  1       21 0.60394461E-04 0.50514998E+01</pdfrwt>
<pdfrwt beam="2">  1       21 0.11837864E-01 0.50514998E+01</pdfrwt>
<totfact> 0.33435413E+09</totfact>
</mgrwt>
</event>
<event>
 4    1  0.3900819E+006  0.6799757E+01  0.7546771E-02  0.2321667E+00
         21   -1    0    0  501  502  0.00000000000E+00  0.00000000000E+00  0.59422460731E+01  0.59422460731E+01  0.00000000000E+00 0.  1.
         21   -1    0    0  502  503 -0.00000000000E+00 -0.00000000000E+00 -0.11609201255E+02  0.11609201255E+02  0.00000000000E+00 0. -1.
          5    1    1    2  501    0  0.49098203007E+01 -0.20090326151E+00  0.22059171523E+01  0.71486200059E+01  0.47000000000E+01 0.  1.
         -5    1    1    2    0  503 -0.49098203007E+01  0.20090326151E+00 -0.78728723343E+01  0.10402827322E+02  0.47000000000E+01 0. -1.
<mgrwt>
<rscale>  2 0.67997572E+01</rscale>
<asrwt>0</asrwt>
<pdfrwt beam="1">  1       21 0.91419171E-03 0.67997572E+01</pdfrwt>
<pdfrwt beam="2">  1       21 0.17860310E-02 0.67997572E+01</pdfrwt>
<totfact> 0.17398729E+09</totfact>
</mgrwt>
</event>
<event>
 4    1  0.3900819E+006  0.7165850E+01  0.7546771E-02  0.2284591E+00
         21   -1    0    0  503  502  0.00000000000E+00  0.00000000000E+00  0.43787620816E+02  0.43787620816E+02  0.00000000000E+00 0. -1.
         21   -1    0    0  501  503 -0.00000000000E+00 -0.00000000000E+00 -0.12548864675E+01  0.12548864675E+01  0.00000000000E+00 0. -1.
          5    1    1    2  501    0  0.27315646136E+00  0.54022952159E+01  0.15502543234E+02  0.17078590538E+02  0.47000000000E+01 0. -1.
         -5    1    1    2    0  502 -0.27315646136E+00 -0.54022952159E+01  0.27030191114E+02  0.27963916745E+02  0.47000000000E+01 0. -1.
<mgrwt>
<rscale>  2 0.71658501E+01</rscale>
<asrwt>0</asrwt>
<pdfrwt beam="1">  1       21 0.67365559E-02 0.71658501E+01</pdfrwt>
<pdfrwt beam="2">  1       21 0.19305949E-03 0.71658501E+01</pdfrwt>
<totfact> 0.22303089E+09</totfact>
</mgrwt>
</event>
<event>
 4    1  0.3900819E+006  0.6905440E+01  0.7546771E-02  0.2310634E+00
         21   -1    0    0  503  502  0.00000000000E+00  0.00000000000E+00  0.27447955639E+02  0.27447955639E+02  0.00000000000E+00 0.  1.
         21   -1    0    0  501  503 -0.00000000000E+00 -0.00000000000E+00 -0.20175913268E+01  0.20175913268E+01  0.00000000000E+00 0.  1.
          5    1    1    2  501    0  0.36807559376E+01 -0.34708994028E+01  0.72238320932E+01  0.99934407012E+01  0.47000000000E+01 0.  1.
         -5    1    1    2    0  502 -0.36807559376E+01  0.34708994028E+01  0.18206532219E+02  0.19472106264E+02  0.47000000000E+01 0.  1.
<mgrwt>
<rscale>  2 0.69054404E+01</rscale>
<asrwt>0</asrwt>
<pdfrwt beam="1">  1       21 0.42227621E-02 0.69054404E+01</pdfrwt>
<pdfrwt beam="2">  1       21 0.31039869E-03 0.69054404E+01</pdfrwt>
<totfact> 0.22724075E+09</totfact>
</mgrwt>
</event>
<event>
 4    1  0.3900819E+006  0.4814145E+01  0.7546771E-02  0.2601219E+00
         21   -1    0    0  501  502  0.00000000000E+00  0.00000000000E+00  0.37686896082E+01  0.37686896082E+01  0.00000000000E+00 0. -1.
         21   -1    0    0  502  503 -0.00000000000E+00 -0.00000000000E+00 -0.62289473428E+01  0.62289473428E+01  0.00000000000E+00 0. -1.
          5    1    1    2  501    0 -0.45626908473E+00 -0.93691470719E+00 -0.66599157164E+00  0.48599933559E+01  0.47000000000E+01 0. -1.
         -5    1    1    2    0  503  0.45626908473E+00  0.93691470719E+00 -0.17942661630E+01  0.51376435951E+01  0.47000000000E+01 0. -1.
<mgrwt>
<rscale>  2 0.48141449E+01</rscale>
<asrwt>0</asrwt>
<pdfrwt beam="1">  1       21 0.57979841E-03 0.48141449E+01</pdfrwt>
<pdfrwt beam="2">  1       21 0.95829958E-03 0.48141449E+01</pdfrwt>
<totfact> 0.57497908E+09</totfact>
</mgrwt>
</event>
<event>
 4    1  0.3900819E+006  0.7841595E+01  0.7546771E-02  0.2223678E+00
         21   -1    0    0  503  502  0.00000000000E+00  0.00000000000E+00  0.32573221915E+00  0.32573221915E+00  0.00000000000E+00 0.  1.
         21   -1    0    0  501  503 -0.00000000000E+00 -0.00000000000E+00 -0.28062022784E+03  0.28062022784E+03  0.00000000000E+00 0.  1.
          5    1    1    2  501    0 -0.61723438001E+01 -0.11413981742E+01 -0.22051056344E+03  0.22064994722E+03  0.47000000000E+01 0.  1.
         -5    1    1    2    0  502  0.61723438001E+01  0.11413981742E+01 -0.59783932177E+02  0.60296012839E+02  0.47000000000E+01 0.  1.
<mgrwt>
<rscale>  2 0.78415954E+01</rscale>
<asrwt>0</asrwt>
<pdfrwt beam="1">  1       21 0.50112764E-04 0.78415954E+01</pdfrwt>
<pdfrwt beam="2">  1       21 0.43172244E-01 0.78415954E+01</pdfrwt>
<totfact> 0.71672522E+08</totfact>
</mgrwt>
</event>
<event>
 4    1  0.3900819E+006  0.5221348E+01  0.7546771E-02  0.2529324E+00
         21   -1    0    0  503  502  0.00000000000E+00  0.00000000000E+00  0.40322191600E+02  0.40322191600E+02  0.00000000000E+00 0.  1.
         21   -1    0    0  501  503 -0.00000000000E+00 -0.00000000000E+00 -0.18833877561E+01  0.18833877561E+01  0.00000000000E+00 0.  1.
          5    1    1    2  501    0  0.19539098102E+01 -0.11639200955E+01  0.23238437744E+01  0.57151310941E+01  0.47000000000E+01 0.  1.
         -5    1    1    2    0  502 -0.19539098102E+01  0.11639200955E+01  0.36114960069E+02  0.36490448262E+02  0.47000000000E+01 0.  1.
<mgrwt>
<rscale>  2 0.52213479E+01</rscale>
<asrwt>0</asrwt>
<pdfrwt beam="1">  1       21 0.62034134E-02 0.52213479E+01</pdfrwt>
<pdfrwt beam="2">  1       21 0.28975199E-03 0.52213479E+01</pdfrwt>
<totfact> 0.11170113E+09</totfact>
</mgrwt>
</event>
<event>
 4    1  0.3900819E+006  0.7761574E+01  0.7546771E-02  0.2230440E+00
         21   -1    0    0  501  502  0.00000000000E+00  0.00000000000E+00  0.22691497147E+02  0.22691497147E+02  0.00000000000E+00 0.  1.
         21   -1    0    0  502  503 -0.00000000000E+00 -0.00000000000E+00 -0.32011514060E+02  0.32011514060E+02  0.00000000000E+00 0. -1.
          5    1    1    2  501    0  0.44344622749E+01 -0.42997174279E+01  0.21532774424E+02  0.22888914348E+02  0.47000000000E+01 0.  1.
         -5    1    1    2    0  503 -0.44344622749E+01  0.42997174279E+01 -0.30852791337E+02  0.31814096858E+02  0.47000000000E+01 0. -1.
<mgrwt>
<rscale>  2 0.77615737E+01</rscale>
<asrwt>0</asrwt>
<pdfrwt beam="1">  1       21 0.34909996E-02 0.77615737E+01</pdfrwt>
<pdfrwt beam="2">  1       21 0.49248483E-02 0.77615737E+01</pdfrwt>
<totfact> 0.61016782E+07</totfact>
</mgrwt>
</event>
<event>
 4    1  0.3900819E+006  0.6809258E+01  0.7546771E-02  0.2320664E+00
         21   -1    0    0  501  502  0.00000000000E+00  0.00000000000E+00  0.31217971898E+03  0.31217971898E+03  0.00000000000E+00 0.  1.
         21   -1    0    0  502  503 -0.00000000000E+00 -0.00000000000E+00 -0.21206067673E+00  0.21206067673E+00  0.00000000000E+00 0.  1.
          5    1    1    2  501    0 -0.31971617881E+01 -0.37488864408E+01  0.24148141085E+03  0.24157739501E+03  0.47000000000E+01 0.  1.
         -5    1    1    2    0  503  0.31971617881E+01  0.37488864408E+01  0.70486247451E+02  0.70814384646E+02  0.47000000000E+01 0.  1.
<mgrwt>
<rscale>  2 0.68092579E+01</rscale>
<asrwt>0</asrwt>
<pdfrwt beam="1">  1       21 0.48027281E-01 0.68092579E+01</pdfrwt>
<pdfrwt beam="2">  1       21 0.32624969E-04 0.68092579E+01</pdfrwt>
<totfact> 0.96434985E+08</totfact>
</mgrwt>
</event>
<event>
 4    1  0.3900819E+006  0.1361231E+02  0.7546771E-02  0.1913625E+00
         21   -1    0    0  503  502  0.00000000000E+00  0.00000000000E+00  0.37862532157E+02  0.37862532157E+02  0.00000000000E+00 0. -1.
         21   -1    0    0  501  503 -0.00000000000E+00 -0.00000000000E+00 -0.49173226897E+01  0.49173226897E+01  0.00000000000E+00 0.  1.
          5    1    1    2  501    0 -0.37122936736E+01  0.12223903841E+02  0.17949279741E+02  0.22527130147E+02  0.47000000000E+01 0. -1.
         -5    1    1    2    0  502  0.37122936736E+01 -0.12223903841E+02  0.14995929727E+02  0.20252724700E+02  0.47000000000E+01 0.  1.
<mgrwt>
<rscale>  2 0.13612309E+02</rscale>
<asrwt>0</asrwt>
<pdfrwt beam="1">  1       21 0.58250048E-02 0.13612309E+02</pdfrwt>
<pdfrwt beam="2">  1       21 0.75651121E-03 0.13612309E+02</pdfrwt>
<totfact> 0.59040255E+08</totfact>
</mgrwt>
</event>
<event>
 4    1  0.3900819E+006  0.9675522E+01  0.7546771E-02  0.2093938E+00
         21   -1    0    0  501  502  0.00000000000E+00  0.00000000000E+00  0.54090634146E+01  0.54090634146E+01  0.00000000000E+00 0.  1.
         21   -1    0    0  502  503 -0.00000000000E+00 -0.00000000000E+00 -0.38830348647E+02  0.38830348647E+02  0.00000000000E+00 0. -1.
          5    1    1    2  501    0 -0.49252213181E+00 -0.84429347558E+01 -0.24242337276E+00  0.96785584894E+01  0.47000000000E+01 0.  1.
         -5    1    1    2    0  503  0.49252213181E+00  0.84429347558E+01 -0.33178861860E+02  0.34560853572E+02  0.47000000000E+01 0. -1.
<mgrwt>
<rscale>  2 0.96755220E+01</rscale>
<asrwt>0</asrwt>
<pdfrwt beam="1">  1       21 0.83216359E-03 0.96755220E+01</pdfrwt>
<pdfrwt beam="2">  1       21 0.59738998E-02 0.96755220E+01</pdfrwt>
<totfact> 0.41652001E+08</totfact>
</mgrwt>
</event>
<event>
 4    1  0.3900819E+006  0.5263027E+01  0.7546771E-02  0.2522507E+00
         21   -1    0    0  501  502  0.00000000000E+00  0.00000000000E+00  0.46349676258E+00  0.46349676258E+00  0.00000000000E+00 0. -1.
         21   -1    0    0  502  503 -0.00000000000E+00 -0.00000000000E+00 -0.60360883477E+02  0.60360883477E+02  0.00000000000E+00 0. -1.
          5    1    1    2  501    0  0.12051069767E+01  0.20389141691E+01 -0.26919185164E+02  0.27428853125E+02  0.47000000000E+01 0. -1.
         -5    1    1    2    0  503 -0.12051069767E+01 -0.20389141691E+01 -0.32978201550E+02  0.33395527115E+02  0.47000000000E+01 0. -1.
<mgrwt>
<rscale>  2 0.52630271E+01</rscale>
<asrwt>0</asrwt>
<pdfrwt beam="1">  1       21 0.71307250E-04 0.52630271E+01</pdfrwt>
<pdfrwt beam="2">  1       21 0.92862825E-02 0.52630271E+01</pdfrwt>
<totfact> 0.40397116E+09</totfact>
</mgrwt>
</event>
<event>
 4    1  0.3900819E+006  0.5972568E+01  0.7546771E-02  0.2419008E+00
         21   -1    0    0  501  502  0.00000000000E+00  0.00000000000E+00  0.19194456146E+01  0.19194456146E+01  0.00000000000E+00 0. -1.
         21   -1    0    0  502  503 -0.00000000000E+00 -0.00000000000E+00 -0.19253338936E+02  0.19253338936E+02  0.00000000000E+00 0. -1.
          5    1    1    2  501    0  0.34488065277E+01 -0.12989611372E+01 -0.66935318153E+01  0.89707822771E+01  0.47000000000E+01 0. -1.
         -5    1    1    2    0  503 -0.34488065277E+01  0.12989611372E+01 -0.10640361506E+02  0.12202002274E+02  0.47000000000E+01 0. -1.
<mgrwt>
<rscale>  2 0.59725678E+01</rscale>
<asrwt>0</asrwt>
<pdfrwt beam="1">  1       21 0.29529933E-03 0.59725678E+01</pdfrwt>
<pdfrwt beam="2">  1       21 0.29620521E-02 0.59725678E+01</pdfrwt>
<totfact> 0.36295470E+09</totfact>
</mgrwt>
</event>
<event>
 4    1  0.3900819E+006  0.6887995E+01  0.7546771E-02  0.2312436E+00
         21   -1    0    0  503  502  0.00000000000E+00  0.00000000000E+00  0.32597206951E+01  0.32597206951E+01  0.00000000000E+00 0. -1.
         21   -1    0    0  501  503 -0.00000000000E+00 -0.00000000000E+00 -0.15725533493E+02  0.15725533493E+02  0.00000000000E+00 0.  1.
          5    1    1    2  501    0  0.31224478153E+01 -0.39502909284E+01 -0.88230191231E+01  0.11193308056E+02  0.47000000000E+01 0.  1.
         -5    1    1    2    0  502 -0.31224478153E+01  0.39502909284E+01 -0.36427936752E+01  0.77919461329E+01  0.47000000000E+01 0. -1.
<mgrwt>
<rscale>  2 0.68879953E+01</rscale>
<asrwt>0</asrwt>
<pdfrwt beam="1">  1       21 0.50149550E-03 0.68879953E+01</pdfrwt>
<pdfrwt beam="2">  1       21 0.24193128E-02 0.68879953E+01</pdfrwt>
<totfact> 0.26381773E+09</totfact>
</mgrwt>
</event>
<event>
 4    1  0.3900819E+006  0.1592128E+02  0.7546771E-02  0.1841191E+00
         21   -1    0    0  503  502  0.00000000000E+00  0.00000000000E+00  0.35105906111E+01  0.35105906111E+01  0.00000000000E+00 0.  1.
         21   -1    0    0  501  503 -0.00000000000E+00 -0.00000000000E+00 -0.20611743778E+03  0.20611743778E+03  0.00000000000E+00 0. -1.
          5    1    1    2  501    0  0.14206251522E+02 -0.54387153280E+01 -0.18578657965E+03  0.18646753172E+03  0.47000000000E+01 0. -1.
         -5    1    1    2    0  502 -0.14206251522E+02  0.54387153280E+01 -0.16820267515E+02  0.23160496669E+02  0.47000000000E+01 0.  1.
<mgrwt>
<rscale>  2 0.15921282E+02</rscale>
<asrwt>0</asrwt>
<pdfrwt beam="1">  1       21 0.54009072E-03 0.15921282E+02</pdfrwt>
<pdfrwt beam="2">  1       21 0.31710383E-01 0.15921282E+02</pdfrwt>
<totfact> 0.61093395E+07</totfact>
</mgrwt>
</event>
<event>
 4    1  0.3900819E+006  0.7838682E+01  0.7546771E-02  0.2223922E+00
         21   -1    0    0  501  502  0.00000000000E+00  0.00000000000E+00  0.95190103398E+00  0.95190103398E+00  0.00000000000E+00 0. -1.
         21   -1    0    0  502  503 -0.00000000000E+00 -0.00000000000E+00 -0.78705048947E+02  0.78705048947E+02  0.00000000000E+00 0.  1.
          5    1    1    2  501    0 -0.62564776625E+01  0.45981538177E+00 -0.21985689114E+02  0.23341282500E+02  0.47000000000E+01 0. -1.
         -5    1    1    2    0  503  0.62564776625E+01 -0.45981538177E+00 -0.55767458799E+02  0.56315667481E+02  0.47000000000E+01 0.  1.
<mgrwt>
<rscale>  2 0.78386825E+01</rscale>
<asrwt>0</asrwt>
<pdfrwt beam="1">  1       21 0.14644631E-03 0.78386825E+01</pdfrwt>
<pdfrwt beam="2">  1       21 0.12108469E-01 0.78386825E+01</pdfrwt>
<totfact> 0.14002114E+09</totfact>
</mgrwt>
</event>
<event>
 4    1  0.3900819E+006  0.6635726E+01  0.7546771E-02  0.2339363E+00
         21   -1    0    0  501  502  0.00000000000E+00  0.00000000000E+00  0.13594178167E+01  0.13594178167E+01  0.00000000000E+00 0. -1.
         21   -1    0    0  502  503 -0.00000000000E+00 -0.00000000000E+00 -0.79335581626E+02  0.79335581626E+02  0.00000000000E+00 0.  1.
          5    1    1    2  501    0 -0.11895323975E+01  0.45307698310E+01 -0.79513850352E+01  0.10356514209E+02  0.47000000000E+01 0. -1.
         -5    1    1    2    0  503  0.11895323975E+01 -0.45307698310E+01 -0.70024778775E+02  0.70338485234E+02  0.47000000000E+01 0.  1.
<mgrwt>
<rscale>  2 0.66357262E+01</rscale>
<asrwt>0</asrwt>
<pdfrwt beam="1">  1       21 0.20914110E-03 0.66357262E+01</pdfrwt>
<pdfrwt beam="2">  1       21 0.12205480E-01 0.66357262E+01</pdfrwt>
<totfact> 0.75544843E+08</totfact>
</mgrwt>
</event>
<event>
 4    1  0.3900819E+006  0.5795230E+01  0.7546771E-02  0.2442862E+00
         21   -1    0    0  503  502  0.00000000000E+00  0.00000000000E+00  0.17911845753E+03  0.17911845753E+03  0.00000000000E+00 0. -1.
         21   -1    0    0  501  503 -0.00000000000E+00 -0.00000000000E+00 -0.23663929138E+00  0.23663929138E+00  0.00000000000E+00 0. -1.
          5    1    1    2  501    0  0.23785772585E+01 -0.24160002821E+01  0.48575549310E+02  0.48920023282E+02  0.47000000000E+01 0. -1.
         -5    1    1    2    0  502 -0.23785772585E+01  0.24160002821E+01  0.13030626893E+03  0.13043507354E+03  0.47000000000E+01 0. -1.
<mgrwt>
<rscale>  2 0.57952297E+01</rscale>
<asrwt>0</asrwt>
<pdfrwt beam="1">  1       21 0.27556577E-01 0.57952297E+01</pdfrwt>
<pdfrwt beam="2">  1       21 0.36406188E-04 0.57952297E+01</pdfrwt>
<totfact> 0.19338490E+09</totfact>
</mgrwt>
</event>
<event>
 4    1  0.3900819E+006  0.5736934E+01  0.7546771E-02  0.2450973E+00
         21   -1    0    0  501  502  0.00000000000E+00  0.00000000000E+00  0.20390657916E+01  0.20390657916E+01  0.00000000000E+00 0.  1.
         21   -1    0    0  502  503 -0.00000000000E+00 -0.00000000000E+00 -0.20112227645E+02  0.20112227645E+02  0.00000000000E+00 0.  1.
          5    1    1    2  501    0  0.35556701096E+00  0.32704717460E+01 -0.13958170074E+02  0.15091153871E+02  0.47000000000E+01 0.  1.
         -5    1    1    2    0  503 -0.35556701096E+00 -0.32704717460E+01 -0.41149917790E+01  0.70601395653E+01  0.47000000000E+01 0.  1.
<mgrwt>
<rscale>  2 0.57369341E+01</rscale>
<asrwt>0</asrwt>
<pdfrwt beam="1">  1       21 0.31370242E-03 0.57369341E+01</pdfrwt>
<pdfrwt beam="2">  1       21 0.30941890E-02 0.57369341E+01</pdfrwt>
<totfact> 0.30240349E+09</totfact>
</mgrwt>
</event>
<event>
 4    1  0.3900819E+006  0.6369928E+01  0.7546771E-02  0.2369628E+00
         21   -1    0    0  501  502  0.00000000000E+00  0.00000000000E+00  0.15401344840E+02  0.15401344840E+02  0.00000000000E+00 0.  1.
         21   -1    0    0  502  503 -0.00000000000E+00 -0.00000000000E+00 -0.35743561716E+01  0.35743561716E+01  0.00000000000E+00 0.  1.
          5    1    1    2  501    0 -0.42104031617E+01 -0.87091345062E+00  0.10484983527E+01  0.64556435634E+01  0.47000000000E+01 0.  1.
         -5    1    1    2    0  503  0.42104031617E+01  0.87091345062E+00  0.10778490316E+02  0.12520057448E+02  0.47000000000E+01 0.  1.
<mgrwt>
<rscale>  2 0.63699282E+01</rscale>
<asrwt>0</asrwt>
<pdfrwt beam="1">  1       21 0.23694376E-02 0.63699282E+01</pdfrwt>
<pdfrwt beam="2">  1       21 0.54990096E-03 0.63699282E+01</pdfrwt>
<totfact> 0.22434010E+09</totfact>
</mgrwt>
</event>
<event>
 4    1  0.3900819E+006  0.6013004E+01  0.7546771E-02  0.2413734E+00
         21   -1    0    0  501  502  0.00000000000E+00  0.00000000000E+00  0.34949087072E+00  0.34949087072E+00  0.00000000000E+00 0.  1.
         21   -1    0    0  502  503 -0.00000000000E+00 -0.00000000000E+00 -0.13091346724E+03  0.13091346724E+03  0.00000000000E+00 0.  1.
          5    1    1    2  501    0  0.30682396488E+01  0.21568766712E+01 -0.35223546103E+02  0.35733099664E+02  0.47000000000E+01 0.  1.
         -5    1    1    2    0  503 -0.30682396488E+01 -0.21568766712E+01 -0.95340430265E+02  0.95529858446E+02  0.47000000000E+01 0.  1.
<mgrwt>
<rscale>  2 0.60130035E+01</rscale>
<asrwt>0</asrwt>
<pdfrwt beam="1">  1       21 0.53767809E-04 0.60130035E+01</pdfrwt>
<pdfrwt beam="2">  1       21 0.20140540E-01 0.60130035E+01</pdfrwt>
<totfact> 0.19785619E+09</totfact>
</mgrwt>
</event>
<event>
 4    1  0.3900819E+006  0.8101770E+01  0.7546771E-02  0.2202440E+00
         21   -1    0    0  503  502  0.00000000000E+00  0.00000000000E+00  0.69239473280E+02  0.69239473280E+02  0.00000000000E+00 0.  1.
         21   -1    0    0  501  503 -0.00000000000E+00 -0.00000000000E+00 -0.10261837478E+01  0.10261837478E+01  0.00000000000E+00 0. -1.
          5    1    1    2  501    0  0.13655270465E+01  0.64563151633E+01  0.24408852564E+02  0.25718296077E+02  0.47000000000E+01 0. -1.
         -5    1    1    2    0  502 -0.13655270465E+01 -0.64563151633E+01  0.43804436967E+02  0.44547360950E+02  0.47000000000E+01 0.  1.
<mgrwt>
<rscale>  2 0.81017695E+01</rscale>
<asrwt>0</asrwt>
<pdfrwt beam="1">  1       21 0.10652223E-01 0.81017695E+01</pdfrwt>
<pdfrwt beam="2">  1       21 0.15787448E-03 0.81017695E+01</pdfrwt>
<totfact> 0.15803153E+09</totfact>
</mgrwt>
</event>
<event>
 4    1  0.3900819E+006  0.7499734E+01  0.7546771E-02  0.2253380E+00
         21   -1    0    0  503  502  0.00000000000E+00  0.00000000000E+00  0.10950490873E+01  0.10950490873E+01  0.00000000000E+00 0. -1.
         21   -1    0    0  501  503 -0.00000000000E+00 -0.00000000000E+00 -0.67857453414E+02  0.67857453414E+02  0.00000000000E+00 0. -1.
          5    1    1    2  501    0  0.49063110437E+01 -0.31755518210E+01 -0.50378428837E+02  0.50933604914E+02  0.47000000000E+01 0. -1.
         -5    1    1    2    0  502 -0.49063110437E+01  0.31755518210E+01 -0.16383975489E+02  0.18018897587E+02  0.47000000000E+01 0. -1.
<mgrwt>
<rscale>  2 0.74997345E+01</rscale>
<asrwt>0</asrwt>
<pdfrwt beam="1">  1       21 0.16846906E-03 0.74997345E+01</pdfrwt>
<pdfrwt beam="2">  1       21 0.10439610E-01 0.74997345E+01</pdfrwt>
<totfact> 0.14148437E+09</totfact>
</mgrwt>
</event>
<event>
 4    1  0.3900819E+006  0.5731385E+01  0.7546771E-02  0.2451753E+00
         21   -1    0    0  501  502  0.00000000000E+00  0.00000000000E+00  0.28324257609E+03  0.28324257609E+03  0.00000000000E+00 0. -1.
         21   -1    0    0  502  503 -0.00000000000E+00 -0.00000000000E+00 -0.32594529093E+00  0.32594529093E+00  0.00000000000E+00 0.  1.
          5    1    1    2  501    0  0.27861051789E+01 -0.17310082836E+01  0.25525657937E+03  0.25532091587E+03  0.47000000000E+01 0. -1.
         -5    1    1    2    0  503 -0.27861051789E+01  0.17310082836E+01  0.27660051433E+02  0.28247605510E+02  0.47000000000E+01 0.  1.
<mgrwt>
<rscale>  2 0.57313848E+01</rscale>
<asrwt>0</asrwt>
<pdfrwt beam="1">  1       21 0.43575584E-01 0.57313848E+01</pdfrwt>
<pdfrwt beam="2">  1       21 0.50145656E-04 0.57313848E+01</pdfrwt>
<totfact> 0.57167564E+08</totfact>
</mgrwt>
</event>
<event>
 4    1  0.3900819E+006  0.7388861E+01  0.7546771E-02  0.2263489E+00
         21   -1    0    0  503  502  0.00000000000E+00  0.00000000000E+00  0.11151538653E+02  0.11151538653E+02  0.00000000000E+00 0.  1.
         21   -1    0    0  501  503 -0.00000000000E+00 -0.00000000000E+00 -0.20866572580E+02  0.20866572580E+02  0.00000000000E+00 0. -1.
          5    1    1    2  501    0  0.36337890172E+01  0.43932720130E+01 -0.18863179377E+02  0.20258696844E+02  0.47000000000E+01 0. -1.
         -5    1    1    2    0  502 -0.36337890172E+01 -0.43932720130E+01  0.91481454504E+01  0.11759414389E+02  0.47000000000E+01 0.  1.
<mgrwt>
<rscale>  2 0.73888606E+01</rscale>
<asrwt>0</asrwt>
<pdfrwt beam="1">  1       21 0.17156213E-02 0.73888606E+01</pdfrwt>
<pdfrwt beam="2">  1       21 0.32102419E-02 0.73888606E+01</pdfrwt>
<totfact> 0.31811281E+08</totfact>
</mgrwt>
</event>
<event>
 4    1  0.3900819E+006  0.1225141E+02  0.7546771E-02  0.1965736E+00
         21   -1    0    0  501  502  0.00000000000E+00  0.00000000000E+00  0.12782452165E+03  0.12782452165E+03  0.00000000000E+00 0.  1.
         21   -1    0    0  502  503 -0.00000000000E+00 -0.00000000000E+00 -0.32126857873E+01  0.32126857873E+01  0.00000000000E+00 0.  1.
          5    1    1    2  501    0  0.22668593327E+01  0.11084599818E+02  0.11449501808E+03  0.11514862643E+03  0.47000000000E+01 0.  1.
         -5    1    1    2    0  503 -0.22668593327E+01 -0.11084599818E+02  0.10116817790E+02  0.15888581011E+02  0.47000000000E+01 0.  1.
<mgrwt>
<rscale>  2 0.12251408E+02</rscale>
<asrwt>0</asrwt>
<pdfrwt beam="1">  1       21 0.19665307E-01 0.12251408E+02</pdfrwt>
<pdfrwt beam="2">  1       21 0.49425945E-03 0.12251408E+02</pdfrwt>
<totfact> 0.14541535E+08</totfact>
</mgrwt>
</event>
<event>
 4    1  0.3900819E+006  0.4725057E+01  0.7546771E-02  0.2618369E+00
         21   -1    0    0  501  502  0.00000000000E+00  0.00000000000E+00  0.67626397132E+01  0.67626397132E+01  0.00000000000E+00 0. -1.
         21   -1    0    0  502  503 -0.00000000000E+00 -0.00000000000E+00 -0.59683954253E+01  0.59683954253E+01  0.00000000000E+00 0. -1.
          5    1    1    2  501    0 -0.44583815820E+00  0.19337037758E+00  0.46522855507E+01  0.66309821755E+01  0.47000000000E+01 0.  1.
         -5    1    1    2    0  503  0.44583815820E+00 -0.19337037758E+00 -0.38580412628E+01  0.61000529630E+01  0.47000000000E+01 0.  1.
<mgrwt>
<rscale>  2 0.47250570E+01</rscale>
<asrwt>0</asrwt>
<pdfrwt beam="1">  1       21 0.10404061E-02 0.47250570E+01</pdfrwt>
<pdfrwt beam="2">  1       21 0.91821468E-03 0.47250570E+01</pdfrwt>
<totfact> 0.26647465E+09</totfact>
</mgrwt>
</event>
<event>
 4    1  0.3900819E+006  0.4881466E+01  0.7546771E-02  0.2588621E+00
         21   -1    0    0  503  502  0.00000000000E+00  0.00000000000E+00  0.27817600127E+03  0.27817600127E+03  0.00000000000E+00 0. -1.
         21   -1    0    0  501  503 -0.00000000000E+00 -0.00000000000E+00 -0.12879908345E+00  0.12879908345E+00  0.00000000000E+00 0. -1.
          5    1    1    2  501    0  0.50755214930E+00 -0.12170043033E+01  0.58491873708E+02  0.58695212739E+02  0.47000000000E+01 0. -1.
         -5    1    1    2    0  502 -0.50755214930E+00  0.12170043033E+01  0.21955532848E+03  0.21960958761E+03  0.47000000000E+01 0. -1.
<mgrwt>
<rscale>  2 0.48814658E+01</rscale>
<asrwt>0</asrwt>
<pdfrwt beam="1">  1       21 0.42795827E-01 0.48814658E+01</pdfrwt>
<pdfrwt beam="2">  1       21 0.19815466E-04 0.48814658E+01</pdfrwt>
<totfact> 0.17753529E+09</totfact>
</mgrwt>
</event>
<event>
 4    1  0.3900819E+006  0.7727193E+01  0.7546771E-02  0.2233380E+00
         21   -1    0    0  503  502  0.00000000000E+00  0.00000000000E+00  0.14422931610E+00  0.14422931610E+00  0.00000000000E+00 0. -1.
         21   -1    0    0  501  503 -0.00000000000E+00 -0.00000000000E+00 -0.55925298918E+03  0.55925298918E+03  0.00000000000E+00 0. -1.
          5    1    1    2  501    0 -0.31679254109E+01 -0.52520243516E+01 -0.42210314718E+03  0.42217386983E+03  0.47000000000E+01 0. -1.
         -5    1    1    2    0  502  0.31679254109E+01  0.52520243516E+01 -0.13700561268E+03  0.13722334866E+03  0.47000000000E+01 0. -1.
<mgrwt>
<rscale>  2 0.77271930E+01</rscale>
<asrwt>0</asrwt>
<pdfrwt beam="1">  1       21 0.22188985E-04 0.77271930E+01</pdfrwt>
<pdfrwt beam="2">  1       21 0.86039468E-01 0.77271930E+01</pdfrwt>
<totfact> 0.57797158E+08</totfact>
</mgrwt>
</event>
<event>
 4    1  0.3900819E+006  0.5535253E+01  0.7546771E-02  0.2480144E+00
         21   -1    0    0  501  502  0.00000000000E+00  0.00000000000E+00  0.50326976607E+01  0.50326976607E+01  0.00000000000E+00 0. -1.
         21   -1    0    0  502  503 -0.00000000000E+00 -0.00000000000E+00 -0.66989235433E+01  0.66989235433E+01  0.00000000000E+00 0.  1.
          5    1    1    2  501    0  0.29151881803E+01  0.22518196208E+00 -0.26045322743E+01  0.61174028321E+01  0.47000000000E+01 0.  1.
         -5    1    1    2    0  503 -0.29151881803E+01 -0.22518196208E+00  0.93830639160E+00  0.56142183719E+01  0.47000000000E+01 0. -1.
<mgrwt>
<rscale>  2 0.55352533E+01</rscale>
<asrwt>0</asrwt>
<pdfrwt beam="1">  1       21 0.77426118E-03 0.55352533E+01</pdfrwt>
<pdfrwt beam="2">  1       21 0.10306036E-02 0.55352533E+01</pdfrwt>
<totfact> 0.40221825E+09</totfact>
</mgrwt>
</event>
<event>
 4    1  0.3900819E+006  0.4905893E+01  0.7546771E-02  0.2584124E+00
         21   -1    0    0  501  502  0.00000000000E+00  0.00000000000E+00  0.92591734210E+00  0.92591734210E+00  0.00000000000E+00 0. -1.
         21   -1    0    0  502  503 -0.00000000000E+00 -0.00000000000E+00 -0.37827173139E+02  0.37827173139E+02  0.00000000000E+00 0. -1.
          5    1    1    2  501    0 -0.13387560498E+01 -0.43071529072E+00 -0.29288278836E+02  0.29696313922E+02  0.47000000000E+01 0. -1.
         -5    1    1    2    0  503  0.13387560498E+01  0.43071529072E+00 -0.76129769615E+01  0.90567765589E+01  0.47000000000E+01 0. -1.
<mgrwt>
<rscale>  2 0.49058927E+01</rscale>
<asrwt>0</asrwt>
<pdfrwt beam="1">  1       21 0.14244884E-03 0.49058927E+01</pdfrwt>
<pdfrwt beam="2">  1       21 0.58195644E-02 0.49058927E+01</pdfrwt>
<totfact> 0.30071020E+09</totfact>
</mgrwt>
</event>
<event>
 4    1  0.3900819E+006  0.7134244E+01  0.7546771E-02  0.2287669E+00
         21   -1    0    0  503  502  0.00000000000E+00  0.00000000000E+00  0.57579892116E+01  0.57579892116E+01  0.00000000000E+00 0.  1.
         21   -1    0    0  501  503 -0.00000000000E+00 -0.00000000000E+00 -0.11424443382E+02  0.11424443382E+02  0.00000000000E+00 0.  1.
          5    1    1    2  501    0  0.42286367060E+01  0.33054599391E+01 -0.69198747428E+01  0.99389184651E+01  0.47000000000E+01 0.  1.
         -5    1    1    2    0  502 -0.42286367060E+01 -0.33054599391E+01  0.12534205723E+01  0.72435141286E+01  0.47000000000E+01 0.  1.
<mgrwt>
<rscale>  2 0.71342437E+01</rscale>
<asrwt>0</asrwt>
<pdfrwt beam="1">  1       21 0.88584449E-03 0.71342437E+01</pdfrwt>
<pdfrwt beam="2">  1       21 0.17576067E-02 0.71342437E+01</pdfrwt>
<totfact> 0.19321468E+09</totfact>
</mgrwt>
</event>
<event>
 4    1  0.3900819E+006  0.2942421E+02  0.7546771E-02  0.1604542E+00
         21   -1    0    0  503  502  0.00000000000E+00  0.00000000000E+00  0.77469667505E+02  0.77469667505E+02  0.00000000000E+00 0. -1.
         21   -1    0    0  501  503 -0.00000000000E+00 -0.00000000000E+00 -0.18880591760E+02  0.18880591760E+02  0.00000000000E+00 0.  1.
          5    1    1    2  501    0  0.16699092492E+02 -0.23766250754E+02 -0.14803132243E+01  0.29461427192E+02  0.47000000000E+01 0.  1.
         -5    1    1    2    0  502 -0.16699092492E+02  0.23766250754E+02  0.60069388970E+02  0.66888832073E+02  0.47000000000E+01 0. -1.
<mgrwt>
<rscale>  2 0.29424214E+02</rscale>
<asrwt>0</asrwt>
<pdfrwt beam="1">  1       21 0.11918410E-01 0.29424214E+02</pdfrwt>
<pdfrwt beam="2">  1       21 0.29047065E-02 0.29424214E+02</pdfrwt>
<totfact> 0.30892381E+07</totfact>
</mgrwt>
</event>
<event>
 4    1  0.3900819E+006  0.6047509E+01  0.7546771E-02  0.2409281E+00
         21   -1    0    0  501  502  0.00000000000E+00  0.00000000000E+00  0.98067587997E+01  0.98067587997E+01  0.00000000000E+00 0.  1.
         21   -1    0    0  502  503 -0.00000000000E+00 -0.00000000000E+00 -0.11818389910E+02  0.11818389910E+02  0.00000000000E+00 0.  1.
          5    1    1    2  501    0 -0.34480131510E+01 -0.16104574103E+01  0.79395835278E+01  0.99804486049E+01  0.47000000000E+01 0.  1.
         -5    1    1    2    0  503  0.34480131510E+01  0.16104574103E+01 -0.99512146380E+01  0.11644700105E+02  0.47000000000E+01 0.  1.
<mgrwt>
<rscale>  2 0.60475092E+01</rscale>
<asrwt>0</asrwt>
<pdfrwt beam="1">  1       21 0.15087321E-02 0.60475092E+01</pdfrwt>
<pdfrwt beam="2">  1       21 0.18182138E-02 0.60475092E+01</pdfrwt>
<totfact> 0.75773470E+08</totfact>
</mgrwt>
</event>
<event>
 4    1  0.3900819E+006  0.4818118E+01  0.7546771E-02  0.2600467E+00
         21   -1    0    0  503  502  0.00000000000E+00  0.00000000000E+00  0.20017070302E+03  0.20017070302E+03  0.00000000000E+00 0.  1.
         21   -1    0    0  501  503 -0.00000000000E+00 -0.00000000000E+00 -0.12074662248E+00  0.12074662248E+00  0.00000000000E+00 0.  1.
          5    1    1    2  501    0  0.45050427408E-01  0.10593563320E+01  0.80111420867E+02  0.80256177449E+02  0.47000000000E+01 0.  1.
         -5    1    1    2    0  502 -0.45050427408E-01 -0.10593563320E+01  0.11993853553E+03  0.12003527219E+03  0.47000000000E+01 0.  1.
<mgrwt>
<rscale>  2 0.48181184E+01</rscale>
<asrwt>0</asrwt>
<pdfrwt beam="1">  1       21 0.30795227E-01 0.48181184E+01</pdfrwt>
<pdfrwt beam="2">  1       21 0.18576564E-04 0.48181184E+01</pdfrwt>
<totfact> 0.33353976E+09</totfact>
</mgrwt>
</event>
<event>
 4    1  0.3900819E+006  0.5532351E+01  0.7546771E-02  0.2480577E+00
         21   -1    0    0  503  502  0.00000000000E+00  0.00000000000E+00  0.83979841583E+01  0.83979841583E+01  0.00000000000E+00 0.  1.
         21   -1    0    0  501  503 -0.00000000000E+00 -0.00000000000E+00 -0.92517741292E+01  0.92517741292E+01  0.00000000000E+00 0. -1.
          5    1    1    2  501    0 -0.23924491734E+01  0.16712545844E+01 -0.72971058543E+01  0.91572189436E+01  0.47000000000E+01 0. -1.
         -5    1    1    2    0  502  0.23924491734E+01 -0.16712545844E+01  0.64433158834E+01  0.84925393438E+01  0.47000000000E+01 0.  1.
<mgrwt>
<rscale>  2 0.55323508E+01</rscale>
<asrwt>0</asrwt>
<pdfrwt beam="1">  1       21 0.12919976E-02 0.55323508E+01</pdfrwt>
<pdfrwt beam="2">  1       21 0.14233499E-02 0.55323508E+01</pdfrwt>
<totfact> 0.12425670E+09</totfact>
</mgrwt>
</event>
<event>
 4    1  0.3900819E+006  0.5463270E+01  0.7546771E-02  0.2490996E+00
         21   -1    0    0  503  502  0.00000000000E+00  0.00000000000E+00  0.83496876699E+01  0.83496876699E+01  0.00000000000E+00 0. -1.
         21   -1    0    0  501  503 -0.00000000000E+00 -0.00000000000E+00 -0.52561049905E+01  0.52561049905E+01  0.00000000000E+00 0. -1.
          5    1    1    2  501    0  0.27310462889E+01  0.54653703995E+00 -0.23009230531E+01  0.59280320060E+01  0.47000000000E+01 0. -1.
         -5    1    1    2    0  502 -0.27310462889E+01 -0.54653703995E+00  0.53945057324E+01  0.76777606544E+01  0.47000000000E+01 0. -1.
<mgrwt>
<rscale>  2 0.54632698E+01</rscale>
<asrwt>0</asrwt>
<pdfrwt beam="1">  1       21 0.12845673E-02 0.54632698E+01</pdfrwt>
<pdfrwt beam="2">  1       21 0.80863154E-03 0.54632698E+01</pdfrwt>
<totfact> 0.27423081E+09</totfact>
</mgrwt>
</event>
<event>
 4    1  0.3900819E+006  0.6219576E+01  0.7546771E-02  0.2387693E+00
         21   -1    0    0  501  502  0.00000000000E+00  0.00000000000E+00  0.88727592073E+00  0.88727592073E+00  0.00000000000E+00 0.  1.
         21   -1    0    0  502  503 -0.00000000000E+00 -0.00000000000E+00 -0.45185274748E+03  0.45185274748E+03  0.00000000000E+00 0. -1.
          5    1    1    2  501    0 -0.10597143365E+01 -0.39332087338E+01 -0.10310491614E+02  0.12041152882E+02  0.47000000000E+01 0.  1.
         -5    1    1    2    0  503  0.10597143365E+01  0.39332087338E+01 -0.44065497995E+03  0.44069887052E+03  0.47000000000E+01 0. -1.
<mgrwt>
<rscale>  2 0.62195760E+01</rscale>
<asrwt>0</asrwt>
<pdfrwt beam="1">  1       21 0.13650368E-03 0.62195760E+01</pdfrwt>
<pdfrwt beam="2">  1       21 0.69515962E-01 0.62195760E+01</pdfrwt>
<totfact> 0.66947067E+07</totfact>
</mgrwt>
</event>
<event>
 4    1  0.3900819E+006  0.6733558E+01  0.7546771E-02  0.2328724E+00
         21   -1    0    0  503  502  0.00000000000E+00  0.00000000000E+00  0.12510095000E+03  0.12510095000E+03  0.00000000000E+00 0.  1.
         21   -1    0    0  501  503 -0.00000000000E+00 -0.00000000000E+00 -0.45343169869E+00  0.45343169869E+00  0.00000000000E+00 0. -1.
          5    1    1    2  501    0  0.39183980065E+01 -0.28101524154E+01  0.34200744570E+02  0.34857305241E+02  0.47000000000E+01 0.  1.
         -5    1    1    2    0  502 -0.39183980065E+01  0.28101524154E+01  0.90446773731E+02  0.90697076457E+02  0.47000000000E+01 0. -1.
<mgrwt>
<rscale>  2 0.67335577E+01</rscale>
<asrwt>0</asrwt>
<pdfrwt beam="1">  1       21 0.19246273E-01 0.67335577E+01</pdfrwt>
<pdfrwt beam="2">  1       21 0.69758822E-04 0.67335577E+01</pdfrwt>
<totfact> 0.16391679E+09</totfact>
</mgrwt>
</event>
<event>
 4    1  0.3900819E+006  0.6333051E+01  0.7546771E-02  0.2373992E+00
         21   -1    0    0  503  502  0.00000000000E+00  0.00000000000E+00  0.79175490486E+02  0.79175490486E+02  0.00000000000E+00 0.  1.
         21   -1    0    0  501  503 -0.00000000000E+00 -0.00000000000E+00 -0.67263713972E+00  0.67263713972E+00  0.00000000000E+00 0.  1.
          5    1    1    2  501    0 -0.10100542153E+01 -0.41227811766E+01  0.19413664463E+02  0.20420526487E+02  0.47000000000E+01 0.  1.
         -5    1    1    2    0  502  0.10100542153E+01  0.41227811766E+01  0.59089188883E+02  0.59427601138E+02  0.47000000000E+01 0.  1.
<mgrwt>
<rscale>  2 0.63330509E+01</rscale>
<asrwt>0</asrwt>
<pdfrwt beam="1">  1       21 0.12180837E-01 0.63330509E+01</pdfrwt>
<pdfrwt beam="2">  1       21 0.10348270E-03 0.63330509E+01</pdfrwt>
<totfact> 0.19027533E+09</totfact>
</mgrwt>
</event>
<event>
 4    1  0.3900819E+006  0.6348586E+01  0.7546771E-02  0.2372149E+00
         21   -1    0    0  503  502  0.00000000000E+00  0.00000000000E+00  0.13493455670E+03  0.13493455670E+03  0.00000000000E+00 0.  1.
         21   -1    0    0  501  503 -0.00000000000E+00 -0.00000000000E+00 -0.34863653088E+00  0.34863653088E+00  0.00000000000E+00 0. -1.
          5    1    1    2  501    0  0.33268157565E+01 -0.26733567339E+01  0.41692375016E+02  0.42172961406E+02  0.47000000000E+01 0. -1.
         -5    1    1    2    0  502 -0.33268157565E+01  0.26733567339E+01  0.92893545149E+02  0.93110231820E+02  0.47000000000E+01 0.  1.
<mgrwt>
<rscale>  2 0.63485856E+01</rscale>
<asrwt>0</asrwt>
<pdfrwt beam="1">  1       21 0.20759121E-01 0.63485856E+01</pdfrwt>
<pdfrwt beam="2">  1       21 0.53636497E-04 0.63485856E+01</pdfrwt>
<totfact> 0.19732575E+09</totfact>
</mgrwt>
</event>
<event>
 4    1  0.3900819E+006  0.5923950E+01  0.7546771E-02  0.2425428E+00
         21   -1    0    0  501  502  0.00000000000E+00  0.00000000000E+00  0.45509203861E-01  0.45509203861E-01  0.00000000000E+00 0.  1.
         21   -1    0    0  502  503 -0.00000000000E+00 -0.00000000000E+00 -0.78514347074E+03  0.78514347074E+03  0.00000000000E+00 0. -1.
          5    1    1    2  501    0  0.35905091134E+01  0.33380697617E+00 -0.34008578575E+03  0.34013737644E+03  0.47000000000E+01 0. -1.
         -5    1    1    2    0  503 -0.35905091134E+01 -0.33380697617E+00 -0.44501217578E+03  0.44505160350E+03  0.47000000000E+01 0. -1.
<mgrwt>
<rscale>  2 0.59239499E+01</rscale>
<asrwt>0</asrwt>
<pdfrwt beam="1">  1       21 0.70013546E-05 0.59239499E+01</pdfrwt>
<pdfrwt beam="2">  1       21 0.12079236E+00 0.59239499E+01</pdfrwt>
<totfact> 0.11470171E+09</totfact>
</mgrwt>
</event>
<event>
 4    1  0.3900819E+006  0.8247571E+01  0.7546771E-02  0.2191012E+00
         21   -1    0    0  501  502  0.00000000000E+00  0.00000000000E+00  0.70828404092E+00  0.70828404092E+00  0.00000000000E+00 0. -1.
         21   -1    0    0  502  503 -0.00000000000E+00 -0.00000000000E+00 -0.11643644188E+03  0.11643644188E+03  0.00000000000E+00 0.  1.
          5    1    1    2  501    0  0.47756708317E+01  0.48088875104E+01 -0.33348449461E+02  0.34353187806E+02  0.47000000000E+01 0.  1.
         -5    1    1    2    0  503 -0.47756708317E+01 -0.48088875104E+01 -0.82379708381E+02  0.82791538118E+02  0.47000000000E+01 0. -1.
<mgrwt>
<rscale>  2 0.82475712E+01</rscale>
<asrwt>0</asrwt>
<pdfrwt beam="1">  1       21 0.10896680E-03 0.82475712E+01</pdfrwt>
<pdfrwt beam="2">  1       21 0.17913294E-01 0.82475712E+01</pdfrwt>
<totfact> 0.11556008E+09</totfact>
</mgrwt>
</event>
<event>
 4    1  0.3900819E+006  0.5169829E+01  0.7546771E-02  0.2537880E+00
         21   -1    0    0  501  502  0.00000000000E+00  0.00000000000E+00  0.11517924894E+02  0.11517924894E+02  0.00000000000E+00 0.  1.
         21   -1    0    0  502  503 -0.00000000000E+00 -0.00000000000E+00 -0.24416487805E+01  0.24416487805E+01  0.00000000000E+00 0.  1.
          5    1    1    2  501    0  0.20381762725E+01 -0.69495961930E+00  0.60930051817E+01  0.79907348557E+01  0.47000000000E+01 0. -1.
         -5    1    1    2    0  503 -0.20381762725E+01  0.69495961930E+00  0.29832709315E+01  0.59688388185E+01  0.47000000000E+01 0. -1.
<mgrwt>
<rscale>  2 0.51698290E+01</rscale>
<asrwt>0</asrwt>
<pdfrwt beam="1">  1       21 0.17719884E-02 0.51698290E+01</pdfrwt>
<pdfrwt beam="2">  1       21 0.37563828E-03 0.51698290E+01</pdfrwt>
<totfact> 0.47497830E+09</totfact>
</mgrwt>
</event>
<event>
 4    1  0.3900819E+006  0.4832988E+01  0.7546771E-02  0.2597662E+00
         21   -1    0    0  503  502  0.00000000000E+00  0.00000000000E+00  0.75061940029E-01  0.75061940029E-01  0.00000000000E+00 0. -1.
         21   -1    0    0  501  503 -0.00000000000E+00 -0.00000000000E+00 -0.44761218558E+03  0.44761218558E+03  0.00000000000E+00 0. -1.
          5    1    1    2  501    0 -0.11246397890E+01  0.54432742056E-01 -0.34734968279E+03  0.34738330402E+03  0.47000000000E+01 0. -1.
         -5    1    1    2    0  502  0.11246397890E+01 -0.54432742056E-01 -0.10018744085E+03  0.10030394350E+03  0.47000000000E+01 0. -1.
<mgrwt>
<rscale>  2 0.48329885E+01</rscale>
<asrwt>0</asrwt>
<pdfrwt beam="1">  1       21 0.11548142E-04 0.48329885E+01</pdfrwt>
<pdfrwt beam="2">  1       21 0.68862514E-01 0.48329885E+01</pdfrwt>
<totfact> 0.15295761E+09</totfact>
</mgrwt>
</event>
<event>
 4    1  0.3900819E+006  0.7501877E+01  0.7546771E-02  0.2253187E+00
         21   -1    0    0  501  502  0.00000000000E+00  0.00000000000E+00  0.56303409617E+01  0.56303409617E+01  0.00000000000E+00 0.  1.
         21   -1    0    0  502  503 -0.00000000000E+00 -0.00000000000E+00 -0.10314095335E+02  0.10314095335E+02  0.00000000000E+00 0. -1.
          5    1    1    2  501    0 -0.22047236598E+01  0.54154735746E+01 -0.94076557421E+00  0.75606349151E+01  0.47000000000E+01 0.  1.
         -5    1    1    2    0  503  0.22047236598E+01 -0.54154735746E+01 -0.37429887988E+01  0.83838013813E+01  0.47000000000E+01 0. -1.
<mgrwt>
<rscale>  2 0.75018771E+01</rscale>
<asrwt>0</asrwt>
<pdfrwt beam="1">  1       21 0.86620631E-03 0.75018771E+01</pdfrwt>
<pdfrwt beam="2">  1       21 0.15867839E-02 0.75018771E+01</pdfrwt>
<totfact> 0.24029904E+09</totfact>
</mgrwt>
</event>
<event>
 4    1  0.3900819E+006  0.6406427E+01  0.7546771E-02  0.2365349E+00
         21   -1    0    0  501  502  0.00000000000E+00  0.00000000000E+00  0.16331646499E+02  0.16331646499E+02  0.00000000000E+00 0.  1.
         21   -1    0    0  502  503 -0.00000000000E+00 -0.00000000000E+00 -0.46424521646E+01  0.46424521646E+01  0.00000000000E+00 0. -1.
          5    1    1    2  501    0  0.21968547268E+01 -0.37584748129E+01  0.12947045237E+02  0.14445355101E+02  0.47000000000E+01 0.  1.
         -5    1    1    2    0  503 -0.21968547268E+01  0.37584748129E+01 -0.12578509033E+01  0.65287435625E+01  0.47000000000E+01 0. -1.
<mgrwt>
<rscale>  2 0.64064267E+01</rscale>
<asrwt>0</asrwt>
<pdfrwt beam="1">  1       21 0.25125610E-02 0.64064267E+01</pdfrwt>
<pdfrwt beam="2">  1       21 0.71422342E-03 0.64064267E+01</pdfrwt>
<totfact> 0.14351572E+09</totfact>
</mgrwt>
</event>
<event>
 4    1  0.3900819E+006  0.5003640E+01  0.7546771E-02  0.2566508E+00
         21   -1    0    0  501  502  0.00000000000E+00  0.00000000000E+00  0.20886719631E+03  0.20886719631E+03  0.00000000000E+00 0.  1.
         21   -1    0    0  502  503 -0.00000000000E+00 -0.00000000000E+00 -0.20965695987E+00  0.20965695987E+00  0.00000000000E+00 0.  1.
          5    1    1    2  501    0  0.35740143202E+00  0.16788924992E+01  0.17274098949E+03  0.17281344238E+03  0.47000000000E+01 0.  1.
         -5    1    1    2    0  503 -0.35740143202E+00 -0.16788924992E+01  0.35916549852E+02  0.36263410886E+02  0.47000000000E+01 0.  1.
<mgrwt>
<rscale>  2 0.50036403E+01</rscale>
<asrwt>0</asrwt>
<pdfrwt beam="1">  1       21 0.32133248E-01 0.50036403E+01</pdfrwt>
<pdfrwt beam="2">  1       21 0.32255084E-04 0.50036403E+01</pdfrwt>
<totfact> 0.15507805E+09</totfact>
</mgrwt>
</event>
<event>
 4    1  0.3900819E+006  0.5023105E+01  0.7546771E-02  0.2563071E+00
         21   -1    0    0  503  502  0.00000000000E+00  0.00000000000E+00  0.12855794153E+00  0.12855794153E+00  0.00000000000E+00 0.  1.
         21   -1    0    0  501  503 -0.00000000000E+00 -0.00000000000E+00 -0.50339702208E+03  0.50339702208E+03  0.00000000000E+00 0. -1.
          5    1    1    2  501    0 -0.12355857788E+01  0.12707934450E+01 -0.44828600690E+03  0.44831414831E+03  0.47000000000E+01 0. -1.
         -5    1    1    2    0  502  0.12355857788E+01 -0.12707934450E+01 -0.54982457241E+02  0.55211431719E+02  0.47000000000E+01 0.  1.
<mgrwt>
<rscale>  2 0.50231054E+01</rscale>
<asrwt>0</asrwt>
<pdfrwt beam="1">  1       21 0.19778106E-04 0.50231054E+01</pdfrwt>
<pdfrwt beam="2">  1       21 0.77445849E-01 0.50231054E+01</pdfrwt>
<totfact> 0.62111542E+08</totfact>
</mgrwt>
</event>
<event>
 4    1  0.3900819E+006  0.5889191E+01  0.7546771E-02  0.2430072E+00
         21   -1    0    0  503  502  0.00000000000E+00  0.00000000000E+00  0.13099849427E+01  0.13099849427E+01  0.00000000000E+00 0.  1.
         21   -1    0    0  501  503 -0.00000000000E+00 -0.00000000000E+00 -0.29692641004E+02  0.29692641004E+02  0.00000000000E+00 0.  1.
          5    1    1    2  501    0 -0.26195690093E+01  0.23938313520E+01 -0.19293743542E+02  0.20172533559E+02  0.47000000000E+01 0.  1.
         -5    1    1    2    0  502  0.26195690093E+01 -0.23938313520E+01 -0.90889125189E+01  0.10830092387E+02  0.47000000000E+01 0.  1.
<mgrwt>
<rscale>  2 0.58891910E+01</rscale>
<asrwt>0</asrwt>
<pdfrwt beam="1">  1       21 0.20153614E-03 0.58891910E+01</pdfrwt>
<pdfrwt beam="2">  1       21 0.45680987E-02 0.58891910E+01</pdfrwt>
<totfact> 0.32041669E+09</totfact>
</mgrwt>
</event>
<event>
 4    1  0.3900819E+006  0.4759325E+01  0.7546771E-02  0.2611706E+00
         21   -1    0    0  503  502  0.00000000000E+00  0.00000000000E+00  0.12453323039E+01  0.12453323039E+01  0.00000000000E+00 0. -1.
         21   -1    0    0  501  503 -0.00000000000E+00 -0.00000000000E+00 -0.10247613660E+03  0.10247613660E+03  0.00000000000E+00 0. -1.
          5    1    1    2  501    0  0.66072775268E+00 -0.35299980736E+00 -0.97649011954E+02  0.97764925743E+02  0.47000000000E+01 0. -1.
         -5    1    1    2    0  502 -0.66072775268E+00  0.35299980736E+00 -0.35817923394E+01  0.59565431577E+01  0.47000000000E+01 0. -1.
<mgrwt>
<rscale>  2 0.47593245E+01</rscale>
<asrwt>0</asrwt>
<pdfrwt beam="1">  1       21 0.19158953E-03 0.47593245E+01</pdfrwt>
<pdfrwt beam="2">  1       21 0.15765564E-01 0.47593245E+01</pdfrwt>
<totfact> 0.43788017E+08</totfact>
</mgrwt>
</event>
<event>
 4    1  0.3900819E+006  0.8803224E+01  0.7546771E-02  0.2150266E+00
         21   -1    0    0  503  502  0.00000000000E+00  0.00000000000E+00  0.13511173501E+02  0.13511173501E+02  0.00000000000E+00 0.  1.
         21   -1    0    0  501  503 -0.00000000000E+00 -0.00000000000E+00 -0.46955998265E+02  0.46955998265E+02  0.00000000000E+00 0. -1.
          5    1    1    2  501    0 -0.29612254673E+01 -0.68291941978E+01 -0.45049335813E+02  0.45901409639E+02  0.47000000000E+01 0. -1.
         -5    1    1    2    0  502  0.29612254673E+01  0.68291941978E+01  0.11604511049E+02  0.14565762127E+02  0.47000000000E+01 0.  1.
<mgrwt>
<rscale>  2 0.88032238E+01</rscale>
<asrwt>0</asrwt>
<pdfrwt beam="1">  1       21 0.20786421E-02 0.88032238E+01</pdfrwt>
<pdfrwt beam="2">  1       21 0.72239997E-02 0.88032238E+01</pdfrwt>
<totfact> 0.77952611E+07</totfact>
</mgrwt>
</event>
<event>
 4    1  0.3900819E+006  0.9665702E+01  0.7546771E-02  0.2094527E+00
         21   -1    0    0  501  502  0.00000000000E+00  0.00000000000E+00  0.52121140363E+03  0.52121140363E+03  0.00000000000E+00 0.  1.
         21   -1    0    0  502  503 -0.00000000000E+00 -0.00000000000E+00 -0.27059046602E+00  0.27059046602E+00  0.00000000000E+00 0. -1.
          5    1    1    2  501    0  0.49111939112E+01 -0.68713883742E+01  0.41196279102E+03  0.41207616649E+03  0.47000000000E+01 0. -1.
         -5    1    1    2    0  503 -0.49111939112E+01  0.68713883742E+01  0.10897802215E+03  0.10940582761E+03  0.47000000000E+01 0.  1.
<mgrwt>
<rscale>  2 0.96657024E+01</rscale>
<asrwt>0</asrwt>
<pdfrwt beam="1">  1       21 0.80185566E-01 0.96657024E+01</pdfrwt>
<pdfrwt beam="2">  1       21 0.41629720E-04 0.96657024E+01</pdfrwt>
<totfact> 0.31867002E+08</totfact>
</mgrwt>
</event>
<event>
 4    1  0.3900819E+006  0.4926659E+01  0.7546771E-02  0.2580331E+00
         21   -1    0    0  501  502  0.00000000000E+00  0.00000000000E+00  0.16025477451E+03  0.16025477451E+03  0.00000000000E+00 0.  1.
         21   -1    0    0  502  503 -0.00000000000E+00 -0.00000000000E+00 -0.18427074275E+00  0.18427074275E+00  0.00000000000E+00 0.  1.
          5    1    1    2  501    0  0.14764277193E+01  0.46110357222E-01  0.11388606672E+03  0.11399257940E+03  0.47000000000E+01 0.  1.
         -5    1    1    2    0  503 -0.14764277193E+01 -0.46110357222E-01  0.46184437043E+02  0.46446465850E+02  0.47000000000E+01 0.  1.
<mgrwt>
<rscale>  2 0.49266586E+01</rscale>
<asrwt>0</asrwt>
<pdfrwt beam="1">  1       21 0.24654469E-01 0.49266586E+01</pdfrwt>
<pdfrwt beam="2">  1       21 0.28349473E-04 0.49266586E+01</pdfrwt>
<totfact> 0.28049787E+09</totfact>
</mgrwt>
</event>
<event>
 4    1  0.3900819E+006  0.6774887E+01  0.7546771E-02  0.2324305E+00
         21   -1    0    0  503  502  0.00000000000E+00  0.00000000000E+00  0.60784449081E+03  0.60784449081E+03  0.00000000000E+00 0. -1.
         21   -1    0    0  501  503 -0.00000000000E+00 -0.00000000000E+00 -0.83277289633E-01  0.83277289633E-01  0.00000000000E+00 0.  1.
          5    1    1    2  501    0  0.21730787717E+01  0.43688465502E+01  0.21105693117E+03  0.21116563946E+03  0.47000000000E+01 0.  1.
         -5    1    1    2    0  502 -0.21730787717E+01 -0.43688465502E+01  0.39670428235E+03  0.39676212864E+03  0.47000000000E+01 0.  1.
<mgrwt>
<rscale>  2 0.67748868E+01</rscale>
<asrwt>0</asrwt>
<pdfrwt beam="1">  1       21 0.93510984E-01 0.67748868E+01</pdfrwt>
<pdfrwt beam="2">  1       21 0.12812377E-04 0.67748868E+01</pdfrwt>
<totfact> 0.94406428E+08</totfact>
</mgrwt>
</event>
<event>
 4    1  0.3900819E+006  0.6251278E+01  0.7546771E-02  0.2383823E+00
         21   -1    0    0  503  502  0.00000000000E+00  0.00000000000E+00  0.25171657845E+02  0.25171657845E+02  0.00000000000E+00 0.  1.
         21   -1    0    0  501  503 -0.00000000000E+00 -0.00000000000E+00 -0.34043963221E+01  0.34043963221E+01  0.00000000000E+00 0.  1.
          5    1    1    2  501    0 -0.30457752634E+01 -0.27770011799E+01  0.34551541079E+00  0.62608197073E+01  0.47000000000E+01 0.  1.
         -5    1    1    2    0  502  0.30457752634E+01  0.27770011799E+01  0.21421746112E+02  0.22315234460E+02  0.47000000000E+01 0.  1.
<mgrwt>
<rscale>  2 0.62512785E+01</rscale>
<asrwt>0</asrwt>
<pdfrwt beam="1">  1       21 0.38725626E-02 0.62512785E+01</pdfrwt>
<pdfrwt beam="2">  1       21 0.52375330E-03 0.62512785E+01</pdfrwt>
<totfact> 0.11541052E+09</totfact>
</mgrwt>
</event>
<event>
 4    1  0.3900819E+006  0.5975095E+01  0.7546771E-02  0.2418676E+00
         21   -1    0    0  501  502  0.00000000000E+00  0.00000000000E+00  0.87252114904E+00  0.87252114904E+00  0.00000000000E+00 0.  1.
         21   -1    0    0  502  503 -0.00000000000E+00 -0.00000000000E+00 -0.50478026975E+02  0.50478026975E+02  0.00000000000E+00 0.  1.
          5    1    1    2  501    0  0.49836317713E+00 -0.36555972969E+01 -0.13629101994E+02  0.14881336587E+02  0.47000000000E+01 0.  1.
         -5    1    1    2    0  503 -0.49836317713E+00  0.36555972969E+01 -0.35976403831E+02  0.36469211537E+02  0.47000000000E+01 0.  1.
<mgrwt>
<rscale>  2 0.59750948E+01</rscale>
<asrwt>0</asrwt>
<pdfrwt beam="1">  1       21 0.13423400E-03 0.59750948E+01</pdfrwt>
<pdfrwt beam="2">  1       21 0.77658515E-02 0.59750948E+01</pdfrwt>
<totfact> 0.25480318E+09</totfact>
</mgrwt>
</event>
<event>
 4    1  0.3900819E+006  0.6031143E+01  0.7546771E-02  0.2411388E+00
         21   -1    0    0  501  502  0.00000000000E+00  0.00000000000E+00  0.17505261913E+03  0.17505261913E+03  0.00000000000E+00 0. -1.
         21   -1    0    0  502  503 -0.00000000000E+00 -0.00000000000E+00 -0.37600466401E+00  0.37600466401E+00  0.00000000000E+00 0. -1.
          5    1    1    2  501    0  0.37012220140E+01 -0.76527376258E+00  0.14600641079E+03  0.14613092308E+03  0.47000000000E+01 0. -1.
         -5    1    1    2    0  503 -0.37012220140E+01  0.76527376258E+00  0.28670203677E+02  0.29297700716E+02  0.47000000000E+01 0. -1.
<mgrwt>
<rscale>  2 0.60311432E+01</rscale>
<asrwt>0</asrwt>
<pdfrwt beam="1">  1       21 0.26931107E-01 0.60311432E+01</pdfrwt>
<pdfrwt beam="2">  1       21 0.57847011E-04 0.60311432E+01</pdfrwt>
<totfact> 0.11169349E+09</totfact>
</mgrwt>
</event>
<event>
 4    1  0.3900819E+006  0.5528576E+01  0.7546771E-02  0.2481141E+00
         21   -1    0    0  501  502  0.00000000000E+00  0.00000000000E+00  0.99563389504E-01  0.99563389504E-01  0.00000000000E+00 0. -1.
         21   -1    0    0  502  503 -0.00000000000E+00 -0.00000000000E+00 -0.33261909122E+03  0.33261909122E+03  0.00000000000E+00 0.  1.
          5    1    1    2  501    0  0.10396826098E+01 -0.27192308307E+01 -0.12008295758E+03  0.12021015705E+03  0.47000000000E+01 0.  1.
         -5    1    1    2    0  503 -0.10396826098E+01  0.27192308307E+01 -0.21243657024E+03  0.21250849755E+03  0.47000000000E+01 0.  1.
<mgrwt>
<rscale>  2 0.55285763E+01</rscale>
<asrwt>0</asrwt>
<pdfrwt beam="1">  1       21 0.15317252E-04 0.55285763E+01</pdfrwt>
<pdfrwt beam="2">  1       21 0.51172812E-01 0.55285763E+01</pdfrwt>
<totfact> 0.20253896E+09</totfact>
</mgrwt>
</event>
<event>
 4    1  0.3900819E+006  0.5992278E+01  0.7546771E-02  0.2416430E+00
         21   -1    0    0  501  502  0.00000000000E+00  0.00000000000E+00  0.21955623388E+02  0.21955623388E+02  0.00000000000E+00 0.  1.
         21   -1    0    0  502  503 -0.00000000000E+00 -0.00000000000E+00 -0.16509492124E+01  0.16509492124E+01  0.00000000000E+00 0. -1.
          5    1    1    2  501    0  0.11999306123E+01  0.35181751553E+01  0.90088032560E+01  0.10819700828E+02  0.47000000000E+01 0.  1.
         -5    1    1    2    0  503 -0.11999306123E+01 -0.35181751553E+01  0.11295870920E+02  0.12786871773E+02  0.47000000000E+01 0.  1.
<mgrwt>
<rscale>  2 0.59922775E+01</rscale>
<asrwt>0</asrwt>
<pdfrwt beam="1">  1       21 0.33777880E-02 0.59922775E+01</pdfrwt>
<pdfrwt beam="2">  1       21 0.25399220E-03 0.59922775E+01</pdfrwt>
<totfact> 0.36960717E+09</totfact>
</mgrwt>
</event>
<event>
 4    1  0.3900819E+006  0.9799787E+01  0.7546771E-02  0.2086564E+00
         21   -1    0    0  503  502  0.00000000000E+00  0.00000000000E+00  0.80937602639E+00  0.80937602639E+00  0.00000000000E+00 0.  1.
         21   -1    0    0  501  503 -0.00000000000E+00 -0.00000000000E+00 -0.13792265888E+03  0.13792265888E+03  0.00000000000E+00 0. -1.
          5    1    1    2  501    0 -0.69446848902E+01 -0.50712106180E+01 -0.94483684629E+02  0.94990538931E+02  0.47000000000E+01 0. -1.
         -5    1    1    2    0  502  0.69446848902E+01  0.50712106180E+01 -0.42629598223E+02  0.43741495974E+02  0.47000000000E+01 0.  1.
<mgrwt>
<rscale>  2 0.97997870E+01</rscale>
<asrwt>0</asrwt>
<pdfrwt beam="1">  1       21 0.12451945E-03 0.97997870E+01</pdfrwt>
<pdfrwt beam="2">  1       21 0.21218861E-01 0.97997870E+01</pdfrwt>
<totfact> 0.80411758E+08</totfact>
</mgrwt>
</event>
<event>
 4    1  0.3900819E+006  0.5018444E+01  0.7546771E-02  0.2563892E+00
         21   -1    0    0  503  502  0.00000000000E+00  0.00000000000E+00  0.44662744206E+02  0.44662744206E+02  0.00000000000E+00 0. -1.
         21   -1    0    0  501  503 -0.00000000000E+00 -0.00000000000E+00 -0.14113811722E+01  0.14113811722E+01  0.00000000000E+00 0. -1.
          5    1    1    2  501    0  0.16594970001E+01  0.58382316556E+00  0.37742486453E+01  0.62793098840E+01  0.47000000000E+01 0. -1.
         -5    1    1    2    0  502 -0.16594970001E+01 -0.58382316556E+00  0.39477114389E+02  0.39794815495E+02  0.47000000000E+01 0. -1.
<mgrwt>
<rscale>  2 0.50184440E+01</rscale>
<asrwt>0</asrwt>
<pdfrwt beam="1">  1       21 0.68711903E-02 0.50184440E+01</pdfrwt>
<pdfrwt beam="2">  1       21 0.21713560E-03 0.50184440E+01</pdfrwt>
<totfact> 0.13673416E+09</totfact>
</mgrwt>
</event>
<event>
 4    1  0.3900819E+006  0.5103574E+01  0.7546771E-02  0.2549102E+00
         21   -1    0    0  501  502  0.00000000000E+00  0.00000000000E+00  0.29221597184E+02  0.29221597184E+02  0.00000000000E+00 0. -1.
         21   -1    0    0  502  503 -0.00000000000E+00 -0.00000000000E+00 -0.89653224747E+00  0.89653224747E+00  0.00000000000E+00 0. -1.
          5    1    1    2  501    0  0.71829050852E+00 -0.18548654474E+01  0.13016845891E+02  0.13981585891E+02  0.47000000000E+01 0.  1.
         -5    1    1    2    0  503 -0.71829050852E+00  0.18548654474E+01  0.15308219046E+02  0.16136543540E+02  0.47000000000E+01 0.  1.
<mgrwt>
<rscale>  2 0.51035740E+01</rscale>
<asrwt>0</asrwt>
<pdfrwt beam="1">  1       21 0.44956296E-02 0.51035740E+01</pdfrwt>
<pdfrwt beam="2">  1       21 0.13792806E-03 0.51035740E+01</pdfrwt>
<totfact> 0.47701057E+09</totfact>
</mgrwt>
</event>
<event>
 4    1  0.3900819E+006  0.4893368E+01  0.7546771E-02  0.2586425E+00
         21   -1    0    0  501  502  0.00000000000E+00  0.00000000000E+00  0.33385230171E+00  0.33385230171E+00  0.00000000000E+00 0. -1.
         21   -1    0    0  502  503 -0.00000000000E+00 -0.00000000000E+00 -0.77037355852E+02  0.77037355852E+02  0.00000000000E+00 0. -1.
          5    1    1    2  501    0 -0.80736904763E+00  0.10969079156E+01 -0.28191509843E+02  0.28613043861E+02  0.47000000000E+01 0. -1.
         -5    1    1    2    0  503  0.80736904763E+00 -0.10969079156E+01 -0.48511993707E+02  0.48758164293E+02  0.47000000000E+01 0. -1.
<mgrwt>
<rscale>  2 0.48933681E+01</rscale>
<asrwt>0</asrwt>
<pdfrwt beam="1">  1       21 0.51361918E-04 0.48933681E+01</pdfrwt>
<pdfrwt beam="2">  1       21 0.11851895E-01 0.48933681E+01</pdfrwt>
<totfact> 0.40062714E+09</totfact>
</mgrwt>
</event>
<event>
 4    1  0.3900819E+006  0.5567974E+01  0.7546771E-02  0.2475290E+00
         21   -1    0    0  503  502  0.00000000000E+00  0.00000000000E+00  0.71131443344E+01  0.71131443344E+01  0.00000000000E+00 0.  1.
         21   -1    0    0  501  503 -0.00000000000E+00 -0.00000000000E+00 -0.94775256381E+01  0.94775256381E+01  0.00000000000E+00 0.  1.
          5    1    1    2  501    0  0.11281672000E+01 -0.27639787870E+01 -0.72787089795E+01  0.91641663219E+01  0.47000000000E+01 0.  1.
         -5    1    1    2    0  502 -0.11281672000E+01  0.27639787870E+01  0.49143276759E+01  0.74265036506E+01  0.47000000000E+01 0.  1.
<mgrwt>
<rscale>  2 0.55679745E+01</rscale>
<asrwt>0</asrwt>
<pdfrwt beam="1">  1       21 0.10943299E-02 0.55679745E+01</pdfrwt>
<pdfrwt beam="2">  1       21 0.14580809E-02 0.55679745E+01</pdfrwt>
<totfact> 0.15261451E+09</totfact>
</mgrwt>
</event>
<event>
 4    1  0.3900819E+006  0.4867884E+01  0.7546771E-02  0.2591138E+00
         21   -1    0    0  501  502  0.00000000000E+00  0.00000000000E+00  0.60499474582E-01  0.60499474582E-01  0.00000000000E+00 0.  1.
         21   -1    0    0  502  503 -0.00000000000E+00 -0.00000000000E+00 -0.39304207896E+03  0.39304207896E+03  0.00000000000E+00 0.  1.
          5    1    1    2  501    0 -0.91185977305E+00 -0.88023144139E+00 -0.18491042197E+03  0.18497448594E+03  0.47000000000E+01 0.  1.
         -5    1    1    2    0  503  0.91185977305E+00  0.88023144139E+00 -0.20807115752E+03  0.20812809249E+03  0.47000000000E+01 0.  1.
<mgrwt>
<rscale>  2 0.48678841E+01</rscale>
<asrwt>0</asrwt>
<pdfrwt beam="1">  1       21 0.93073792E-05 0.48678841E+01</pdfrwt>
<pdfrwt beam="2">  1       21 0.60469521E-01 0.48678841E+01</pdfrwt>
<totfact> 0.26029237E+09</totfact>
</mgrwt>
</event>
<event>
 4    1  0.3900819E+006  0.6595325E+01  0.7546771E-02  0.2343833E+00
         21   -1    0    0  501  502  0.00000000000E+00  0.00000000000E+00  0.14071752161E+01  0.14071752161E+01  0.00000000000E+00 0.  1.
         21   -1    0    0  502  503 -0.00000000000E+00 -0.00000000000E+00 -0.31002689630E+02  0.31002689630E+02  0.00000000000E+00 0. -1.
          5    1    1    2  501    0  0.40020863025E+01 -0.23219845753E+01 -0.13920302758E+02  0.15403672810E+02  0.47000000000E+01 0.  1.
         -5    1    1    2    0  503 -0.40020863025E+01  0.23219845753E+01 -0.15675211656E+02  0.17006192037E+02  0.47000000000E+01 0. -1.
<mgrwt>
<rscale>  2 0.65953246E+01</rscale>
<asrwt>0</asrwt>
<pdfrwt beam="1">  1       21 0.21648852E-03 0.65953246E+01</pdfrwt>
<pdfrwt beam="2">  1       21 0.47696441E-02 0.65953246E+01</pdfrwt>
<totfact> 0.30039202E+09</totfact>
</mgrwt>
</event>
<event>
 4    1  0.3900819E+006  0.1161861E+02  0.7546771E-02  0.1993103E+00
         21   -1    0    0  503  502  0.00000000000E+00  0.00000000000E+00  0.10386054552E+01  0.10386054552E+01  0.00000000000E+00 0. -1.
         21   -1    0    0  501  503 -0.00000000000E+00 -0.00000000000E+00 -0.14900213628E+03  0.14900213628E+03  0.00000000000E+00 0.  1.
          5    1    1    2  501    0  0.55005656237E+01 -0.90909722571E+01 -0.10079059554E+03  0.10145805118E+03  0.47000000000E+01 0.  1.
         -5    1    1    2    0  502 -0.55005656237E+01  0.90909722571E+01 -0.47172935282E+02  0.48582690559E+02  0.47000000000E+01 0. -1.
<mgrwt>
<rscale>  2 0.11618606E+02</rscale>
<asrwt>0</asrwt>
<pdfrwt beam="1">  1       21 0.15978550E-03 0.11618606E+02</pdfrwt>
<pdfrwt beam="2">  1       21 0.22923399E-01 0.11618606E+02</pdfrwt>
<totfact> 0.54398464E+08</totfact>
</mgrwt>
</event>
<event>
 4    1  0.3900819E+006  0.7428259E+01  0.7546771E-02  0.2259869E+00
         21   -1    0    0  503  502  0.00000000000E+00  0.00000000000E+00  0.47976173117E+02  0.47976173117E+02  0.00000000000E+00 0.  1.
         21   -1    0    0  501  503 -0.00000000000E+00 -0.00000000000E+00 -0.11797076363E+01  0.11797076363E+01  0.00000000000E+00 0.  1.
          5    1    1    2  501    0 -0.17868216544E+01 -0.54677515374E+01  0.27289661024E+02  0.28282585407E+02  0.47000000000E+01 0.  1.
         -5    1    1    2    0  502  0.17868216544E+01  0.54677515374E+01  0.19506804457E+02  0.20873295347E+02  0.47000000000E+01 0.  1.
<mgrwt>
<rscale>  2 0.74282595E+01</rscale>
<asrwt>0</asrwt>
<pdfrwt beam="1">  1       21 0.73809482E-02 0.74282595E+01</pdfrwt>
<pdfrwt beam="2">  1       21 0.18149352E-03 0.74282595E+01</pdfrwt>
<totfact> 0.21691054E+09</totfact>
</mgrwt>
</event>
<event>
 4    1  0.3900819E+006  0.1007230E+02  0.7546771E-02  0.2070896E+00
         21   -1    0    0  503  502  0.00000000000E+00  0.00000000000E+00  0.11278468620E+03  0.11278468620E+03  0.00000000000E+00 0. -1.
         21   -1    0    0  501  503 -0.00000000000E+00 -0.00000000000E+00 -0.90539960345E+00  0.90539960345E+00  0.00000000000E+00 0.  1.
          5    1    1    2  501    0 -0.60506442417E+01 -0.65384188384E+01  0.60523481724E+02  0.61355872226E+02  0.47000000000E+01 0. -1.
         -5    1    1    2    0  502  0.60506442417E+01  0.65384188384E+01  0.51355804875E+02  0.52334213580E+02  0.47000000000E+01 0.  1.
<mgrwt>
<rscale>  2 0.10072299E+02</rscale>
<asrwt>0</asrwt>
<pdfrwt beam="1">  1       21 0.17351479E-01 0.10072299E+02</pdfrwt>
<pdfrwt beam="2">  1       21 0.13929234E-03 0.10072299E+02</pdfrwt>
<totfact> 0.97710418E+08</totfact>
</mgrwt>
</event>
<event>
 4    1  0.3900819E+006  0.7448152E+01  0.7546771E-02  0.2258052E+00
         21   -1    0    0  501  502  0.00000000000E+00  0.00000000000E+00  0.71875483275E+03  0.71875483275E+03  0.00000000000E+00 0.  1.
         21   -1    0    0  502  503 -0.00000000000E+00 -0.00000000000E+00 -0.14264529883E+00  0.14264529883E+00  0.00000000000E+00 0. -1.
          5    1    1    2  501    0  0.62790553574E+00  0.57437534701E+01  0.60281060982E+03  0.60285662166E+03  0.47000000000E+01 0.  1.
         -5    1    1    2    0  503 -0.62790553574E+00 -0.57437534701E+01  0.11580157763E+03  0.11604085638E+03  0.47000000000E+01 0. -1.
<mgrwt>
<rscale>  2 0.74481521E+01</rscale>
<asrwt>0</asrwt>
<pdfrwt beam="1">  1       21 0.11057477E+00 0.74481521E+01</pdfrwt>
<pdfrwt beam="2">  1       21 0.21946006E-04 0.74481521E+01</pdfrwt>
<totfact> 0.34393539E+08</totfact>
</mgrwt>
</event>
<event>
 4    1  0.3900819E+006  0.5148062E+01  0.7546771E-02  0.2541540E+00
         21   -1    0    0  503  502  0.00000000000E+00  0.00000000000E+00  0.86813604298E+03  0.86813604298E+03  0.00000000000E+00 0.  1.
         21   -1    0    0  501  503 -0.00000000000E+00 -0.00000000000E+00 -0.52454771405E-01  0.52454771405E-01  0.00000000000E+00 0.  1.
          5    1    1    2  501    0 -0.49722348777E+00 -0.20409092520E+01  0.15338348037E+03  0.15346984913E+03  0.47000000000E+01 0.  1.
         -5    1    1    2    0  502  0.49722348777E+00  0.20409092520E+01  0.71470010784E+03  0.71471864863E+03  0.47000000000E+01 0.  1.
<mgrwt>
<rscale>  2 0.51480619E+01</rscale>
<asrwt>0</asrwt>
<pdfrwt beam="1">  1       21 0.13354789E+00 0.51480619E+01</pdfrwt>
<pdfrwt beam="2">  1       21 0.80706601E-05 0.51480619E+01</pdfrwt>
<totfact> 0.69676072E+08</totfact>
</mgrwt>
</event>
<event>
 4    1  0.3900819E+006  0.5146921E+01  0.7546771E-02  0.2541732E+00
         21   -1    0    0  501  502  0.00000000000E+00  0.00000000000E+00  0.32887644396E+00  0.32887644396E+00  0.00000000000E+00 0. -1.
         21   -1    0    0  502  503 -0.00000000000E+00 -0.00000000000E+00 -0.28695909682E+03  0.28695909682E+03  0.00000000000E+00 0. -1.
          5    1    1    2  501    0 -0.12728665424E+01  0.16675151193E+01 -0.21488400953E+02  0.22096202647E+02  0.47000000000E+01 0. -1.
         -5    1    1    2    0  503  0.12728665424E+01 -0.16675151193E+01 -0.26514181942E+03  0.26519177061E+03  0.47000000000E+01 0. -1.
<mgrwt>
<rscale>  2 0.51469210E+01</rscale>
<asrwt>0</asrwt>
<pdfrwt beam="1">  1       21 0.50596175E-04 0.51469210E+01</pdfrwt>
<pdfrwt beam="2">  1       21 0.44147728E-01 0.51469210E+01</pdfrwt>
<totfact> 0.50827097E+08</totfact>
</mgrwt>
</event>
<event>
 4    1  0.3900819E+006  0.4933971E+01  0.7546771E-02  0.2579002E+00
         21   -1    0    0  503  502  0.00000000000E+00  0.00000000000E+00  0.22934351613E+01  0.22934351613E+01  0.00000000000E+00 0.  1.
         21   -1    0    0  501  503 -0.00000000000E+00 -0.00000000000E+00 -0.18332006564E+02  0.18332006564E+02  0.00000000000E+00 0.  1.
          5    1    1    2  501    0  0.39925938104E+00 -0.14472953130E+01 -0.14710451708E+02  0.15515845489E+02  0.47000000000E+01 0.  1.
         -5    1    1    2    0  502 -0.39925938104E+00  0.14472953130E+01 -0.13281196944E+01  0.51095962364E+01  0.47000000000E+01 0.  1.
<mgrwt>
<rscale>  2 0.49339712E+01</rscale>
<asrwt>0</asrwt>
<pdfrwt beam="1">  1       21 0.35283619E-03 0.49339712E+01</pdfrwt>
<pdfrwt beam="2">  1       21 0.28203086E-02 0.49339712E+01</pdfrwt>
<totfact> 0.25443371E+09</totfact>
</mgrwt>
</event>
<event>
 4    1  0.3900819E+006  0.4972014E+01  0.7546771E-02  0.2572143E+00
         21   -1    0    0  503  502  0.00000000000E+00  0.00000000000E+00  0.11600348440E+01  0.11600348440E+01  0.00000000000E+00 0.  1.
         21   -1    0    0  501  503 -0.00000000000E+00 -0.00000000000E+00 -0.41252976549E+02  0.41252976549E+02  0.00000000000E+00 0.  1.
          5    1    1    2  501    0 -0.84545392761E+00 -0.13842435420E+01 -0.34791003578E+02  0.35144485378E+02  0.47000000000E+01 0.  1.
         -5    1    1    2    0  502  0.84545392761E+00  0.13842435420E+01 -0.53019381270E+01  0.72685260149E+01  0.47000000000E+01 0.  1.
<mgrwt>
<rscale>  2 0.49720139E+01</rscale>
<asrwt>0</asrwt>
<pdfrwt beam="1">  1       21 0.17846690E-03 0.49720139E+01</pdfrwt>
<pdfrwt beam="2">  1       21 0.63466119E-02 0.49720139E+01</pdfrwt>
<totfact> 0.19840064E+09</totfact>
</mgrwt>
</event>
<event>
 4    1  0.3900819E+006  0.5013761E+01  0.7546771E-02  0.2564718E+00
         21   -1    0    0  503  502  0.00000000000E+00  0.00000000000E+00  0.11395714833E+00  0.11395714833E+00  0.00000000000E+00 0.  1.
         21   -1    0    0  501  503 -0.00000000000E+00 -0.00000000000E+00 -0.28529592197E+03  0.28529592197E+03  0.00000000000E+00 0.  1.
          5    1    1    2  501    0 -0.13805161064E+00 -0.17403285100E+01 -0.21055255335E+03  0.21061223973E+03  0.47000000000E+01 0.  1.
         -5    1    1    2    0  502  0.13805161064E+00  0.17403285100E+01 -0.74629411469E+02  0.74797639387E+02  0.47000000000E+01 0.  1.
<mgrwt>
<rscale>  2 0.50137612E+01</rscale>
<asrwt>0</asrwt>
<pdfrwt beam="1">  1       21 0.17531990E-04 0.50137612E+01</pdfrwt>
<pdfrwt beam="2">  1       21 0.43891376E-01 0.50137612E+01</pdfrwt>
<totfact> 0.20460211E+09</totfact>
</mgrwt>
</event>
<event>
 4    1  0.3900819E+006  0.8548158E+01  0.7546771E-02  0.2168444E+00
         21   -1    0    0  501  502  0.00000000000E+00  0.00000000000E+00  0.24657694582E+02  0.24657694582E+02  0.00000000000E+00 0. -1.
         21   -1    0    0  502  503 -0.00000000000E+00 -0.00000000000E+00 -0.31918211397E+01  0.31918211397E+01  0.00000000000E+00 0. -1.
          5    1    1    2  501    0 -0.70687957438E+01 -0.10065455898E+01  0.14457893946E+02  0.16795883563E+02  0.47000000000E+01 0. -1.
         -5    1    1    2    0  503  0.70687957438E+01  0.10065455898E+01  0.70079794961E+01  0.11053632159E+02  0.47000000000E+01 0. -1.
<mgrwt>
<rscale>  2 0.85481581E+01</rscale>
<asrwt>0</asrwt>
<pdfrwt beam="1">  1       21 0.37934914E-02 0.85481581E+01</pdfrwt>
<pdfrwt beam="2">  1       21 0.49104942E-03 0.85481581E+01</pdfrwt>
<totfact> 0.16362503E+09</totfact>
</mgrwt>
</event>
<event>
 4    1  0.3900819E+006  0.4937853E+01  0.7546771E-02  0.2578298E+00
         21   -1    0    0  501  502  0.00000000000E+00  0.00000000000E+00  0.10260529748E+02  0.10260529748E+02  0.00000000000E+00 0.  1.
         21   -1    0    0  502  503 -0.00000000000E+00 -0.00000000000E+00 -0.23948534344E+01  0.23948534344E+01  0.00000000000E+00 0.  1.
          5    1    1    2  501    0  0.13044353947E+01 -0.76866464880E+00  0.44893511249E+01  0.66735800410E+01  0.47000000000E+01 0.  1.
         -5    1    1    2    0  503 -0.13044353947E+01  0.76866464880E+00  0.33763251884E+01  0.59818031411E+01  0.47000000000E+01 0.  1.
<mgrwt>
<rscale>  2 0.49378535E+01</rscale>
<asrwt>0</asrwt>
<pdfrwt beam="1">  1       21 0.15785430E-02 0.49378535E+01</pdfrwt>
<pdfrwt beam="2">  1       21 0.36843900E-03 0.49378535E+01</pdfrwt>
<totfact> 0.54700142E+09</totfact>
</mgrwt>
</event>
<event>
 4    1  0.3900819E+006  0.8337604E+01  0.7546771E-02  0.2184116E+00
         21   -1    0    0  503  502  0.00000000000E+00  0.00000000000E+00  0.29588696638E+03  0.29588696638E+03  0.00000000000E+00 0. -1.
         21   -1    0    0  501  503 -0.00000000000E+00 -0.00000000000E+00 -0.59096821574E+00  0.59096821574E+00  0.00000000000E+00 0. -1.
          5    1    1    2  501    0  0.63637934178E+01 -0.26320650798E+01  0.32588459393E+02  0.33638122998E+02  0.47000000000E+01 0. -1.
         -5    1    1    2    0  502 -0.63637934178E+01  0.26320650798E+01  0.26270753877E+03  0.26283981160E+03  0.47000000000E+01 0. -1.
<mgrwt>
<rscale>  2 0.83376036E+01</rscale>
<asrwt>0</asrwt>
<pdfrwt beam="1">  1       21 0.45520953E-01 0.83376036E+01</pdfrwt>
<pdfrwt beam="2">  1       21 0.90918423E-04 0.83376036E+01</pdfrwt>
<totfact> 0.30010019E+08</totfact>
</mgrwt>
</event>
<event>
 4    1  0.3900819E+006  0.1000928E+02  0.7546771E-02  0.2074460E+00
         21   -1    0    0  501  502  0.00000000000E+00  0.00000000000E+00  0.15953682533E+01  0.15953682533E+01  0.00000000000E+00 0. -1.
         21   -1    0    0  502  503 -0.00000000000E+00 -0.00000000000E+00 -0.65227595724E+02  0.65227595724E+02  0.00000000000E+00 0.  1.
          5    1    1    2  501    0  0.32227066388E+01 -0.82286025512E+01 -0.38264605178E+02  0.39552063757E+02  0.47000000000E+01 0.  1.
         -5    1    1    2    0  503 -0.32227066388E+01  0.82286025512E+01 -0.25367622293E+02  0.27270900220E+02  0.47000000000E+01 0. -1.
<mgrwt>
<rscale>  2 0.10009283E+02</rscale>
<asrwt>0</asrwt>
<pdfrwt beam="1">  1       21 0.24544124E-03 0.10009283E+02</pdfrwt>
<pdfrwt beam="2">  1       21 0.10035016E-01 0.10009283E+02</pdfrwt>
<totfact> 0.10714429E+09</totfact>
</mgrwt>
</event>
<event>
 4    1  0.3900819E+006  0.6243651E+01  0.7546771E-02  0.2384751E+00
         21   -1    0    0  501  502  0.00000000000E+00  0.00000000000E+00  0.70053830646E+02  0.70053830646E+02  0.00000000000E+00 0. -1.
         21   -1    0    0  502  503 -0.00000000000E+00 -0.00000000000E+00 -0.36132484470E+01  0.36132484470E+01  0.00000000000E+00 0.  1.
          5    1    1    2  501    0 -0.14866379982E+01  0.38318515447E+01  0.67098948841E+02  0.67388812976E+02  0.47000000000E+01 0. -1.
         -5    1    1    2    0  503  0.14866379982E+01 -0.38318515447E+01 -0.65836664184E+00  0.62782661168E+01  0.47000000000E+01 0.  1.
<mgrwt>
<rscale>  2 0.62436511E+01</rscale>
<asrwt>0</asrwt>
<pdfrwt beam="1">  1       21 0.10777511E-01 0.62436511E+01</pdfrwt>
<pdfrwt beam="2">  1       21 0.55588443E-03 0.62436511E+01</pdfrwt>
<totfact> 0.22725145E+08</totfact>
</mgrwt>
</event>
<event>
 4    1  0.3900819E+006  0.4948661E+01  0.7546771E-02  0.2576343E+00
         21   -1    0    0  503  502  0.00000000000E+00  0.00000000000E+00  0.72100131811E+00  0.72100131811E+00  0.00000000000E+00 0.  1.
         21   -1    0    0  501  503 -0.00000000000E+00 -0.00000000000E+00 -0.34155684510E+02  0.34155684510E+02  0.00000000000E+00 0.  1.
          5    1    1    2  501    0  0.15301699987E+01 -0.24046041990E+00 -0.15416427686E+02  0.16191216262E+02  0.47000000000E+01 0.  1.
         -5    1    1    2    0  502 -0.15301699987E+01  0.24046041990E+00 -0.18018255507E+02  0.18685469567E+02  0.47000000000E+01 0.  1.
<mgrwt>
<rscale>  2 0.49486606E+01</rscale>
<asrwt>0</asrwt>
<pdfrwt beam="1">  1       21 0.11092328E-03 0.49486606E+01</pdfrwt>
<pdfrwt beam="2">  1       21 0.52547206E-02 0.49486606E+01</pdfrwt>
<totfact> 0.49180873E+09</totfact>
</mgrwt>
</event>
<event>
 4    1  0.3900819E+006  0.1183289E+02  0.7546771E-02  0.1983583E+00
         21   -1    0    0  501  502  0.00000000000E+00  0.00000000000E+00  0.27880966288E+01  0.27880966288E+01  0.00000000000E+00 0.  1.
         21   -1    0    0  502  503 -0.00000000000E+00 -0.00000000000E+00 -0.50992240005E+02  0.50992240005E+02  0.00000000000E+00 0. -1.
          5    1    1    2  501    0 -0.18795909246E+01 -0.10695532925E+02 -0.20792201166E+02  0.23923480431E+02  0.47000000000E+01 0.  1.
         -5    1    1    2    0  503  0.18795909246E+01  0.10695532925E+02 -0.27411942210E+02  0.29856856203E+02  0.47000000000E+01 0. -1.
<mgrwt>
<rscale>  2 0.11832890E+02</rscale>
<asrwt>0</asrwt>
<pdfrwt beam="1">  1       21 0.42893794E-03 0.11832890E+02</pdfrwt>
<pdfrwt beam="2">  1       21 0.78449600E-02 0.11832890E+02</pdfrwt>
<totfact> 0.78468309E+08</totfact>
</mgrwt>
</event>
<event>
 4    1  0.3900819E+006  0.4946081E+01  0.7546771E-02  0.2576809E+00
         21   -1    0    0  501  502  0.00000000000E+00  0.00000000000E+00  0.60278886549E+01  0.60278886549E+01  0.00000000000E+00 0. -1.
         21   -1    0    0  502  503 -0.00000000000E+00 -0.00000000000E+00 -0.12530234595E+02  0.12530234595E+02  0.00000000000E+00 0. -1.
          5    1    1    2  501    0  0.10893221352E+01  0.10895366868E+01  0.43786180172E+01  0.66057557211E+01  0.47000000000E+01 0. -1.
         -5    1    1    2    0  503 -0.10893221352E+01 -0.10895366868E+01 -0.10880963957E+02  0.11952367529E+02  0.47000000000E+01 0. -1.
<mgrwt>
<rscale>  2 0.49460806E+01</rscale>
<asrwt>0</asrwt>
<pdfrwt beam="1">  1       21 0.92736750E-03 0.49460806E+01</pdfrwt>
<pdfrwt beam="2">  1       21 0.19277284E-02 0.49460806E+01</pdfrwt>
<totfact> 0.11591477E+09</totfact>
</mgrwt>
</event>
<event>
 4    1  0.3900819E+006  0.5288808E+01  0.7546771E-02  0.2518336E+00
         21   -1    0    0  501  502  0.00000000000E+00  0.00000000000E+00  0.14187529160E+02  0.14187529160E+02  0.00000000000E+00 0. -1.
         21   -1    0    0  502  503 -0.00000000000E+00 -0.00000000000E+00 -0.23136372258E+01  0.23136372258E+01  0.00000000000E+00 0. -1.
          5    1    1    2  501    0  0.15470620876E+01  0.18676417208E+01  0.91094530455E+01  0.10533452496E+02  0.47000000000E+01 0. -1.
         -5    1    1    2    0  503 -0.15470620876E+01 -0.18676417208E+01  0.27644388889E+01  0.59677138898E+01  0.47000000000E+01 0. -1.
<mgrwt>
<rscale>  2 0.52888077E+01</rscale>
<asrwt>0</asrwt>
<pdfrwt beam="1">  1       21 0.21826968E-02 0.52888077E+01</pdfrwt>
<pdfrwt beam="2">  1       21 0.35594420E-03 0.52888077E+01</pdfrwt>
<totfact> 0.38907702E+09</totfact>
</mgrwt>
</event>
<event>
 4    1  0.3900819E+006  0.4936478E+01  0.7546771E-02  0.2578547E+00
         21   -1    0    0  503  502  0.00000000000E+00  0.00000000000E+00  0.25012522773E+00  0.25012522773E+00  0.00000000000E+00 0. -1.
         21   -1    0    0  501  503 -0.00000000000E+00 -0.00000000000E+00 -0.10630195725E+03  0.10630195725E+03  0.00000000000E+00 0. -1.
          5    1    1    2  501    0 -0.12526383324E+01  0.84244275854E+00 -0.37631686872E+02  0.37954086334E+02  0.47000000000E+01 0. -1.
         -5    1    1    2    0  502  0.12526383324E+01 -0.84244275854E+00 -0.68420145147E+02  0.68597996141E+02  0.47000000000E+01 0. -1.
<mgrwt>
<rscale>  2 0.49364778E+01</rscale>
<asrwt>0</asrwt>
<pdfrwt beam="1">  1       21 0.38480809E-04 0.49364778E+01</pdfrwt>
<pdfrwt beam="2">  1       21 0.16354145E-01 0.49364778E+01</pdfrwt>
<totfact> 0.36030183E+09</totfact>
</mgrwt>
</event>
<event>
 4    1  0.3900819E+006  0.5441966E+01  0.7546771E-02  0.2494255E+00
         21   -1    0    0  503  502  0.00000000000E+00  0.00000000000E+00  0.50212367075E+00  0.50212367075E+00  0.00000000000E+00 0.  1.
         21   -1    0    0  501  503 -0.00000000000E+00 -0.00000000000E+00 -0.72418065260E+02  0.72418065260E+02  0.00000000000E+00 0.  1.
          5    1    1    2  501    0  0.25183364402E+01 -0.10876477941E+01 -0.51664166499E+02  0.51949986489E+02  0.47000000000E+01 0.  1.
         -5    1    1    2    0  502 -0.25183364402E+01  0.10876477941E+01 -0.20251775090E+02  0.20970202442E+02  0.47000000000E+01 0.  1.
<mgrwt>
<rscale>  2 0.54419662E+01</rscale>
<asrwt>0</asrwt>
<pdfrwt beam="1">  1       21 0.77249814E-04 0.54419662E+01</pdfrwt>
<pdfrwt beam="2">  1       21 0.11141238E-01 0.54419662E+01</pdfrwt>
<totfact> 0.28411411E+09</totfact>
</mgrwt>
</event>
<event>
 4    1  0.3900819E+006  0.5066410E+01  0.7546771E-02  0.2555506E+00
         21   -1    0    0  503  502  0.00000000000E+00  0.00000000000E+00  0.37840168448E+00  0.37840168448E+00  0.00000000000E+00 0. -1.
         21   -1    0    0  501  503 -0.00000000000E+00 -0.00000000000E+00 -0.67879642725E+02  0.67879642725E+02  0.00000000000E+00 0.  1.
          5    1    1    2  501    0 -0.16195180260E+01 -0.97758677799E+00 -0.32866003675E+02  0.33254213449E+02  0.47000000000E+01 0. -1.
         -5    1    1    2    0  502  0.16195180260E+01  0.97758677799E+00 -0.34635237365E+02  0.35003830960E+02  0.47000000000E+01 0. -1.
<mgrwt>
<rscale>  2 0.50664104E+01</rscale>
<asrwt>0</asrwt>
<pdfrwt beam="1">  1       21 0.58215683E-04 0.50664104E+01</pdfrwt>
<pdfrwt beam="2">  1       21 0.10443015E-01 0.50664104E+01</pdfrwt>
<totfact> 0.42620360E+09</totfact>
</mgrwt>
</event>
<event>
 4    1  0.3900819E+006  0.6755916E+01  0.7546771E-02  0.2326328E+00
         21   -1    0    0  501  502  0.00000000000E+00  0.00000000000E+00  0.65875129608E+01  0.65875129608E+01  0.00000000000E+00 0.  1.
         21   -1    0    0  502  503 -0.00000000000E+00 -0.00000000000E+00 -0.69365042665E+01  0.69365042665E+01  0.00000000000E+00 0.  1.
          5    1    1    2  501    0  0.24630341641E+01  0.41816109134E+01  0.53406125731E-01  0.67561275402E+01  0.47000000000E+01 0.  1.
         -5    1    1    2    0  503 -0.24630341641E+01 -0.41816109134E+01 -0.40239743139E+00  0.67678896872E+01  0.47000000000E+01 0.  1.
<mgrwt>
<rscale>  2 0.67559165E+01</rscale>
<asrwt>0</asrwt>
<pdfrwt beam="1">  1       21 0.10134635E-02 0.67559165E+01</pdfrwt>
<pdfrwt beam="2">  1       21 0.10671545E-02 0.67559165E+01</pdfrwt>
<totfact> 0.31276394E+09</totfact>
</mgrwt>
</event>
<event>
 4    1  0.3900819E+006  0.5018958E+01  0.7546771E-02  0.2563802E+00
         21   -1    0    0  501  502  0.00000000000E+00  0.00000000000E+00  0.99205220916E+00  0.99205220916E+00  0.00000000000E+00 0. -1.
         21   -1    0    0  502  503 -0.00000000000E+00 -0.00000000000E+00 -0.78277091468E+02  0.78277091468E+02  0.00000000000E+00 0. -1.
          5    1    1    2  501    0 -0.86572594725E+00 -0.15331196427E+01 -0.60645131305E+01  0.78719919185E+01  0.47000000000E+01 0. -1.
         -5    1    1    2    0  503  0.86572594725E+00  0.15331196427E+01 -0.71220526128E+02  0.71397151759E+02  0.47000000000E+01 0. -1.
<mgrwt>
<rscale>  2 0.50189578E+01</rscale>
<asrwt>0</asrwt>
<pdfrwt beam="1">  1       21 0.15262337E-03 0.50189578E+01</pdfrwt>
<pdfrwt beam="2">  1       21 0.12042633E-01 0.50189578E+01</pdfrwt>
<totfact> 0.94323471E+08</totfact>
</mgrwt>
</event>
<event>
 4    1  0.3900819E+006  0.2463682E+02  0.7546771E-02  0.1666274E+00
         21   -1    0    0  503  502  0.00000000000E+00  0.00000000000E+00  0.48624274263E+02  0.48624274263E+02  0.00000000000E+00 0. -1.
         21   -1    0    0  501  503 -0.00000000000E+00 -0.00000000000E+00 -0.19781375234E+02  0.19781375234E+02  0.00000000000E+00 0.  1.
          5    1    1    2  501    0 -0.22497665648E+02  0.88734283958E+01 -0.63539484805E+01  0.25442982381E+02  0.47000000000E+01 0.  1.
         -5    1    1    2    0  502  0.22497665648E+02 -0.88734283958E+01  0.35196847509E+02  0.42962667116E+02  0.47000000000E+01 0. -1.
<mgrwt>
<rscale>  2 0.24636816E+02</rscale>
<asrwt>0</asrwt>
<pdfrwt beam="1">  1       21 0.74806575E-02 0.24636816E+02</pdfrwt>
<pdfrwt beam="2">  1       21 0.30432885E-02 0.24636816E+02</pdfrwt>
<totfact> 0.59709478E+07</totfact>
</mgrwt>
</event>
<event>
 4    1  0.3900819E+006  0.5234717E+01  0.7546771E-02  0.2527127E+00
         21   -1    0    0  503  502  0.00000000000E+00  0.00000000000E+00  0.40322508192E+03  0.40322508192E+03  0.00000000000E+00 0. -1.
         21   -1    0    0  501  503 -0.00000000000E+00 -0.00000000000E+00 -0.92734523635E-01  0.92734523635E-01  0.00000000000E+00 0. -1.
          5    1    1    2  501    0  0.72521965654E-01  0.23036936052E+01  0.97329825441E+02  0.97470493915E+02  0.47000000000E+01 0. -1.
         -5    1    1    2    0  502 -0.72521965654E-01 -0.23036936052E+01  0.30580252195E+03  0.30584732253E+03  0.47000000000E+01 0. -1.
<mgrwt>
<rscale>  2 0.52347172E+01</rscale>
<asrwt>0</asrwt>
<pdfrwt beam="1">  1       21 0.62033224E-01 0.52347172E+01</pdfrwt>
<pdfrwt beam="2">  1       21 0.14267173E-04 0.52347172E+01</pdfrwt>
<totfact> 0.15001092E+09</totfact>
</mgrwt>
</event>
<event>
 4    1  0.3900819E+006  0.6487314E+01  0.7546771E-02  0.2356009E+00
         21   -1    0    0  503  502  0.00000000000E+00  0.00000000000E+00  0.84629956433E-01  0.84629956433E-01  0.00000000000E+00 0.  1.
         21   -1    0    0  501  503 -0.00000000000E+00 -0.00000000000E+00 -0.64623017494E+03  0.64623017494E+03  0.00000000000E+00 0.  1.
          5    1    1    2  501    0 -0.15980040194E+01 -0.41763177663E+01 -0.16792946751E+03  0.16805472711E+03  0.47000000000E+01 0.  1.
         -5    1    1    2    0  502  0.15980040194E+01  0.41763177663E+01 -0.47821607747E+03  0.47826007778E+03  0.47000000000E+01 0.  1.
<mgrwt>
<rscale>  2 0.64873143E+01</rscale>
<asrwt>0</asrwt>
<pdfrwt beam="1">  1       21 0.13020381E-04 0.64873143E+01</pdfrwt>
<pdfrwt beam="2">  1       21 0.99417064E-01 0.64873143E+01</pdfrwt>
<totfact> 0.79394295E+08</totfact>
</mgrwt>
</event>
<event>
 4    1  0.3900819E+006  0.5014072E+01  0.7546771E-02  0.2564663E+00
         21   -1    0    0  501  502  0.00000000000E+00  0.00000000000E+00  0.64983545439E+03  0.64983545439E+03  0.00000000000E+00 0. -1.
         21   -1    0    0  502  503 -0.00000000000E+00 -0.00000000000E+00 -0.41414701560E-01  0.41414701560E-01  0.00000000000E+00 0. -1.
          5    1    1    2  501    0 -0.14809422430E+01  0.92613824119E+00  0.40827125165E+03  0.40830203997E+03  0.47000000000E+01 0. -1.
         -5    1    1    2    0  503  0.14809422430E+01 -0.92613824119E+00  0.24152278803E+03  0.24157482912E+03  0.47000000000E+01 0. -1.
<mgrwt>
<rscale>  2 0.50140724E+01</rscale>
<asrwt>0</asrwt>
<pdfrwt beam="1">  1       21 0.99966520E-01 0.50140724E+01</pdfrwt>
<pdfrwt beam="2">  1       21 0.63720130E-05 0.50140724E+01</pdfrwt>
<totfact> 0.16945477E+09</totfact>
</mgrwt>
</event>
<event>
 4    1  0.3900819E+006  0.5952143E+01  0.7546771E-02  0.2421694E+00
         21   -1    0    0  501  502  0.00000000000E+00  0.00000000000E+00  0.25755149679E+01  0.25755149679E+01  0.00000000000E+00 0. -1.
         21   -1    0    0  502  503 -0.00000000000E+00 -0.00000000000E+00 -0.41611727466E+02  0.41611727466E+02  0.00000000000E+00 0.  1.
          5    1    1    2  501    0  0.24668148905E+01 -0.26931072055E+01 -0.14414270888E+01  0.61241908997E+01  0.47000000000E+01 0. -1.
         -5    1    1    2    0  503 -0.24668148905E+01  0.26931072055E+01 -0.37594785410E+02  0.38063051535E+02  0.47000000000E+01 0.  1.
<mgrwt>
<rscale>  2 0.59521426E+01</rscale>
<asrwt>0</asrwt>
<pdfrwt beam="1">  1       21 0.39623307E-03 0.59521426E+01</pdfrwt>
<pdfrwt beam="2">  1       21 0.64018042E-02 0.59521426E+01</pdfrwt>
<totfact> 0.77517530E+08</totfact>
</mgrwt>
</event>
<event>
 4    1  0.3900819E+006  0.6987653E+01  0.7546771E-02  0.2302240E+00
         21   -1    0    0  501  502  0.00000000000E+00  0.00000000000E+00  0.54198673864E+01  0.54198673864E+01  0.00000000000E+00 0.  1.
         21   -1    0    0  502  503 -0.00000000000E+00 -0.00000000000E+00 -0.10401988046E+02  0.10401988046E+02  0.00000000000E+00 0.  1.
          5    1    1    2  501    0 -0.44583873755E+01  0.26191748240E+01  0.40395782865E+00  0.69993197295E+01  0.47000000000E+01 0.  1.
         -5    1    1    2    0  503  0.44583873755E+01 -0.26191748240E+01 -0.53860784887E+01  0.88225357032E+01  0.47000000000E+01 0.  1.
<mgrwt>
<rscale>  2 0.69876530E+01</rscale>
<asrwt>0</asrwt>
<pdfrwt beam="1">  1       21 0.83382575E-03 0.69876530E+01</pdfrwt>
<pdfrwt beam="2">  1       21 0.16003059E-02 0.69876530E+01</pdfrwt>
<totfact> 0.23723336E+09</totfact>
</mgrwt>
</event>
<event>
 4    1  0.3900819E+006  0.6169389E+01  0.7546771E-02  0.2393885E+00
         21   -1    0    0  503  502  0.00000000000E+00  0.00000000000E+00  0.16339967629E+03  0.16339967629E+03  0.00000000000E+00 0.  1.
         21   -1    0    0  501  503 -0.00000000000E+00 -0.00000000000E+00 -0.26318340821E+00  0.26318340821E+00  0.00000000000E+00 0. -1.
          5    1    1    2  501    0  0.32548608951E+01  0.23188881546E+01  0.53825568384E+02  0.54177976831E+02  0.47000000000E+01 0. -1.
         -5    1    1    2    0  502 -0.32548608951E+01 -0.23188881546E+01  0.10931092450E+03  0.10948488287E+03  0.47000000000E+01 0. -1.
<mgrwt>
<rscale>  2 0.61693891E+01</rscale>
<asrwt>0</asrwt>
<pdfrwt beam="1">  1       21 0.25138331E-01 0.61693891E+01</pdfrwt>
<pdfrwt beam="2">  1       21 0.40489886E-04 0.61693891E+01</pdfrwt>
<totfact> 0.20540161E+09</totfact>
</mgrwt>
</event>
<event>
 4    1  0.3900819E+006  0.7158998E+01  0.7546771E-02  0.2285257E+00
         21   -1    0    0  503  502  0.00000000000E+00  0.00000000000E+00  0.71382807351E+01  0.71382807351E+01  0.00000000000E+00 0. -1.
         21   -1    0    0  501  503 -0.00000000000E+00 -0.00000000000E+00 -0.12636916700E+02  0.12636916700E+02  0.00000000000E+00 0.  1.
          5    1    1    2  501    0 -0.53371029466E+01  0.82255105330E+00  0.37482800255E+01  0.80808948296E+01  0.47000000000E+01 0. -1.
         -5    1    1    2    0  502  0.53371029466E+01 -0.82255105330E+00 -0.92469159908E+01  0.11694302606E+02  0.47000000000E+01 0.  1.
<mgrwt>
<rscale>  2 0.71589984E+01</rscale>
<asrwt>0</asrwt>
<pdfrwt beam="1">  1       21 0.10981970E-02 0.71589984E+01</pdfrwt>
<pdfrwt beam="2">  1       21 0.19441410E-02 0.71589984E+01</pdfrwt>
<totfact> 0.12321956E+09</totfact>
</mgrwt>
</event>
<event>
 4    1  0.3900819E+006  0.6615663E+01  0.7546771E-02  0.2341578E+00
         21   -1    0    0  503  502  0.00000000000E+00  0.00000000000E+00  0.16473142127E+01  0.16473142127E+01  0.00000000000E+00 0.  1.
         21   -1    0    0  501  503 -0.00000000000E+00 -0.00000000000E+00 -0.68450850810E+02  0.68450850810E+02  0.00000000000E+00 0.  1.
          5    1    1    2  501    0  0.92892330010E+00  0.45622464202E+01 -0.60817619623E+02  0.61176383087E+02  0.47000000000E+01 0.  1.
         -5    1    1    2    0  502 -0.92892330010E+00 -0.45622464202E+01 -0.59859169734E+01  0.89217819357E+01  0.47000000000E+01 0.  1.
<mgrwt>
<rscale>  2 0.66156625E+01</rscale>
<asrwt>0</asrwt>
<pdfrwt beam="1">  1       21 0.25343300E-03 0.66156625E+01</pdfrwt>
<pdfrwt beam="2">  1       21 0.10530898E-01 0.66156625E+01</pdfrwt>
<totfact> 0.72879781E+08</totfact>
</mgrwt>
</event>
<event>
 4    1  0.3900819E+006  0.5106469E+01  0.7546771E-02  0.2548606E+00
         21   -1    0    0  501  502  0.00000000000E+00  0.00000000000E+00  0.15671207858E+03  0.15671207858E+03  0.00000000000E+00 0. -1.
         21   -1    0    0  502  503 -0.00000000000E+00 -0.00000000000E+00 -0.16796259782E+00  0.16796259782E+00  0.00000000000E+00 0. -1.
          5    1    1    2  501    0  0.17870531578E+01 -0.89020316438E+00  0.85851276546E+02  0.86003009861E+02  0.47000000000E+01 0. -1.
         -5    1    1    2    0  503 -0.17870531578E+01  0.89020316438E+00  0.70692839435E+02  0.70877031315E+02  0.47000000000E+01 0. -1.
<mgrwt>
<rscale>  2 0.51064685E+01</rscale>
<asrwt>0</asrwt>
<pdfrwt beam="1">  1       21 0.24109434E-01 0.51064685E+01</pdfrwt>
<pdfrwt beam="2">  1       21 0.25840525E-04 0.51064685E+01</pdfrwt>
<totfact> 0.34016092E+09</totfact>
</mgrwt>
</event>
<event>
 4    1  0.3900819E+006  0.8390971E+01  0.7546771E-02  0.2180084E+00
         21   -1    0    0  501  502  0.00000000000E+00  0.00000000000E+00  0.25752846619E+02  0.25752846619E+02  0.00000000000E+00 0. -1.
         21   -1    0    0  502  503 -0.00000000000E+00 -0.00000000000E+00 -0.46391813216E+01  0.46391813216E+01  0.00000000000E+00 0. -1.
          5    1    1    2  501    0 -0.62299624960E+01 -0.30831736115E+01  0.20294987657E+02  0.21961213906E+02  0.47000000000E+01 0. -1.
         -5    1    1    2    0  503  0.62299624960E+01  0.30831736115E+01  0.81867764112E+00  0.84308140355E+01  0.47000000000E+01 0. -1.
<mgrwt>
<rscale>  2 0.83909709E+01</rscale>
<asrwt>0</asrwt>
<pdfrwt beam="1">  1       21 0.39619763E-02 0.83909709E+01</pdfrwt>
<pdfrwt beam="2">  1       21 0.71372022E-03 0.83909709E+01</pdfrwt>
<totfact> 0.89024054E+08</totfact>
</mgrwt>
</event>
<event>
 4    1  0.3900819E+006  0.4959022E+01  0.7546771E-02  0.2574475E+00
         21   -1    0    0  503  502  0.00000000000E+00  0.00000000000E+00  0.34340936596E+03  0.34340936596E+03  0.00000000000E+00 0. -1.
         21   -1    0    0  501  503 -0.00000000000E+00 -0.00000000000E+00 -0.71734702691E+00  0.71734702691E+00  0.00000000000E+00 0. -1.
          5    1    1    2  501    0  0.10573651721E+01 -0.11763824935E+01  0.80967427247E+01  0.94946900754E+01  0.47000000000E+01 0. -1.
         -5    1    1    2    0  502 -0.10573651721E+01  0.11763824935E+01  0.33459527621E+03  0.33463202291E+03  0.47000000000E+01 0. -1.
<mgrwt>
<rscale>  2 0.49590218E+01</rscale>
<asrwt>0</asrwt>
<pdfrwt beam="1">  1       21 0.52832079E-01 0.49590218E+01</pdfrwt>
<pdfrwt beam="2">  1       21 0.11036136E-03 0.49590218E+01</pdfrwt>
<totfact> 0.12770247E+08</totfact>
</mgrwt>
</event>
<event>
 4    1  0.3900819E+006  0.7180399E+01  0.7546771E-02  0.2283182E+00
         21   -1    0    0  501  502  0.00000000000E+00  0.00000000000E+00  0.54313855876E+01  0.54313855876E+01  0.00000000000E+00 0. -1.
         21   -1    0    0  502  503 -0.00000000000E+00 -0.00000000000E+00 -0.14823979944E+02  0.14823979944E+02  0.00000000000E+00 0. -1.
          5    1    1    2  501    0 -0.38693670968E+01  0.38073789197E+01  0.13773038296E+01  0.73112995977E+01  0.47000000000E+01 0. -1.
         -5    1    1    2    0  503  0.38693670968E+01 -0.38073789197E+01 -0.10769898186E+02  0.12944065934E+02  0.47000000000E+01 0. -1.
<mgrwt>
<rscale>  2 0.71803994E+01</rscale>
<asrwt>0</asrwt>
<pdfrwt beam="1">  1       21 0.83559781E-03 0.71803994E+01</pdfrwt>
<pdfrwt beam="2">  1       21 0.22806122E-02 0.71803994E+01</pdfrwt>
<totfact> 0.14450170E+09</totfact>
</mgrwt>
</event>
<event>
 4    1  0.3900819E+006  0.5389359E+01  0.7546771E-02  0.2502395E+00
         21   -1    0    0  501  502  0.00000000000E+00  0.00000000000E+00  0.66772324135E+00  0.66772324135E+00  0.00000000000E+00 0. -1.
         21   -1    0    0  502  503 -0.00000000000E+00 -0.00000000000E+00 -0.82104383208E+02  0.82104383208E+02  0.00000000000E+00 0. -1.
          5    1    1    2  501    0  0.61490017904E+00 -0.25645835516E+01 -0.12339424884E+02  0.13465013831E+02  0.47000000000E+01 0. -1.
         -5    1    1    2    0  503 -0.61490017904E+00  0.25645835516E+01 -0.69097235083E+02  0.69307092618E+02  0.47000000000E+01 0. -1.
<mgrwt>
<rscale>  2 0.53893591E+01</rscale>
<asrwt>0</asrwt>
<pdfrwt beam="1">  1       21 0.10272664E-03 0.53893591E+01</pdfrwt>
<pdfrwt beam="2">  1       21 0.12631445E-01 0.53893591E+01</pdfrwt>
<totfact> 0.15872037E+09</totfact>
</mgrwt>
</event>
<event>
 4    1  0.3900819E+006  0.5853084E+01  0.7546771E-02  0.2434946E+00
         21   -1    0    0  503  502  0.00000000000E+00  0.00000000000E+00  0.28753423727E+01  0.28753423727E+01  0.00000000000E+00 0.  1.
         21   -1    0    0  501  503 -0.00000000000E+00 -0.00000000000E+00 -0.15370343829E+02  0.15370343829E+02  0.00000000000E+00 0.  1.
          5    1    1    2  501    0  0.74052213166E-01  0.34875651305E+01 -0.10573219788E+02  0.12085179806E+02  0.47000000000E+01 0.  1.
         -5    1    1    2    0  502 -0.74052213166E-01 -0.34875651305E+01 -0.19217816688E+01  0.61605063958E+01  0.47000000000E+01 0.  1.
<mgrwt>
<rscale>  2 0.58530842E+01</rscale>
<asrwt>0</asrwt>
<pdfrwt beam="1">  1       21 0.44236036E-03 0.58530842E+01</pdfrwt>
<pdfrwt beam="2">  1       21 0.23646683E-02 0.58530842E+01</pdfrwt>
<totfact> 0.28293090E+09</totfact>
</mgrwt>
</event>
<event>
 4    1  0.3900819E+006  0.9307424E+01  0.7546771E-02  0.2116687E+00
         21   -1    0    0  501  502  0.00000000000E+00  0.00000000000E+00  0.21555786900E+00  0.21555786900E+00  0.00000000000E+00 0.  1.
         21   -1    0    0  502  503 -0.00000000000E+00 -0.00000000000E+00 -0.40294584450E+03  0.40294584450E+03  0.00000000000E+00 0. -1.
          5    1    1    2  501    0 -0.68415365712E+01 -0.42108816257E+01 -0.21173823894E+03  0.21194270446E+03  0.47000000000E+01 0.  1.
         -5    1    1    2    0  503  0.68415365712E+01  0.42108816257E+01 -0.19099204769E+03  0.19121869791E+03  0.47000000000E+01 0. -1.
<mgrwt>
<rscale>  2 0.93074243E+01</rscale>
<asrwt>0</asrwt>
<pdfrwt beam="1">  1       21 0.33162772E-04 0.93074243E+01</pdfrwt>
<pdfrwt beam="2">  1       21 0.61991625E-01 0.93074243E+01</pdfrwt>
<totfact> 0.70616836E+08</totfact>
</mgrwt>
</event>
<event>
 4    1  0.3900819E+006  0.6790408E+01  0.7546771E-02  0.2322657E+00
         21   -1    0    0  501  502  0.00000000000E+00  0.00000000000E+00  0.21499555872E+02  0.21499555872E+02  0.00000000000E+00 0.  1.
         21   -1    0    0  502  503 -0.00000000000E+00 -0.00000000000E+00 -0.35151310297E+01  0.35151310297E+01  0.00000000000E+00 0.  1.
          5    1    1    2  501    0  0.11691507931E+01 -0.47594876497E+01  0.16801767773E+02  0.18122059391E+02  0.47000000000E+01 0.  1.
         -5    1    1    2    0  503 -0.11691507931E+01  0.47594876497E+01  0.11826570696E+01  0.68926275113E+01  0.47000000000E+01 0.  1.
<mgrwt>
<rscale>  2 0.67904077E+01</rscale>
<asrwt>0</asrwt>
<pdfrwt beam="1">  1       21 0.33076239E-02 0.67904077E+01</pdfrwt>
<pdfrwt beam="2">  1       21 0.54078940E-03 0.67904077E+01</pdfrwt>
<totfact> 0.14850985E+09</totfact>
</mgrwt>
</event>
<event>
 4    1  0.3900819E+006  0.5524983E+01  0.7546771E-02  0.2481678E+00
         21   -1    0    0  503  502  0.00000000000E+00  0.00000000000E+00  0.86188481169E+02  0.86188481169E+02  0.00000000000E+00 0.  1.
         21   -1    0    0  501  503 -0.00000000000E+00 -0.00000000000E+00 -0.71122063217E+00  0.71122063217E+00  0.00000000000E+00 0.  1.
          5    1    1    2  501    0  0.29042731730E+01  0.25243116156E-01  0.11952822159E+02  0.13167968615E+02  0.47000000000E+01 0.  1.
         -5    1    1    2    0  502 -0.29042731730E+01 -0.25243116156E-01  0.73524438377E+02  0.73731733186E+02  0.47000000000E+01 0.  1.
<mgrwt>
<rscale>  2 0.55249832E+01</rscale>
<asrwt>0</asrwt>
<pdfrwt beam="1">  1       21 0.13259758E-01 0.55249832E+01</pdfrwt>
<pdfrwt beam="2">  1       21 0.10941863E-03 0.55249832E+01</pdfrwt>
<totfact> 0.13825317E+09</totfact>
</mgrwt>
</event>
<event>
 4    1  0.3900819E+006  0.5956749E+01  0.7546771E-02  0.2421087E+00
         21   -1    0    0  503  502  0.00000000000E+00  0.00000000000E+00  0.78951064548E-01  0.78951064548E-01  0.00000000000E+00 0.  1.
         21   -1    0    0  501  503 -0.00000000000E+00 -0.00000000000E+00 -0.48446622823E+03  0.48446622823E+03  0.00000000000E+00 0.  1.
          5    1    1    2  501    0 -0.93973104203E+00 -0.35369149777E+01 -0.30734750968E+03  0.30740522860E+03  0.47000000000E+01 0.  1.
         -5    1    1    2    0  502  0.93973104203E+00  0.35369149777E+01 -0.17703976748E+03  0.17713995069E+03  0.47000000000E+01 0.  1.
<mgrwt>
<rscale>  2 0.59567493E+01</rscale>
<asrwt>0</asrwt>
<pdfrwt beam="1">  1       21 0.12145794E-04 0.59567493E+01</pdfrwt>
<pdfrwt beam="2">  1       21 0.74536478E-01 0.59567493E+01</pdfrwt>
<totfact> 0.14520754E+09</totfact>
</mgrwt>
</event>
<event>
 4    1  0.3900819E+006  0.5991549E+01  0.7546771E-02  0.2416525E+00
         21   -1    0    0  501  502  0.00000000000E+00  0.00000000000E+00  0.14934416298E+01  0.14934416298E+01  0.00000000000E+00 0.  1.
         21   -1    0    0  502  503 -0.00000000000E+00 -0.00000000000E+00 -0.24151202258E+02  0.24151202258E+02  0.00000000000E+00 0.  1.
          5    1    1    2  501    0 -0.36161233291E+01  0.85575469291E+00 -0.10449242244E+02  0.12045137089E+02  0.47000000000E+01 0.  1.
         -5    1    1    2    0  503  0.36161233291E+01 -0.85575469291E+00 -0.12208518384E+02  0.13599506798E+02  0.47000000000E+01 0.  1.
<mgrwt>
<rscale>  2 0.59915494E+01</rscale>
<asrwt>0</asrwt>
<pdfrwt beam="1">  1       21 0.22976026E-03 0.59915494E+01</pdfrwt>
<pdfrwt beam="2">  1       21 0.37155695E-02 0.59915494E+01</pdfrwt>
<totfact> 0.36870343E+09</totfact>
</mgrwt>
</event>
<event>
 4    1  0.3900819E+006  0.5413826E+01  0.7546771E-02  0.2498592E+00
         21   -1    0    0  501  502  0.00000000000E+00  0.00000000000E+00  0.39708438053E+01  0.39708438053E+01  0.00000000000E+00 0. -1.
         21   -1    0    0  502  503 -0.00000000000E+00 -0.00000000000E+00 -0.10333722407E+02  0.10333722407E+02  0.00000000000E+00 0. -1.
          5    1    1    2  501    0  0.20590326998E+01  0.17262362378E+01  0.64165031427E+00  0.54517173747E+01  0.47000000000E+01 0. -1.
         -5    1    1    2    0  503 -0.20590326998E+01 -0.17262362378E+01 -0.70045289158E+01  0.88528488375E+01  0.47000000000E+01 0. -1.
<mgrwt>
<rscale>  2 0.54138256E+01</rscale>
<asrwt>0</asrwt>
<pdfrwt beam="1">  1       21 0.61089904E-03 0.54138256E+01</pdfrwt>
<pdfrwt beam="2">  1       21 0.15898035E-02 0.54138256E+01</pdfrwt>
<totfact> 0.29706857E+09</totfact>
</mgrwt>
</event>
<event>
 4    1  0.3900819E+006  0.5034097E+01  0.7546771E-02  0.2561140E+00
         21   -1    0    0  501  502  0.00000000000E+00  0.00000000000E+00  0.36954782475E+00  0.36954782475E+00  0.00000000000E+00 0.  1.
         21   -1    0    0  502  503 -0.00000000000E+00 -0.00000000000E+00 -0.83453861246E+02  0.83453861246E+02  0.00000000000E+00 0. -1.
          5    1    1    2  501    0 -0.14488581400E+01  0.10737526772E+01 -0.23845898518E+02  0.24371479455E+02  0.47000000000E+01 0.  1.
         -5    1    1    2    0  503  0.14488581400E+01 -0.10737526772E+01 -0.59238414903E+02  0.59451929615E+02  0.47000000000E+01 0. -1.
<mgrwt>
<rscale>  2 0.50340972E+01</rscale>
<asrwt>0</asrwt>
<pdfrwt beam="1">  1       21 0.56853592E-04 0.50340972E+01</pdfrwt>
<pdfrwt beam="2">  1       21 0.12839037E-01 0.50340972E+01</pdfrwt>
<totfact> 0.31873268E+09</totfact>
</mgrwt>
</event>
<event>
 4    1  0.3900819E+006  0.5827011E+01  0.7546771E-02  0.2438497E+00
         21   -1    0    0  501  502  0.00000000000E+00  0.00000000000E+00  0.49181931703E-01  0.49181931703E-01  0.00000000000E+00 0.  1.
         21   -1    0    0  502  503 -0.00000000000E+00 -0.00000000000E+00 -0.69355682087E+03  0.69355682087E+03  0.00000000000E+00 0.  1.
          5    1    1    2  501    0  0.33483477631E+01  0.80785007668E+00 -0.37023775526E+03  0.37028360681E+03  0.47000000000E+01 0.  1.
         -5    1    1    2    0  503 -0.33483477631E+01 -0.80785007668E+00 -0.32326988369E+03  0.32332239600E+03  0.47000000000E+01 0.  1.
<mgrwt>
<rscale>  2 0.58270108E+01</rscale>
<asrwt>0</asrwt>
<pdfrwt beam="1">  1       21 0.75664901E-05 0.58270108E+01</pdfrwt>
<pdfrwt beam="2">  1       21 0.10670050E+00 0.58270108E+01</pdfrwt>
<totfact> 0.13204344E+09</totfact>
</mgrwt>
</event>
<event>
 4    1  0.3900819E+006  0.6430428E+01  0.7546771E-02  0.2362557E+00
         21   -1    0    0  501  502  0.00000000000E+00  0.00000000000E+00  0.33489811519E+00  0.33489811519E+00  0.00000000000E+00 0. -1.
         21   -1    0    0  502  503 -0.00000000000E+00 -0.00000000000E+00 -0.13915615074E+03  0.13915615074E+03  0.00000000000E+00 0. -1.
          5    1    1    2  501    0  0.43834089032E+01 -0.21477541117E+00 -0.45995238831E+02  0.46442570959E+02  0.47000000000E+01 0. -1.
         -5    1    1    2    0  503 -0.43834089032E+01  0.21477541117E+00 -0.92826013789E+02  0.93048477892E+02  0.47000000000E+01 0. -1.
<mgrwt>
<rscale>  2 0.64304278E+01</rscale>
<asrwt>0</asrwt>
<pdfrwt beam="1">  1       21 0.51522762E-04 0.64304278E+01</pdfrwt>
<pdfrwt beam="2">  1       21 0.21408649E-01 0.64304278E+01</pdfrwt>
<totfact> 0.20003103E+09</totfact>
</mgrwt>
</event>
<event>
 4    1  0.3900819E+006  0.6935398E+01  0.7546771E-02  0.2307556E+00
         21   -1    0    0  501  502  0.00000000000E+00  0.00000000000E+00  0.59223066033E+00  0.59223066033E+00  0.00000000000E+00 0. -1.
         21   -1    0    0  502  503 -0.00000000000E+00 -0.00000000000E+00 -0.97664338584E+02  0.97664338584E+02  0.00000000000E+00 0.  1.
          5    1    1    2  501    0 -0.50546802670E+01 -0.67819600682E+00 -0.28375648475E+02  0.29210908387E+02  0.47000000000E+01 0.  1.
         -5    1    1    2    0  503  0.50546802670E+01  0.67819600682E+00 -0.68696459449E+02  0.69045660858E+02  0.47000000000E+01 0. -1.
<mgrwt>
<rscale>  2 0.69353978E+01</rscale>
<asrwt>0</asrwt>
<pdfrwt beam="1">  1       21 0.91112427E-04 0.69353978E+01</pdfrwt>
<pdfrwt beam="2">  1       21 0.15025280E-01 0.69353978E+01</pdfrwt>
<totfact> 0.17396100E+09</totfact>
</mgrwt>
</event>
<event>
 4    1  0.3900819E+006  0.1173677E+02  0.7546771E-02  0.1987820E+00
         21   -1    0    0  501  502  0.00000000000E+00  0.00000000000E+00  0.48084678874E+02  0.48084678874E+02  0.00000000000E+00 0. -1.
         21   -1    0    0  502  503 -0.00000000000E+00 -0.00000000000E+00 -0.61964800541E+02  0.61964800541E+02  0.00000000000E+00 0.  1.
          5    1    1    2  501    0  0.10665723244E+02  0.13799012244E+01  0.46797667510E+02  0.48247004716E+02  0.47000000000E+01 0. -1.
         -5    1    1    2    0  503 -0.10665723244E+02 -0.13799012244E+01 -0.60677789176E+02  0.61802474700E+02  0.47000000000E+01 0.  1.
<mgrwt>
<rscale>  2 0.11736770E+02</rscale>
<asrwt>0</asrwt>
<pdfrwt beam="1">  1       21 0.73976430E-02 0.11736770E+02</pdfrwt>
<pdfrwt beam="2">  1       21 0.95330462E-02 0.11736770E+02</pdfrwt>
<totfact> 0.82008094E+06</totfact>
</mgrwt>
</event>
<event>
 4    1  0.3900819E+006  0.1177505E+02  0.7546771E-02  0.1986127E+00
         21   -1    0    0  503  502  0.00000000000E+00  0.00000000000E+00  0.18937107521E+02  0.18937107521E+02  0.00000000000E+00 0.  1.
         21   -1    0    0  501  503 -0.00000000000E+00 -0.00000000000E+00 -0.88317328670E+01  0.88317328670E+01  0.00000000000E+00 0. -1.
          5    1    1    2  501    0  0.10603050903E+02  0.20339858640E+01 -0.68845400676E+00  0.11795158154E+02  0.47000000000E+01 0. -1.
         -5    1    1    2    0  502 -0.10603050903E+02 -0.20339858640E+01  0.10793828661E+02  0.15973682234E+02  0.47000000000E+01 0.  1.
<mgrwt>
<rscale>  2 0.11775049E+02</rscale>
<asrwt>0</asrwt>
<pdfrwt beam="1">  1       21 0.29134011E-02 0.11775049E+02</pdfrwt>
<pdfrwt beam="2">  1       21 0.13587281E-02 0.11775049E+02</pdfrwt>
<totfact> 0.67589632E+08</totfact>
</mgrwt>
</event>
<event>
 4    1  0.3900819E+006  0.6880122E+01  0.7546771E-02  0.2313252E+00
         21   -1    0    0  501  502  0.00000000000E+00  0.00000000000E+00  0.10247688235E+02  0.10247688235E+02  0.00000000000E+00 0. -1.
         21   -1    0    0  502  503 -0.00000000000E+00 -0.00000000000E+00 -0.79157175136E+01  0.79157175136E+01  0.00000000000E+00 0. -1.
          5    1    1    2  501    0  0.48470355816E+01  0.13237521584E+01  0.70266942020E+01  0.98341499437E+01  0.47000000000E+01 0. -1.
         -5    1    1    2    0  503 -0.48470355816E+01 -0.13237521584E+01 -0.46947234806E+01  0.83292558050E+01  0.47000000000E+01 0. -1.
<mgrwt>
<rscale>  2 0.68801216E+01</rscale>
<asrwt>0</asrwt>
<pdfrwt beam="1">  1       21 0.15765674E-02 0.68801216E+01</pdfrwt>
<pdfrwt beam="2">  1       21 0.12178027E-02 0.68801216E+01</pdfrwt>
<totfact> 0.13968279E+09</totfact>
</mgrwt>
</event>
<event>
 4    1  0.3900819E+006  0.6063240E+01  0.7546771E-02  0.2407265E+00
         21   -1    0    0  501  502  0.00000000000E+00  0.00000000000E+00  0.12517916641E+00  0.12517916641E+00  0.00000000000E+00 0.  1.
         21   -1    0    0  502  503 -0.00000000000E+00 -0.00000000000E+00 -0.76099335141E+03  0.76099335141E+03  0.00000000000E+00 0. -1.
          5    1    1    2  501    0 -0.11159557463E+01 -0.36643578201E+01 -0.82215294501E+02  0.82438568191E+02  0.47000000000E+01 0.  1.
         -5    1    1    2    0  503  0.11159557463E+01  0.36643578201E+01 -0.67865287774E+03  0.67867996239E+03  0.47000000000E+01 0.  1.
<mgrwt>
<rscale>  2 0.60632397E+01</rscale>
<asrwt>0</asrwt>
<pdfrwt beam="1">  1       21 0.19258541E-04 0.60632397E+01</pdfrwt>
<pdfrwt beam="2">  1       21 0.11707464E+00 0.60632397E+01</pdfrwt>
<totfact> 0.32252301E+08</totfact>
</mgrwt>
</event>
<event>
 4    1  0.3900819E+006  0.6967281E+01  0.7546771E-02  0.2304305E+00
         21   -1    0    0  501  502  0.00000000000E+00  0.00000000000E+00  0.44180004021E+00  0.44180004021E+00  0.00000000000E+00 0. -1.
         21   -1    0    0  502  503 -0.00000000000E+00 -0.00000000000E+00 -0.11320502370E+03  0.11320502370E+03  0.00000000000E+00 0. -1.
          5    1    1    2  501    0  0.49244763621E+01  0.14840941387E+01 -0.46636537906E+02  0.47154105556E+02  0.47000000000E+01 0. -1.
         -5    1    1    2    0  503 -0.49244763621E+01 -0.14840941387E+01 -0.66126685757E+02  0.66492718188E+02  0.47000000000E+01 0. -1.
<mgrwt>
<rscale>  2 0.69672809E+01</rscale>
<asrwt>0</asrwt>
<pdfrwt beam="1">  1       21 0.67969278E-04 0.69672809E+01</pdfrwt>
<pdfrwt beam="2">  1       21 0.17416147E-01 0.69672809E+01</pdfrwt>
<totfact> 0.20464161E+09</totfact>
</mgrwt>
</event>
<event>
 4    1  0.3900819E+006  0.5631216E+01  0.7546771E-02  0.2466044E+00
         21   -1    0    0  501  502  0.00000000000E+00  0.00000000000E+00  0.21459419560E+01  0.21459419560E+01  0.00000000000E+00 0.  1.
         21   -1    0    0  502  503 -0.00000000000E+00 -0.00000000000E+00 -0.29271173294E+02  0.29271173294E+02  0.00000000000E+00 0.  1.
          5    1    1    2  501    0 -0.87516639631E+00 -0.29756800830E+01 -0.25087815842E+01  0.61647849285E+01  0.47000000000E+01 0.  1.
         -5    1    1    2    0  503  0.87516639631E+00  0.29756800830E+01 -0.24616449754E+02  0.25252330321E+02  0.47000000000E+01 0.  1.
<mgrwt>
<rscale>  2 0.56312155E+01</rscale>
<asrwt>0</asrwt>
<pdfrwt beam="1">  1       21 0.33014492E-03 0.56312155E+01</pdfrwt>
<pdfrwt beam="2">  1       21 0.45032573E-02 0.56312155E+01</pdfrwt>
<totfact> 0.16036236E+09</totfact>
</mgrwt>
</event>
<event>
 4    1  0.3900819E+006  0.9300377E+01  0.7546771E-02  0.2117137E+00
         21   -1    0    0  501  502  0.00000000000E+00  0.00000000000E+00  0.10528975261E+03  0.10528975261E+03  0.00000000000E+00 0. -1.
         21   -1    0    0  502  503 -0.00000000000E+00 -0.00000000000E+00 -0.25679219707E+01  0.25679219707E+01  0.00000000000E+00 0.  1.
          5    1    1    2  501    0  0.43286827171E+01  0.67579222075E+01  0.95834588152E+02  0.96284813408E+02  0.47000000000E+01 0. -1.
         -5    1    1    2    0  503 -0.43286827171E+01 -0.67579222075E+01  0.68872424839E+01  0.11572861170E+02  0.47000000000E+01 0.  1.
<mgrwt>
<rscale>  2 0.93003767E+01</rscale>
<asrwt>0</asrwt>
<pdfrwt beam="1">  1       21 0.16198420E-01 0.93003767E+01</pdfrwt>
<pdfrwt beam="2">  1       21 0.39506500E-03 0.93003767E+01</pdfrwt>
<totfact> 0.24345088E+08</totfact>
</mgrwt>
</event>
<event>
 4    1  0.3900819E+006  0.7603987E+01  0.7546771E-02  0.2244093E+00
         21   -1    0    0  501  502  0.00000000000E+00  0.00000000000E+00  0.11477496424E+02  0.11477496424E+02  0.00000000000E+00 0.  1.
         21   -1    0    0  502  503 -0.00000000000E+00 -0.00000000000E+00 -0.58035051856E+01  0.58035051856E+01  0.00000000000E+00 0.  1.
          5    1    1    2  501    0  0.21205236070E+01 -0.55887379116E+01  0.59756413768E+01  0.96710341576E+01  0.47000000000E+01 0.  1.
         -5    1    1    2    0  503 -0.21205236070E+01  0.55887379116E+01 -0.30165013862E+00  0.76099674519E+01  0.47000000000E+01 0.  1.
<mgrwt>
<rscale>  2 0.76039866E+01</rscale>
<asrwt>0</asrwt>
<pdfrwt beam="1">  1       21 0.17657687E-02 0.76039866E+01</pdfrwt>
<pdfrwt beam="2">  1       21 0.89284695E-03 0.76039866E+01</pdfrwt>
<totfact> 0.19912617E+09</totfact>
</mgrwt>
</event>
<event>
 4    1  0.3900819E+006  0.5360486E+01  0.7546771E-02  0.2506920E+00
         21   -1    0    0  503  502  0.00000000000E+00  0.00000000000E+00  0.37710711845E+02  0.37710711845E+02  0.00000000000E+00 0. -1.
         21   -1    0    0  501  503 -0.00000000000E+00 -0.00000000000E+00 -0.85520537311E+00  0.85520537311E+00  0.00000000000E+00 0. -1.
          5    1    1    2  501    0  0.21333357587E+01 -0.14469573560E+01  0.24794324366E+02  0.25367170276E+02  0.47000000000E+01 0.  1.
         -5    1    1    2    0  502 -0.21333357587E+01  0.14469573560E+01  0.12061182106E+02  0.13198746942E+02  0.47000000000E+01 0.  1.
<mgrwt>
<rscale>  2 0.53604857E+01</rscale>
<asrwt>0</asrwt>
<pdfrwt beam="1">  1       21 0.58016467E-02 0.53604857E+01</pdfrwt>
<pdfrwt beam="2">  1       21 0.13157009E-03 0.53604857E+01</pdfrwt>
<totfact> 0.36707943E+09</totfact>
</mgrwt>
</event>
<event>
 4    1  0.3900819E+006  0.4878232E+01  0.7546771E-02  0.2589219E+00
         21   -1    0    0  503  502  0.00000000000E+00  0.00000000000E+00  0.47719217068E+01  0.47719217068E+01  0.00000000000E+00 0. -1.
         21   -1    0    0  501  503 -0.00000000000E+00 -0.00000000000E+00 -0.10710761530E+02  0.10710761530E+02  0.00000000000E+00 0. -1.
          5    1    1    2  501    0  0.11576656462E+01 -0.60576773792E+00 -0.86285572826E+01  0.99120706757E+01  0.47000000000E+01 0. -1.
         -5    1    1    2    0  502 -0.11576656462E+01  0.60576773792E+00  0.26897174591E+01  0.55706125615E+01  0.47000000000E+01 0. -1.
<mgrwt>
<rscale>  2 0.48782317E+01</rscale>
<asrwt>0</asrwt>
<pdfrwt beam="1">  1       21 0.73414180E-03 0.48782317E+01</pdfrwt>
<pdfrwt beam="2">  1       21 0.16478095E-02 0.48782317E+01</pdfrwt>
<totfact> 0.19730142E+09</totfact>
</mgrwt>
</event>
<event>
 4    1  0.3900819E+006  0.4863411E+01  0.7546771E-02  0.2591970E+00
         21   -1    0    0  501  502  0.00000000000E+00  0.00000000000E+00  0.64496879166E+01  0.64496879166E+01  0.00000000000E+00 0. -1.
         21   -1    0    0  502  503 -0.00000000000E+00 -0.00000000000E+00 -0.36707799641E+01  0.36707799641E+01  0.00000000000E+00 0. -1.
          5    1    1    2  501    0 -0.45511760762E+00  0.11643191024E+01  0.12330627469E+01  0.50172915748E+01  0.47000000000E+01 0. -1.
         -5    1    1    2    0  503  0.45511760762E+00 -0.11643191024E+01  0.15458452055E+01  0.51031763059E+01  0.47000000000E+01 0. -1.
<mgrwt>
<rscale>  2 0.48634115E+01</rscale>
<asrwt>0</asrwt>
<pdfrwt beam="1">  1       21 0.99225968E-03 0.48634115E+01</pdfrwt>
<pdfrwt beam="2">  1       21 0.56473538E-03 0.48634115E+01</pdfrwt>
<totfact> 0.57435905E+09</totfact>
</mgrwt>
</event>
<event>
 4    1  0.3900819E+006  0.7547449E+01  0.7546771E-02  0.2249103E+00
         21   -1    0    0  503  502  0.00000000000E+00  0.00000000000E+00  0.32050250839E+01  0.32050250839E+01  0.00000000000E+00 0. -1.
         21   -1    0    0  501  503 -0.00000000000E+00 -0.00000000000E+00 -0.21485466100E+02  0.21485466100E+02  0.00000000000E+00 0.  1.
          5    1    1    2  501    0 -0.19753327741E+01 -0.55652530758E+01 -0.14271658134E+02  0.16144479157E+02  0.47000000000E+01 0. -1.
         -5    1    1    2    0  502  0.19753327741E+01  0.55652530758E+01 -0.40087828823E+01  0.85460120269E+01  0.47000000000E+01 0. -1.
<mgrwt>
<rscale>  2 0.75474487E+01</rscale>
<asrwt>0</asrwt>
<pdfrwt beam="1">  1       21 0.49308078E-03 0.75474487E+01</pdfrwt>
<pdfrwt beam="2">  1       21 0.33054563E-02 0.75474487E+01</pdfrwt>
<totfact> 0.18315920E+09</totfact>
</mgrwt>
</event>
<event>
 4    1  0.3900819E+006  0.8442225E+01  0.7546771E-02  0.2176250E+00
         21   -1    0    0  501  502  0.00000000000E+00  0.00000000000E+00  0.41274373149E+02  0.41274373149E+02  0.00000000000E+00 0. -1.
         21   -1    0    0  502  503 -0.00000000000E+00 -0.00000000000E+00 -0.33424623938E+01  0.33424623938E+01  0.00000000000E+00 0.  1.
          5    1    1    2  501    0  0.11054332043E+01  0.69252566490E+01  0.34476085937E+02  0.35494670921E+02  0.47000000000E+01 0. -1.
         -5    1    1    2    0  503 -0.11054332043E+01 -0.69252566490E+01  0.34558248183E+01  0.91221646225E+01  0.47000000000E+01 0.  1.
<mgrwt>
<rscale>  2 0.84422250E+01</rscale>
<asrwt>0</asrwt>
<pdfrwt beam="1">  1       21 0.63499032E-02 0.84422250E+01</pdfrwt>
<pdfrwt beam="2">  1       21 0.51422501E-03 0.84422250E+01</pdfrwt>
<totfact> 0.69650582E+08</totfact>
</mgrwt>
</event>
<event>
 4    1  0.3900819E+006  0.7453725E+01  0.7546771E-02  0.2257545E+00
         21   -1    0    0  503  502  0.00000000000E+00  0.00000000000E+00  0.98180214768E+02  0.98180214768E+02  0.00000000000E+00 0. -1.
         21   -1    0    0  501  503 -0.00000000000E+00 -0.00000000000E+00 -0.14577382963E+02  0.14577382963E+02  0.00000000000E+00 0. -1.
          5    1    1    2  501    0 -0.65898269050E+00 -0.57474999537E+01 -0.13472270659E+02  0.15396755847E+02  0.47000000000E+01 0. -1.
         -5    1    1    2    0  502  0.65898269050E+00  0.57474999537E+01  0.97075102464E+02  0.97360841884E+02  0.47000000000E+01 0. -1.
<mgrwt>
<rscale>  2 0.74537248E+01</rscale>
<asrwt>0</asrwt>
<pdfrwt beam="1">  1       21 0.15104648E-01 0.74537248E+01</pdfrwt>
<pdfrwt beam="2">  1       21 0.22426744E-02 0.74537248E+01</pdfrwt>
<totfact> 0.20196525E+07</totfact>
</mgrwt>
</event>
<event>
 4    1  0.3900819E+006  0.7059958E+01  0.7546771E-02  0.2294991E+00
         21   -1    0    0  503  502  0.00000000000E+00  0.00000000000E+00  0.16248888320E+04  0.16248888320E+04  0.00000000000E+00 0.  1.
         21   -1    0    0  501  503 -0.00000000000E+00 -0.00000000000E+00 -0.31878944380E-01  0.31878944380E-01  0.00000000000E+00 0.  1.
          5    1    1    2  501    0  0.34728543501E+01 -0.39613488891E+01  0.65452024747E+03  0.65455832234E+03  0.47000000000E+01 0.  1.
         -5    1    1    2    0  502 -0.34728543501E+01  0.39613488891E+01  0.97033670558E+03  0.97036238859E+03  0.47000000000E+01 0.  1.
<mgrwt>
<rscale>  2 0.70599577E+01</rscale>
<asrwt>0</asrwt>
<pdfrwt beam="1">  1       21 0.24991658E+00 0.70599577E+01</pdfrwt>
<pdfrwt beam="2">  1       21 0.49057544E-05 0.70599577E+01</pdfrwt>
<totfact> 0.40707313E+08</totfact>
</mgrwt>
</event>
<event>
 4    1  0.3900819E+006  0.5520007E+01  0.7546771E-02  0.2482423E+00
         21   -1    0    0  503  502  0.00000000000E+00  0.00000000000E+00  0.18784539799E+03  0.18784539799E+03  0.00000000000E+00 0. -1.
         21   -1    0    0  501  503 -0.00000000000E+00 -0.00000000000E+00 -0.34429910138E+00  0.34429910138E+00  0.00000000000E+00 0. -1.
          5    1    1    2  501    0 -0.28850174568E+01  0.23906345792E+00  0.25321674014E+02  0.25916358771E+02  0.47000000000E+01 0. -1.
         -5    1    1    2    0  502  0.28850174568E+01 -0.23906345792E+00  0.16217942487E+03  0.16227333832E+03  0.47000000000E+01 0. -1.
<mgrwt>
<rscale>  2 0.55200070E+01</rscale>
<asrwt>0</asrwt>
<pdfrwt beam="1">  1       21 0.28899210E-01 0.55200070E+01</pdfrwt>
<pdfrwt beam="2">  1       21 0.52969243E-04 0.55200070E+01</pdfrwt>
<totfact> 0.10421004E+09</totfact>
</mgrwt>
</event>
<event>
 4    1  0.3900819E+006  0.5826888E+01  0.7546771E-02  0.2438514E+00
         21   -1    0    0  501  502  0.00000000000E+00  0.00000000000E+00  0.79762288218E+03  0.79762288218E+03  0.00000000000E+00 0. -1.
         21   -1    0    0  502  503 -0.00000000000E+00 -0.00000000000E+00 -0.12029583306E+00  0.12029583306E+00  0.00000000000E+00 0.  1.
          5    1    1    2  501    0  0.18494669731E+01 -0.29055293317E+01  0.71937684518E+03  0.71940044343E+03  0.47000000000E+01 0. -1.
         -5    1    1    2    0  503 -0.18494669731E+01  0.29055293317E+01  0.78125741165E+02  0.78342734579E+02  0.47000000000E+01 0.  1.
<mgrwt>
<rscale>  2 0.58268884E+01</rscale>
<asrwt>0</asrwt>
<pdfrwt beam="1">  1       21 0.12270698E+00 0.58268884E+01</pdfrwt>
<pdfrwt beam="2">  1       21 0.18507690E-04 0.58268884E+01</pdfrwt>
<totfact> 0.30065457E+08</totfact>
</mgrwt>
</event>
<event>
 4    1  0.3900819E+006  0.4991573E+01  0.7546771E-02  0.2568651E+00
         21   -1    0    0  501  502  0.00000000000E+00  0.00000000000E+00  0.43384480249E-01  0.43384480249E-01  0.00000000000E+00 0. -1.
         21   -1    0    0  502  503 -0.00000000000E+00 -0.00000000000E+00 -0.94368022674E+03  0.94368022674E+03  0.00000000000E+00 0. -1.
          5    1    1    2  501    0 -0.76981039582E+00 -0.14943886000E+01 -0.17660378368E+03  0.17667431114E+03  0.47000000000E+01 0. -1.
         -5    1    1    2    0  503  0.76981039582E+00  0.14943886000E+01 -0.76703305857E+03  0.76704930008E+03  0.47000000000E+01 0. -1.
<mgrwt>
<rscale>  2 0.49915734E+01</rscale>
<asrwt>0</asrwt>
<pdfrwt beam="1">  1       21 0.66739764E-05 0.49915734E+01</pdfrwt>
<pdfrwt beam="2">  1       21 0.14519373E+00 0.49915734E+01</pdfrwt>
<totfact> 0.73638456E+08</totfact>
</mgrwt>
</event>
<event>
 4    1  0.3900819E+006  0.6861065E+01  0.7546771E-02  0.2315232E+00
         21   -1    0    0  503  502  0.00000000000E+00  0.00000000000E+00  0.43622242883E+02  0.43622242883E+02  0.00000000000E+00 0. -1.
         21   -1    0    0  501  503 -0.00000000000E+00 -0.00000000000E+00 -0.13124428483E+01  0.13124428483E+01  0.00000000000E+00 0.  1.
          5    1    1    2  501    0 -0.25498390641E+01  0.42991318158E+01  0.11682112483E+02  0.13547913702E+02  0.47000000000E+01 0.  1.
         -5    1    1    2    0  502  0.25498390641E+01 -0.42991318158E+01  0.30627687552E+02  0.31386772029E+02  0.47000000000E+01 0. -1.
<mgrwt>
<rscale>  2 0.68610651E+01</rscale>
<asrwt>0</asrwt>
<pdfrwt beam="1">  1       21 0.67111132E-02 0.68610651E+01</pdfrwt>
<pdfrwt beam="2">  1       21 0.20191432E-03 0.68610651E+01</pdfrwt>
<totfact> 0.20409016E+09</totfact>
</mgrwt>
</event>
<event>
 4    1  0.3900819E+006  0.5607640E+01  0.7546771E-02  0.2469470E+00
         21   -1    0    0  503  502  0.00000000000E+00  0.00000000000E+00  0.11229253503E+02  0.11229253503E+02  0.00000000000E+00 0.  1.
         21   -1    0    0  501  503 -0.00000000000E+00 -0.00000000000E+00 -0.39882533993E+01  0.39882533993E+01  0.00000000000E+00 0.  1.
          5    1    1    2  501    0 -0.83592165664E+00  0.29422553008E+01 -0.53206171355E+00  0.56328253069E+01  0.47000000000E+01 0.  1.
         -5    1    1    2    0  502  0.83592165664E+00 -0.29422553008E+01  0.77730618173E+01  0.95846815955E+01  0.47000000000E+01 0.  1.
<mgrwt>
<rscale>  2 0.56076404E+01</rscale>
<asrwt>0</asrwt>
<pdfrwt beam="1">  1       21 0.17275774E-02 0.56076404E+01</pdfrwt>
<pdfrwt beam="2">  1       21 0.61357745E-03 0.56076404E+01</pdfrwt>
<totfact> 0.27109848E+09</totfact>
</mgrwt>
</event>
<event>
 4    1  0.3900819E+006  0.5371099E+01  0.7546771E-02  0.2505252E+00
         21   -1    0    0  501  502  0.00000000000E+00  0.00000000000E+00  0.36819831564E+00  0.36819831564E+00  0.00000000000E+00 0.  1.
         21   -1    0    0  502  503 -0.00000000000E+00 -0.00000000000E+00 -0.26473845216E+03  0.26473845216E+03  0.00000000000E+00 0.  1.
          5    1    1    2  501    0  0.40025332059E+00  0.25687549357E+01 -0.20963189707E+02  0.21640333347E+02  0.47000000000E+01 0.  1.
         -5    1    1    2    0  503 -0.40025332059E+00 -0.25687549357E+01 -0.24340706413E+03  0.24346631713E+03  0.47000000000E+01 0.  1.
<mgrwt>
<rscale>  2 0.53710990E+01</rscale>
<asrwt>0</asrwt>
<pdfrwt beam="1">  1       21 0.56645567E-04 0.53710990E+01</pdfrwt>
<pdfrwt beam="2">  1       21 0.40729228E-01 0.53710990E+01</pdfrwt>
<totfact> 0.52074244E+08</totfact>
</mgrwt>
</event>
<event>
 4    1  0.3900819E+006  0.7365916E+01  0.7546771E-02  0.2265612E+00
         21   -1    0    0  503  502  0.00000000000E+00  0.00000000000E+00  0.52141272242E+03  0.52141272242E+03  0.00000000000E+00 0.  1.
         21   -1    0    0  501  503 -0.00000000000E+00 -0.00000000000E+00 -0.16154444155E+00  0.16154444155E+00  0.00000000000E+00 0.  1.
          5    1    1    2  501    0 -0.53602516886E+01 -0.18532202578E+01  0.10505551325E+03  0.10531342549E+03  0.47000000000E+01 0.  1.
         -5    1    1    2    0  502  0.53602516886E+01  0.18532202578E+01  0.41619566472E+03  0.41626084137E+03  0.47000000000E+01 0.  1.
<mgrwt>
<rscale>  2 0.73659163E+01</rscale>
<asrwt>0</asrwt>
<pdfrwt beam="1">  1       21 0.80215995E-01 0.73659163E+01</pdfrwt>
<pdfrwt beam="2">  1       21 0.24853408E-04 0.73659163E+01</pdfrwt>
<totfact> 0.55485347E+08</totfact>
</mgrwt>
</event>
<event>
 4    1  0.3900819E+006  0.8656364E+01  0.7546771E-02  0.2160628E+00
         21   -1    0    0  503  502  0.00000000000E+00  0.00000000000E+00  0.24121788208E+01  0.24121788208E+01  0.00000000000E+00 0. -1.
         21   -1    0    0  501  503 -0.00000000000E+00 -0.00000000000E+00 -0.41885715943E+02  0.41885715943E+02  0.00000000000E+00 0.  1.
          5    1    1    2  501    0 -0.69947659825E+01  0.19788595583E+01 -0.30994794636E+02  0.32180893879E+02  0.47000000000E+01 0.  1.
         -5    1    1    2    0  502  0.69947659825E+01 -0.19788595583E+01 -0.84787424862E+01  0.12117000885E+02  0.47000000000E+01 0. -1.
<mgrwt>
<rscale>  2 0.86563639E+01</rscale>
<asrwt>0</asrwt>
<pdfrwt beam="1">  1       21 0.37110443E-03 0.86563639E+01</pdfrwt>
<pdfrwt beam="2">  1       21 0.64439563E-02 0.86563639E+01</pdfrwt>
<totfact> 0.10962752E+09</totfact>
</mgrwt>
</event>
<event>
 4    1  0.3900819E+006  0.5855390E+01  0.7546771E-02  0.2434633E+00
         21   -1    0    0  501  502  0.00000000000E+00  0.00000000000E+00  0.92163722043E+00  0.92163722043E+00  0.00000000000E+00 0.  1.
         21   -1    0    0  502  503 -0.00000000000E+00 -0.00000000000E+00 -0.77692926899E+02  0.77692926899E+02  0.00000000000E+00 0. -1.
          5    1    1    2  501    0  0.34555443193E+01 -0.50478734243E+00 -0.10008556588E+02  0.11595550948E+02  0.47000000000E+01 0.  1.
         -5    1    1    2    0  503 -0.34555443193E+01  0.50478734243E+00 -0.66762733091E+02  0.67019013172E+02  0.47000000000E+01 0. -1.
<mgrwt>
<rscale>  2 0.58553904E+01</rscale>
<asrwt>0</asrwt>
<pdfrwt beam="1">  1       21 0.14179037E-03 0.58553904E+01</pdfrwt>
<pdfrwt beam="2">  1       21 0.11952755E-01 0.58553904E+01</pdfrwt>
<totfact> 0.12027563E+09</totfact>
</mgrwt>
</event>
<event>
 4    1  0.3900819E+006  0.6482827E+01  0.7546771E-02  0.2356522E+00
         21   -1    0    0  501  502  0.00000000000E+00  0.00000000000E+00  0.10167086160E+02  0.10167086160E+02  0.00000000000E+00 0. -1.
         21   -1    0    0  502  503 -0.00000000000E+00 -0.00000000000E+00 -0.67653400970E+01  0.67653400970E+01  0.00000000000E+00 0. -1.
          5    1    1    2  501    0 -0.33799135801E+01 -0.29177431490E+01  0.69812247040E+01  0.95270425243E+01  0.47000000000E+01 0. -1.
         -5    1    1    2    0  503  0.33799135801E+01  0.29177431490E+01 -0.35794786407E+01  0.74053837329E+01  0.47000000000E+01 0. -1.
<mgrwt>
<rscale>  2 0.64828266E+01</rscale>
<asrwt>0</asrwt>
<pdfrwt beam="1">  1       21 0.15641671E-02 0.64828266E+01</pdfrwt>
<pdfrwt beam="2">  1       21 0.10408216E-02 0.64828266E+01</pdfrwt>
<totfact> 0.16868841E+09</totfact>
</mgrwt>
</event>
<event>
 4    1  0.3900819E+006  0.4798240E+01  0.7546771E-02  0.2604240E+00
         21   -1    0    0  501  502  0.00000000000E+00  0.00000000000E+00  0.39743689735E+02  0.39743689735E+02  0.00000000000E+00 0.  1.
         21   -1    0    0  502  503 -0.00000000000E+00 -0.00000000000E+00 -0.68171315367E+00  0.68171315367E+00  0.00000000000E+00 0.  1.
          5    1    1    2  501    0  0.92236590865E+00  0.28696113400E+00  0.27365708191E+02  0.27783179990E+02  0.47000000000E+01 0.  1.
         -5    1    1    2    0  503 -0.92236590865E+00 -0.28696113400E+00  0.11696268391E+02  0.12642222899E+02  0.47000000000E+01 0.  1.
<mgrwt>
<rscale>  2 0.47982398E+01</rscale>
<asrwt>0</asrwt>
<pdfrwt beam="1">  1       21 0.61144120E-02 0.47982398E+01</pdfrwt>
<pdfrwt beam="2">  1       21 0.10487898E-03 0.47982398E+01</pdfrwt>
<totfact> 0.41065747E+09</totfact>
</mgrwt>
</event>
<event>
 4    1  0.3900819E+006  0.1027666E+02  0.7546771E-02  0.2059576E+00
         21   -1    0    0  501  502  0.00000000000E+00  0.00000000000E+00  0.16640682001E+04  0.16640682001E+04  0.00000000000E+00 0.  1.
         21   -1    0    0  502  503 -0.00000000000E+00 -0.00000000000E+00 -0.11830639396E+00  0.11830639396E+00  0.00000000000E+00 0. -1.
          5    1    1    2  501    0 -0.20659787861E+01 -0.89023319778E+01  0.13985048801E+04  0.13985426377E+04  0.47000000000E+01 0.  1.
         -5    1    1    2    0  503  0.20659787861E+01  0.89023319778E+01  0.26544501357E+03  0.26564386876E+03  0.47000000000E+01 0. -1.
<mgrwt>
<rscale>  2 0.10276662E+02</rscale>
<asrwt>0</asrwt>
<pdfrwt beam="1">  1       21 0.25599175E+00 0.10276662E+02</pdfrwt>
<pdfrwt beam="2">  1       21 0.18202316E-04 0.10276662E+02</pdfrwt>
<totfact> 0.74492137E+07</totfact>
</mgrwt>
</event>
<event>
 4    1  0.3900819E+006  0.9813683E+01  0.7546771E-02  0.2085749E+00
         21   -1    0    0  503  502  0.00000000000E+00  0.00000000000E+00  0.53937610924E+01  0.53937610924E+01  0.00000000000E+00 0. -1.
         21   -1    0    0  501  503 -0.00000000000E+00 -0.00000000000E+00 -0.18473554465E+02  0.18473554465E+02  0.00000000000E+00 0.  1.
          5    1    1    2  501    0  0.17203538866E+01  0.84414906450E+01 -0.87226591138E+01  0.13129857723E+02  0.47000000000E+01 0. -1.
         -5    1    1    2    0  502 -0.17203538866E+01 -0.84414906450E+01 -0.43571342590E+01  0.10737457835E+02  0.47000000000E+01 0.  1.
<mgrwt>
<rscale>  2 0.98136834E+01</rscale>
<asrwt>0</asrwt>
<pdfrwt beam="1">  1       21 0.82980939E-03 0.98136834E+01</pdfrwt>
<pdfrwt beam="2">  1       21 0.28420853E-02 0.98136834E+01</pdfrwt>
<totfact> 0.13008291E+09</totfact>
</mgrwt>
</event>
<event>
 4    1  0.3900819E+006  0.6639254E+01  0.7546771E-02  0.2338975E+00
         21   -1    0    0  503  502  0.00000000000E+00  0.00000000000E+00  0.97956588885E+01  0.97956588885E+01  0.00000000000E+00 0.  1.
         21   -1    0    0  501  503 -0.00000000000E+00 -0.00000000000E+00 -0.49576056091E+01  0.49576056091E+01  0.00000000000E+00 0. -1.
          5    1    1    2  501    0 -0.41183787087E+01  0.22424639341E+01  0.17769837851E+00  0.66416311549E+01  0.47000000000E+01 0.  1.
         -5    1    1    2    0  502  0.41183787087E+01 -0.22424639341E+01  0.46603549009E+01  0.81116333427E+01  0.47000000000E+01 0.  1.
<mgrwt>
<rscale>  2 0.66392535E+01</rscale>
<asrwt>0</asrwt>
<pdfrwt beam="1">  1       21 0.15070244E-02 0.66392535E+01</pdfrwt>
<pdfrwt beam="2">  1       21 0.76270856E-03 0.66392535E+01</pdfrwt>
<totfact> 0.28166161E+09</totfact>
</mgrwt>
</event>
<event>
 4    1  0.3900819E+006  0.5462794E+01  0.7546771E-02  0.2491069E+00
         21   -1    0    0  501  502  0.00000000000E+00  0.00000000000E+00  0.18244545310E+02  0.18244545310E+02  0.00000000000E+00 0. -1.
         21   -1    0    0  502  503 -0.00000000000E+00 -0.00000000000E+00 -0.85198972958E+01  0.85198972958E+01  0.00000000000E+00 0.  1.
          5    1    1    2  501    0 -0.19211125271E+01 -0.20153013890E+01  0.16891573395E+02  0.17752953692E+02  0.47000000000E+01 0. -1.
         -5    1    1    2    0  503  0.19211125271E+01  0.20153013890E+01 -0.71669253808E+01  0.90114889138E+01  0.47000000000E+01 0.  1.
<mgrwt>
<rscale>  2 0.54627935E+01</rscale>
<asrwt>0</asrwt>
<pdfrwt beam="1">  1       21 0.28068531E-02 0.54627935E+01</pdfrwt>
<pdfrwt beam="2">  1       21 0.13107534E-02 0.54627935E+01</pdfrwt>
<totfact> 0.45685817E+08</totfact>
</mgrwt>
</event>
<event>
 4    1  0.3900819E+006  0.6369619E+01  0.7546771E-02  0.2369664E+00
         21   -1    0    0  503  502  0.00000000000E+00  0.00000000000E+00  0.15801580698E+02  0.15801580698E+02  0.00000000000E+00 0.  1.
         21   -1    0    0  501  503 -0.00000000000E+00 -0.00000000000E+00 -0.42179320304E+01  0.42179320304E+01  0.00000000000E+00 0.  1.
          5    1    1    2  501    0  0.34767863812E+01  0.25286377655E+01 -0.46941204382E+00  0.63868928406E+01  0.47000000000E+01 0.  1.
         -5    1    1    2    0  502 -0.34767863812E+01 -0.25286377655E+01  0.12053060711E+02  0.13632619888E+02  0.47000000000E+01 0.  1.
<mgrwt>
<rscale>  2 0.63696195E+01</rscale>
<asrwt>0</asrwt>
<pdfrwt beam="1">  1       21 0.24310124E-02 0.63696195E+01</pdfrwt>
<pdfrwt beam="2">  1       21 0.64891263E-03 0.63696195E+01</pdfrwt>
<totfact> 0.17143887E+09</totfact>
</mgrwt>
</event>
<event>
 4    1  0.3900819E+006  0.6278244E+01  0.7546771E-02  0.2380558E+00
         21   -1    0    0  503  502  0.00000000000E+00  0.00000000000E+00  0.74521677788E+00  0.74521677788E+00  0.00000000000E+00 0. -1.
         21   -1    0    0  501  503 -0.00000000000E+00 -0.00000000000E+00 -0.11824936278E+03  0.11824936278E+03  0.00000000000E+00 0. -1.
          5    1    1    2  501    0 -0.13031707251E+00 -0.41604527514E+01 -0.10298477868E+03  0.10317597099E+03  0.47000000000E+01 0. -1.
         -5    1    1    2    0  502  0.13031707251E+00  0.41604527514E+01 -0.14519367321E+02  0.15818608568E+02  0.47000000000E+01 0. -1.
<mgrwt>
<rscale>  2 0.62782442E+01</rscale>
<asrwt>0</asrwt>
<pdfrwt beam="1">  1       21 0.11464871E-03 0.62782442E+01</pdfrwt>
<pdfrwt beam="2">  1       21 0.18192213E-01 0.62782442E+01</pdfrwt>
<totfact> 0.87221244E+08</totfact>
</mgrwt>
</event>
<event>
 4    1  0.3900819E+006  0.6983000E+01  0.7546771E-02  0.2302711E+00
         21   -1    0    0  501  502  0.00000000000E+00  0.00000000000E+00  0.71679305664E+01  0.71679305664E+01  0.00000000000E+00 0.  1.
         21   -1    0    0  502  503 -0.00000000000E+00 -0.00000000000E+00 -0.81288957571E+01  0.81288957571E+01  0.00000000000E+00 0. -1.
          5    1    1    2  501    0  0.51349757522E+01 -0.55164068875E+00  0.26086495487E+01  0.74543501321E+01  0.47000000000E+01 0.  1.
         -5    1    1    2    0  503 -0.51349757522E+01  0.55164068875E+00 -0.35696147394E+01  0.78424761914E+01  0.47000000000E+01 0. -1.
<mgrwt>
<rscale>  2 0.69829996E+01</rscale>
<asrwt>0</asrwt>
<pdfrwt beam="1">  1       21 0.11027585E-02 0.69829996E+01</pdfrwt>
<pdfrwt beam="2">  1       21 0.12505994E-02 0.69829996E+01</pdfrwt>
<totfact> 0.22702022E+09</totfact>
</mgrwt>
</event>
<event>
 4    1  0.3900819E+006  0.6620476E+01  0.7546771E-02  0.2341045E+00
         21   -1    0    0  503  502  0.00000000000E+00  0.00000000000E+00  0.11301771782E+01  0.11301771782E+01  0.00000000000E+00 0.  1.
         21   -1    0    0  501  503 -0.00000000000E+00 -0.00000000000E+00 -0.38790511858E+02  0.38790511858E+02  0.00000000000E+00 0.  1.
          5    1    1    2  501    0 -0.30331229522E+01  0.35413092523E+01 -0.18537188065E+02  0.19683954060E+02  0.47000000000E+01 0.  1.
         -5    1    1    2    0  502  0.30331229522E+01 -0.35413092523E+01 -0.19123146615E+02  0.20236734977E+02  0.47000000000E+01 0.  1.
<mgrwt>
<rscale>  2 0.66204763E+01</rscale>
<asrwt>0</asrwt>
<pdfrwt beam="1">  1       21 0.17387342E-03 0.66204763E+01</pdfrwt>
<pdfrwt beam="2">  1       21 0.59677709E-02 0.66204763E+01</pdfrwt>
<totfact> 0.29076737E+09</totfact>
</mgrwt>
</event>
<event>
 4    1  0.3900819E+006  0.5197764E+01  0.7546771E-02  0.2533223E+00
         21   -1    0    0  501  502  0.00000000000E+00  0.00000000000E+00  0.57694451562E+00  0.57694451562E+00  0.00000000000E+00 0.  1.
         21   -1    0    0  502  503 -0.00000000000E+00 -0.00000000000E+00 -0.20018285933E+03  0.20018285933E+03  0.00000000000E+00 0.  1.
          5    1    1    2  501    0 -0.20578826243E+01 -0.83178787350E+00 -0.11944597900E+02  0.13026517991E+02  0.47000000000E+01 0.  1.
         -5    1    1    2    0  503  0.20578826243E+01  0.83178787350E+00 -0.18766131692E+03  0.18773328586E+03  0.47000000000E+01 0.  1.
<mgrwt>
<rscale>  2 0.51977641E+01</rscale>
<asrwt>0</asrwt>
<pdfrwt beam="1">  1       21 0.88760617E-04 0.51977641E+01</pdfrwt>
<pdfrwt beam="2">  1       21 0.30797390E-01 0.51977641E+01</pdfrwt>
<totfact> 0.44904702E+08</totfact>
</mgrwt>
</event>
<event>
 4    1  0.3900819E+006  0.6906605E+01  0.7546771E-02  0.2310514E+00
         21   -1    0    0  503  502  0.00000000000E+00  0.00000000000E+00  0.14861536922E+00  0.14861536922E+00  0.00000000000E+00 0.  1.
         21   -1    0    0  501  503 -0.00000000000E+00 -0.00000000000E+00 -0.66850030120E+03  0.66850030120E+03  0.00000000000E+00 0. -1.
          5    1    1    2  501    0 -0.14693185716E+01  0.48427570785E+01 -0.57522920195E+03  0.57527066322E+03  0.47000000000E+01 0. -1.
         -5    1    1    2    0  502  0.14693185716E+01 -0.48427570785E+01 -0.93122483884E+02  0.93378253346E+02  0.47000000000E+01 0.  1.
<mgrwt>
<rscale>  2 0.69066050E+01</rscale>
<asrwt>0</asrwt>
<pdfrwt beam="1">  1       21 0.22863613E-04 0.69066050E+01</pdfrwt>
<pdfrwt beam="2">  1       21 0.10284751E+00 0.69066050E+01</pdfrwt>
<totfact> 0.36249456E+08</totfact>
</mgrwt>
</event>
<event>
 4    1  0.3900819E+006  0.8886321E+01  0.7546771E-02  0.2144524E+00
         21   -1    0    0  501  502  0.00000000000E+00  0.00000000000E+00  0.51114070481E+00  0.51114070481E+00  0.00000000000E+00 0.  1.
         21   -1    0    0  502  503 -0.00000000000E+00 -0.00000000000E+00 -0.46986916269E+03  0.46986916269E+03  0.00000000000E+00 0. -1.
          5    1    1    2  501    0 -0.35237096509E+01  0.66678456310E+01 -0.41994682468E+02  0.42924585620E+02  0.47000000000E+01 0.  1.
         -5    1    1    2    0  503  0.35237096509E+01 -0.66678456310E+01 -0.42736333952E+03  0.42745571778E+03  0.47000000000E+01 0. -1.
<mgrwt>
<rscale>  2 0.88863207E+01</rscale>
<asrwt>0</asrwt>
<pdfrwt beam="1">  1       21 0.78636974E-04 0.88863207E+01</pdfrwt>
<pdfrwt beam="2">  1       21 0.72287617E-01 0.88863207E+01</pdfrwt>
<totfact> 0.15788382E+08</totfact>
</mgrwt>
</event>
<event>
 4    1  0.3900819E+006  0.6131084E+01  0.7546771E-02  0.2398669E+00
         21   -1    0    0  501  502  0.00000000000E+00  0.00000000000E+00  0.11833384241E+02  0.11833384241E+02  0.00000000000E+00 0.  1.
         21   -1    0    0  502  503 -0.00000000000E+00 -0.00000000000E+00 -0.45865047831E+01  0.45865047831E+01  0.00000000000E+00 0.  1.
          5    1    1    2  501    0 -0.37375516675E+01 -0.12372938304E+01  0.81753197144E+01  0.10218906053E+02  0.47000000000E+01 0.  1.
         -5    1    1    2    0  503  0.37375516675E+01  0.12372938304E+01 -0.92844025691E+00  0.62009829705E+01  0.47000000000E+01 0.  1.
<mgrwt>
<rscale>  2 0.61310838E+01</rscale>
<asrwt>0</asrwt>
<pdfrwt beam="1">  1       21 0.18205206E-02 0.61310838E+01</pdfrwt>
<pdfrwt beam="2">  1       21 0.70561613E-03 0.61310838E+01</pdfrwt>
<totfact> 0.22399717E+09</totfact>
</mgrwt>
</event>
<event>
 4    1  0.3900819E+006  0.8395413E+01  0.7546771E-02  0.2179750E+00
         21   -1    0    0  503  502  0.00000000000E+00  0.00000000000E+00  0.40325656506E+02  0.40325656506E+02  0.00000000000E+00 0. -1.
         21   -1    0    0  501  503 -0.00000000000E+00 -0.00000000000E+00 -0.17508429007E+01  0.17508429007E+01  0.00000000000E+00 0.  1.
          5    1    1    2  501    0 -0.34647237566E+01  0.60322999368E+01  0.20158116534E+02  0.21836497325E+02  0.47000000000E+01 0. -1.
         -5    1    1    2    0  502  0.34647237566E+01 -0.60322999368E+01  0.18416697071E+02  0.20240002081E+02  0.47000000000E+01 0.  1.
<mgrwt>
<rscale>  2 0.83954126E+01</rscale>
<asrwt>0</asrwt>
<pdfrwt beam="1">  1       21 0.62039465E-02 0.83954126E+01</pdfrwt>
<pdfrwt beam="2">  1       21 0.26936048E-03 0.83954126E+01</pdfrwt>
<totfact> 0.17848215E+09</totfact>
</mgrwt>
</event>
<event>
 4    1  0.3900819E+006  0.4962770E+01  0.7546771E-02  0.2573801E+00
         21   -1    0    0  501  502  0.00000000000E+00  0.00000000000E+00  0.10421605968E+03  0.10421605968E+03  0.00000000000E+00 0. -1.
         21   -1    0    0  502  503 -0.00000000000E+00 -0.00000000000E+00 -0.25060599601E+00  0.25060599601E+00  0.00000000000E+00 0. -1.
          5    1    1    2  501    0  0.83926433147E+00 -0.13545190507E+01  0.64450768827E+02  0.64641555433E+02  0.47000000000E+01 0. -1.
         -5    1    1    2    0  503 -0.83926433147E+00  0.13545190507E+01  0.39514684855E+02  0.39825110241E+02  0.47000000000E+01 0. -1.
<mgrwt>
<rscale>  2 0.49627700E+01</rscale>
<asrwt>0</asrwt>
<pdfrwt beam="1">  1       21 0.16033205E-01 0.49627700E+01</pdfrwt>
<pdfrwt beam="2">  1       21 0.38554852E-04 0.49627700E+01</pdfrwt>
<totfact> 0.37263755E+09</totfact>
</mgrwt>
</event>
<event>
 4    1  0.3900819E+006  0.6949630E+01  0.7546771E-02  0.2306102E+00
         21   -1    0    0  501  502  0.00000000000E+00  0.00000000000E+00  0.71908419148E+03  0.71908419148E+03  0.00000000000E+00 0.  1.
         21   -1    0    0  502  503 -0.00000000000E+00 -0.00000000000E+00 -0.16201064187E+00  0.16201064187E+00  0.00000000000E+00 0. -1.
          5    1    1    2  501    0  0.51158865291E+01 -0.18725590246E+00  0.63462044200E+03  0.63465849302E+03  0.47000000000E+01 0.  1.
         -5    1    1    2    0  503 -0.51158865291E+01  0.18725590246E+00  0.84301738833E+02  0.84587709096E+02  0.47000000000E+01 0. -1.
<mgrwt>
<rscale>  2 0.69496302E+01</rscale>
<asrwt>0</asrwt>
<pdfrwt beam="1">  1       21 0.11062578E+00 0.69496302E+01</pdfrwt>
<pdfrwt beam="2">  1       21 0.24925290E-04 0.69496302E+01</pdfrwt>
<totfact> 0.27865050E+08</totfact>
</mgrwt>
</event>
<event>
 4    1  0.3900819E+006  0.4843893E+01  0.7546771E-02  0.2595615E+00
         21   -1    0    0  503  502  0.00000000000E+00  0.00000000000E+00  0.17185273833E+00  0.17185273833E+00  0.00000000000E+00 0. -1.
         21   -1    0    0  501  503 -0.00000000000E+00 -0.00000000000E+00 -0.13653769301E+03  0.13653769301E+03  0.00000000000E+00 0. -1.
          5    1    1    2  501    0  0.59084091047E+00 -0.10120327627E+01 -0.68645185448E+02  0.68815875991E+02  0.47000000000E+01 0. -1.
         -5    1    1    2    0  502 -0.59084091047E+00  0.10120327627E+01 -0.67720654823E+02  0.67893669756E+02  0.47000000000E+01 0. -1.
<mgrwt>
<rscale>  2 0.48438934E+01</rscale>
<asrwt>0</asrwt>
<pdfrwt beam="1">  1       21 0.26438979E-04 0.48438934E+01</pdfrwt>
<pdfrwt beam="2">  1       21 0.21005722E-01 0.48438934E+01</pdfrwt>
<totfact> 0.39144983E+09</totfact>
</mgrwt>
</event>
<event>
 4    1  0.3900819E+006  0.7447060E+01  0.7546771E-02  0.2258152E+00
         21   -1    0    0  501  502  0.00000000000E+00  0.00000000000E+00  0.14829285076E+00  0.14829285076E+00  0.00000000000E+00 0. -1.
         21   -1    0    0  502  503 -0.00000000000E+00 -0.00000000000E+00 -0.51945360756E+03  0.51945360756E+03  0.00000000000E+00 0. -1.
          5    1    1    2  501    0 -0.31752780101E+01 -0.48255889170E+01 -0.12216678868E+03  0.12239355765E+03  0.47000000000E+01 0. -1.
         -5    1    1    2    0  503  0.31752780101E+01  0.48255889170E+01 -0.39713852603E+03  0.39720834276E+03  0.47000000000E+01 0. -1.
<mgrwt>
<rscale>  2 0.74470597E+01</rscale>
<asrwt>0</asrwt>
<pdfrwt beam="1">  1       21 0.22814386E-04 0.74470597E+01</pdfrwt>
<pdfrwt beam="2">  1       21 0.79915586E-01 0.74470597E+01</pdfrwt>
<totfact> 0.63123182E+08</totfact>
</mgrwt>
</event>
<event>
 4    1  0.3900819E+006  0.6307581E+01  0.7546771E-02  0.2377032E+00
         21   -1    0    0  503  502  0.00000000000E+00  0.00000000000E+00  0.34736713524E+03  0.34736713524E+03  0.00000000000E+00 0. -1.
         21   -1    0    0  501  503 -0.00000000000E+00 -0.00000000000E+00 -0.29207134253E+00  0.29207134253E+00  0.00000000000E+00 0.  1.
          5    1    1    2  501    0  0.21639603183E+01 -0.36073335214E+01  0.38011317912E+02  0.38531102616E+02  0.47000000000E+01 0.  1.
         -5    1    1    2    0  502 -0.21639603183E+01  0.36073335214E+01  0.30906374599E+03  0.30912810397E+03  0.47000000000E+01 0. -1.
<mgrwt>
<rscale>  2 0.63075811E+01</rscale>
<asrwt>0</asrwt>
<pdfrwt beam="1">  1       21 0.53440767E-01 0.63075811E+01</pdfrwt>
<pdfrwt beam="2">  1       21 0.44934331E-04 0.63075811E+01</pdfrwt>
<totfact> 0.49117624E+08</totfact>
</mgrwt>
</event>
<event>
 4    1  0.3900819E+006  0.1103908E+02  0.7546771E-02  0.2020267E+00
         21   -1    0    0  501  502  0.00000000000E+00  0.00000000000E+00  0.70916216142E+03  0.70916216142E+03  0.00000000000E+00 0.  1.
         21   -1    0    0  502  503 -0.00000000000E+00 -0.00000000000E+00 -0.24631921274E+00  0.24631921274E+00  0.00000000000E+00 0. -1.
          5    1    1    2  501    0 -0.39887776899E+01 -0.91575570360E+01  0.54950516662E+03  0.54961603810E+03  0.47000000000E+01 0.  1.
         -5    1    1    2    0  503  0.39887776899E+01  0.91575570360E+01  0.15941067559E+03  0.15979244253E+03  0.47000000000E+01 0. -1.
<mgrwt>
<rscale>  2 0.11039076E+02</rscale>
<asrwt>0</asrwt>
<pdfrwt beam="1">  1       21 0.10910024E+00 0.11039076E+02</pdfrwt>
<pdfrwt beam="2">  1       21 0.37895831E-04 0.11039076E+02</pdfrwt>
<totfact> 0.20295913E+08</totfact>
</mgrwt>
</event>
<event>
 4    1  0.3900819E+006  0.4856418E+01  0.7546771E-02  0.2593273E+00
         21   -1    0    0  503  502  0.00000000000E+00  0.00000000000E+00  0.57138781077E+00  0.57138781077E+00  0.00000000000E+00 0.  1.
         21   -1    0    0  501  503 -0.00000000000E+00 -0.00000000000E+00 -0.55743284290E+02  0.55743284290E+02  0.00000000000E+00 0.  1.
          5    1    1    2  501    0  0.10853280901E+01  0.56290577169E+00 -0.41930389238E+02  0.42210689897E+02  0.47000000000E+01 0.  1.
         -5    1    1    2    0  502 -0.10853280901E+01 -0.56290577169E+00 -0.13241507241E+02  0.14103982203E+02  0.47000000000E+01 0.  1.
<mgrwt>
<rscale>  2 0.48564184E+01</rscale>
<asrwt>0</asrwt>
<pdfrwt beam="1">  1       21 0.87905823E-04 0.48564184E+01</pdfrwt>
<pdfrwt beam="2">  1       21 0.85758893E-02 0.48564184E+01</pdfrwt>
<totfact> 0.31823322E+09</totfact>
</mgrwt>
</event>
<event>
 4    1  0.3900819E+006  0.4918027E+01  0.7546771E-02  0.2581904E+00
         21   -1    0    0  503  502  0.00000000000E+00  0.00000000000E+00  0.30832579669E+01  0.30832579669E+01  0.00000000000E+00 0. -1.
         21   -1    0    0  501  503 -0.00000000000E+00 -0.00000000000E+00 -0.79038130017E+01  0.79038130017E+01  0.00000000000E+00 0. -1.
          5    1    1    2  501    0  0.77108845499E+00  0.12257277148E+01 -0.28856896999E+01  0.57021216122E+01  0.47000000000E+01 0.  1.
         -5    1    1    2    0  502 -0.77108845499E+00 -0.12257277148E+01 -0.19348653348E+01  0.52849493564E+01  0.47000000000E+01 0.  1.
<mgrwt>
<rscale>  2 0.49180266E+01</rscale>
<asrwt>0</asrwt>
<pdfrwt beam="1">  1       21 0.47434739E-03 0.49180266E+01</pdfrwt>
<pdfrwt beam="2">  1       21 0.12159712E-02 0.49180266E+01</pdfrwt>
<totfact> 0.55617485E+09</totfact>
</mgrwt>
</event>
<event>
 4    1  0.3900819E+006  0.6040765E+01  0.7546771E-02  0.2410148E+00
         21   -1    0    0  503  502  0.00000000000E+00  0.00000000000E+00  0.22066800761E+02  0.22066800761E+02  0.00000000000E+00 0. -1.
         21   -1    0    0  501  503 -0.00000000000E+00 -0.00000000000E+00 -0.10787371281E+02  0.10787371281E+02  0.00000000000E+00 0.  1.
          5    1    1    2  501    0  0.92108215085E+00 -0.36813654110E+01 -0.94759242437E+01  0.11237614689E+02  0.47000000000E+01 0.  1.
         -5    1    1    2    0  502 -0.92108215085E+00  0.36813654110E+01  0.20755353724E+02  0.21616557354E+02  0.47000000000E+01 0. -1.
<mgrwt>
<rscale>  2 0.60407652E+01</rscale>
<asrwt>0</asrwt>
<pdfrwt beam="1">  1       21 0.33948924E-02 0.60407652E+01</pdfrwt>
<pdfrwt beam="2">  1       21 0.16595956E-02 0.60407652E+01</pdfrwt>
<totfact> 0.26779085E+08</totfact>
</mgrwt>
</event>
<event>
 4    1  0.3900819E+006  0.6029348E+01  0.7546771E-02  0.2411620E+00
         21   -1    0    0  503  502  0.00000000000E+00  0.00000000000E+00  0.28264067497E+00  0.28264067497E+00  0.00000000000E+00 0.  1.
         21   -1    0    0  501  503 -0.00000000000E+00 -0.00000000000E+00 -0.25877920046E+03  0.25877920046E+03  0.00000000000E+00 0. -1.
          5    1    1    2  501    0  0.63129469094E+00 -0.37235069601E+01 -0.22111271820E+03  0.22119490768E+03  0.47000000000E+01 0. -1.
         -5    1    1    2    0  502 -0.63129469094E+00  0.37235069601E+01 -0.37383841590E+02  0.37866933453E+02  0.47000000000E+01 0.  1.
<mgrwt>
<rscale>  2 0.60293480E+01</rscale>
<asrwt>0</asrwt>
<pdfrwt beam="1">  1       21 0.43482906E-04 0.60293480E+01</pdfrwt>
<pdfrwt beam="2">  1       21 0.39812436E-01 0.60293480E+01</pdfrwt>
<totfact> 0.84084680E+08</totfact>
</mgrwt>
</event>
<event>
 4    1  0.3900819E+006  0.5275462E+01  0.7546771E-02  0.2520490E+00
         21   -1    0    0  501  502  0.00000000000E+00  0.00000000000E+00  0.12519470371E+02  0.12519470371E+02  0.00000000000E+00 0.  1.
         21   -1    0    0  502  503 -0.00000000000E+00 -0.00000000000E+00 -0.38761626951E+01  0.38761626951E+01  0.00000000000E+00 0.  1.
          5    1    1    2  501    0  0.18573753641E+01  0.15134923136E+01  0.96754019725E+01  0.11020159053E+02  0.47000000000E+01 0.  1.
         -5    1    1    2    0  503 -0.18573753641E+01 -0.15134923136E+01 -0.10320942967E+01  0.53754740129E+01  0.47000000000E+01 0.  1.
<mgrwt>
<rscale>  2 0.52754623E+01</rscale>
<asrwt>0</asrwt>
<pdfrwt beam="1">  1       21 0.19260724E-02 0.52754623E+01</pdfrwt>
<pdfrwt beam="2">  1       21 0.59633273E-03 0.52754623E+01</pdfrwt>
<totfact> 0.22804821E+09</totfact>
</mgrwt>
</event>
<event>
 4    1  0.3900819E+006  0.1094787E+02  0.7546771E-02  0.2024744E+00
         21   -1    0    0  501  502  0.00000000000E+00  0.00000000000E+00  0.71946263966E+01  0.71946263966E+01  0.00000000000E+00 0. -1.
         21   -1    0    0  502  503 -0.00000000000E+00 -0.00000000000E+00 -0.20099971127E+02  0.20099971127E+02  0.00000000000E+00 0. -1.
          5    1    1    2  501    0 -0.97586645104E+01 -0.15919424991E+01 -0.80610097852E+00  0.10977504850E+02  0.47000000000E+01 0. -1.
         -5    1    1    2    0  503  0.97586645104E+01  0.15919424991E+01 -0.12099243752E+02  0.16317092674E+02  0.47000000000E+01 0. -1.
<mgrwt>
<rscale>  2 0.10947868E+02</rscale>
<asrwt>0</asrwt>
<pdfrwt beam="1">  1       21 0.11068656E-02 0.10947868E+02</pdfrwt>
<pdfrwt beam="2">  1       21 0.30923032E-02 0.10947868E+02</pdfrwt>
<totfact> 0.80292389E+08</totfact>
</mgrwt>
</event>
<event>
 4    1  0.3900819E+006  0.6123462E+01  0.7546771E-02  0.2399627E+00
         21   -1    0    0  503  502  0.00000000000E+00  0.00000000000E+00  0.94146536966E+01  0.94146536966E+01  0.00000000000E+00 0.  1.
         21   -1    0    0  501  503 -0.00000000000E+00 -0.00000000000E+00 -0.41678754091E+01  0.41678754091E+01  0.00000000000E+00 0. -1.
          5    1    1    2  501    0  0.34602287746E+01  0.18529972124E+01  0.40544407426E+01  0.73440636964E+01  0.47000000000E+01 0.  1.
         -5    1    1    2    0  502 -0.34602287746E+01 -0.18529972124E+01  0.11923375449E+01  0.62384654093E+01  0.47000000000E+01 0. -1.
<mgrwt>
<rscale>  2 0.61234616E+01</rscale>
<asrwt>0</asrwt>
<pdfrwt beam="1">  1       21 0.14484083E-02 0.61234616E+01</pdfrwt>
<pdfrwt beam="2">  1       21 0.64121161E-03 0.61234616E+01</pdfrwt>
<totfact> 0.35480012E+09</totfact>
</mgrwt>
</event>
<event>
 4    1  0.3900819E+006  0.6290837E+01  0.7546771E-02  0.2379041E+00
         21   -1    0    0  503  502  0.00000000000E+00  0.00000000000E+00  0.25386010065E+01  0.25386010065E+01  0.00000000000E+00 0.  1.
         21   -1    0    0  501  503 -0.00000000000E+00 -0.00000000000E+00 -0.29405392909E+02  0.29405392909E+02  0.00000000000E+00 0. -1.
          5    1    1    2  501    0 -0.37223938934E+01 -0.19048382597E+01 -0.24381546166E+02  0.25180040082E+02  0.47000000000E+01 0. -1.
         -5    1    1    2    0  502  0.37223938934E+01  0.19048382597E+01 -0.24852457369E+01  0.67639538339E+01  0.47000000000E+01 0.  1.
<mgrwt>
<rscale>  2 0.62908366E+01</rscale>
<asrwt>0</asrwt>
<pdfrwt beam="1">  1       21 0.39055401E-03 0.62908366E+01</pdfrwt>
<pdfrwt beam="2">  1       21 0.45239065E-02 0.62908366E+01</pdfrwt>
<totfact> 0.13864058E+09</totfact>
</mgrwt>
</event>
<event>
 4    1  0.3900819E+006  0.5375443E+01  0.7546771E-02  0.2504570E+00
         21   -1    0    0  501  502  0.00000000000E+00  0.00000000000E+00  0.27743547399E+00  0.27743547399E+00  0.00000000000E+00 0.  1.
         21   -1    0    0  502  503 -0.00000000000E+00 -0.00000000000E+00 -0.11768305099E+03  0.11768305099E+03  0.00000000000E+00 0.  1.
          5    1    1    2  501    0  0.24491975039E+01 -0.89823272062E+00 -0.78702317936E+02  0.78885678288E+02  0.47000000000E+01 0.  1.
         -5    1    1    2    0  503 -0.24491975039E+01  0.89823272062E+00 -0.38703297577E+02  0.39074808173E+02  0.47000000000E+01 0.  1.
<mgrwt>
<rscale>  2 0.53754433E+01</rscale>
<asrwt>0</asrwt>
<pdfrwt beam="1">  1       21 0.42682389E-04 0.53754433E+01</pdfrwt>
<pdfrwt beam="2">  1       21 0.18105081E-01 0.53754433E+01</pdfrwt>
<totfact> 0.29014939E+09</totfact>
</mgrwt>
</event>
<event>
 4    1  0.3900819E+006  0.9710651E+01  0.7546771E-02  0.2091839E+00
         21   -1    0    0  503  502  0.00000000000E+00  0.00000000000E+00  0.15270364915E+02  0.15270364915E+02  0.00000000000E+00 0. -1.
         21   -1    0    0  501  503 -0.00000000000E+00 -0.00000000000E+00 -0.62162427183E+01  0.62162427183E+01  0.00000000000E+00 0.  1.
          5    1    1    2  501    0  0.84755424609E+01  0.60985703934E+00  0.36535407600E+01  0.10375215935E+02  0.47000000000E+01 0.  1.
         -5    1    1    2    0  502 -0.84755424609E+01 -0.60985703934E+00  0.54005814366E+01  0.11111391698E+02  0.47000000000E+01 0. -1.
<mgrwt>
<rscale>  2 0.97106511E+01</rscale>
<asrwt>0</asrwt>
<pdfrwt beam="1">  1       21 0.23492869E-02 0.97106511E+01</pdfrwt>
<pdfrwt beam="2">  1       21 0.95634504E-03 0.97106511E+01</pdfrwt>
<totfact> 0.13983980E+09</totfact>
</mgrwt>
</event>
<event>
 4    1  0.3900819E+006  0.9820435E+01  0.7546771E-02  0.2085353E+00
         21   -1    0    0  501  502  0.00000000000E+00  0.00000000000E+00  0.43679666673E+03  0.43679666673E+03  0.00000000000E+00 0. -1.
         21   -1    0    0  502  503 -0.00000000000E+00 -0.00000000000E+00 -0.74457459959E+00  0.74457459959E+00  0.00000000000E+00 0.  1.
          5    1    1    2  501    0 -0.75159259728E+01 -0.42263228424E+01  0.40151531585E+03  0.40163539412E+03  0.47000000000E+01 0. -1.
         -5    1    1    2    0  503  0.75159259728E+01  0.42263228424E+01  0.34536776287E+02  0.35905847216E+02  0.47000000000E+01 0.  1.
<mgrwt>
<rscale>  2 0.98204352E+01</rscale>
<asrwt>0</asrwt>
<pdfrwt beam="1">  1       21 0.67199282E-01 0.98204352E+01</pdfrwt>
<pdfrwt beam="2">  1       21 0.11455029E-03 0.98204352E+01</pdfrwt>
<totfact> 0.11360004E+08</totfact>
</mgrwt>
</event>
<event>
 4    1  0.3900819E+006  0.6877414E+01  0.7546771E-02  0.2313532E+00
         21   -1    0    0  501  502  0.00000000000E+00  0.00000000000E+00  0.29628530184E+03  0.29628530184E+03  0.00000000000E+00 0.  1.
         21   -1    0    0  502  503 -0.00000000000E+00 -0.00000000000E+00 -0.19755239288E+00  0.19755239288E+00  0.00000000000E+00 0.  1.
          5    1    1    2  501    0  0.41730027021E+01  0.27919307961E+01  0.21298533692E+03  0.21309634575E+03  0.47000000000E+01 0.  1.
         -5    1    1    2    0  503 -0.41730027021E+01 -0.27919307961E+01  0.83102412533E+02  0.83386508489E+02  0.47000000000E+01 0.  1.
<mgrwt>
<rscale>  2 0.68774144E+01</rscale>
<asrwt>0</asrwt>
<pdfrwt beam="1">  1       21 0.45581999E-01 0.68774144E+01</pdfrwt>
<pdfrwt beam="2">  1       21 0.30392913E-04 0.68774144E+01</pdfrwt>
<totfact> 0.11731258E+09</totfact>
</mgrwt>
</event>
<event>
 4    1  0.3900819E+006  0.4838569E+01  0.7546771E-02  0.2596614E+00
         21   -1    0    0  501  502  0.00000000000E+00  0.00000000000E+00  0.56533655716E+01  0.56533655716E+01  0.00000000000E+00 0.  1.
         21   -1    0    0  502  503 -0.00000000000E+00 -0.00000000000E+00 -0.71956988210E+01  0.71956988210E+01  0.00000000000E+00 0. -1.
          5    1    1    2  501    0 -0.73400807667E+00  0.88486058182E+00  0.34145964495E+01  0.59220954922E+01  0.47000000000E+01 0.  1.
         -5    1    1    2    0  503  0.73400807667E+00 -0.88486058182E+00 -0.49569296989E+01  0.69269689003E+01  0.47000000000E+01 0. -1.
<mgrwt>
<rscale>  2 0.48385686E+01</rscale>
<asrwt>0</asrwt>
<pdfrwt beam="1">  1       21 0.86974855E-03 0.48385686E+01</pdfrwt>
<pdfrwt beam="2">  1       21 0.11070306E-02 0.48385686E+01</pdfrwt>
<totfact> 0.27015946E+09</totfact>
</mgrwt>
</event>
<event>
 4    1  0.3900819E+006  0.1589529E+02  0.7546771E-02  0.1841917E+00
         21   -1    0    0  501  502  0.00000000000E+00  0.00000000000E+00  0.68704502384E+03  0.68704502384E+03  0.00000000000E+00 0.  1.
         21   -1    0    0  502  503 -0.00000000000E+00 -0.00000000000E+00 -0.37735423565E+00  0.37735423565E+00  0.00000000000E+00 0. -1.
          5    1    1    2  501    0  0.12240288850E+02  0.89858499394E+01  0.39817054962E+03  0.39848769963E+03  0.47000000000E+01 0.  1.
         -5    1    1    2    0  503 -0.12240288850E+02 -0.89858499394E+01  0.28849711999E+03  0.28893467845E+03  0.47000000000E+01 0. -1.
<mgrwt>
<rscale>  2 0.15895288E+02</rscale>
<asrwt>0</asrwt>
<pdfrwt beam="1">  1       21 0.10569823E+00 0.15895288E+02</pdfrwt>
<pdfrwt beam="2">  1       21 0.58055048E-04 0.15895288E+02</pdfrwt>
<totfact> 0.13714918E+08</totfact>
</mgrwt>
</event>
<event>
 4    1  0.3900819E+006  0.7388078E+01  0.7546771E-02  0.2263561E+00
         21   -1    0    0  501  502  0.00000000000E+00  0.00000000000E+00  0.51075339097E+02  0.51075339097E+02  0.00000000000E+00 0.  1.
         21   -1    0    0  502  503 -0.00000000000E+00 -0.00000000000E+00 -0.18869146299E+01  0.18869146299E+01  0.00000000000E+00 0. -1.
          5    1    1    2  501    0  0.34764699810E+00 -0.56897128015E+01  0.42032212608E+02  0.42676581247E+02  0.47000000000E+01 0. -1.
         -5    1    1    2    0  503 -0.34764699810E+00  0.56897128015E+01  0.71562118598E+01  0.10285672481E+02  0.47000000000E+01 0. -1.
<mgrwt>
<rscale>  2 0.73880776E+01</rscale>
<asrwt>0</asrwt>
<pdfrwt beam="1">  1       21 0.78577434E-02 0.73880776E+01</pdfrwt>
<pdfrwt beam="2">  1       21 0.29029460E-03 0.73880776E+01</pdfrwt>
<totfact> 0.10258516E+09</totfact>
</mgrwt>
</event>
<event>
 4    1  0.3900819E+006  0.5348708E+01  0.7546771E-02  0.2508778E+00
         21   -1    0    0  503  502  0.00000000000E+00  0.00000000000E+00  0.15807717838E+01  0.15807717838E+01  0.00000000000E+00 0. -1.
         21   -1    0    0  501  503 -0.00000000000E+00 -0.00000000000E+00 -0.23837969317E+02  0.23837969317E+02  0.00000000000E+00 0. -1.
          5    1    1    2  501    0 -0.45349606264E+00 -0.25125712404E+01 -0.17365192096E+02  0.18170266081E+02  0.47000000000E+01 0. -1.
         -5    1    1    2    0  502  0.45349606264E+00  0.25125712404E+01 -0.48920054373E+01  0.72484750200E+01  0.47000000000E+01 0. -1.
<mgrwt>
<rscale>  2 0.53487076E+01</rscale>
<asrwt>0</asrwt>
<pdfrwt beam="1">  1       21 0.24319567E-03 0.53487076E+01</pdfrwt>
<pdfrwt beam="2">  1       21 0.36673797E-02 0.53487076E+01</pdfrwt>
<totfact> 0.31331553E+09</totfact>
</mgrwt>
</event>
<event>
 4    1  0.3900819E+006  0.5114677E+01  0.7546771E-02  0.2547204E+00
         21   -1    0    0  503  502  0.00000000000E+00  0.00000000000E+00  0.11445226711E+01  0.11445226711E+01  0.00000000000E+00 0. -1.
         21   -1    0    0  501  503 -0.00000000000E+00 -0.00000000000E+00 -0.39785310357E+02  0.39785310357E+02  0.00000000000E+00 0.  1.
          5    1    1    2  501    0  0.98729048654E+00  0.17593104609E+01 -0.32669750225E+02  0.33067695649E+02  0.47000000000E+01 0.  1.
         -5    1    1    2    0  502 -0.98729048654E+00 -0.17593104609E+01 -0.59710374618E+01  0.78621373794E+01  0.47000000000E+01 0. -1.
<mgrwt>
<rscale>  2 0.51146765E+01</rscale>
<asrwt>0</asrwt>
<pdfrwt beam="1">  1       21 0.17608041E-03 0.51146765E+01</pdfrwt>
<pdfrwt beam="2">  1       21 0.61208169E-02 0.51146765E+01</pdfrwt>
<totfact> 0.21910515E+09</totfact>
</mgrwt>
</event>
<event>
 4    1  0.3900819E+006  0.5533934E+01  0.7546771E-02  0.2480341E+00
         21   -1    0    0  503  502  0.00000000000E+00  0.00000000000E+00  0.10800178579E+03  0.10800178579E+03  0.00000000000E+00 0.  1.
         21   -1    0    0  501  503 -0.00000000000E+00 -0.00000000000E+00 -0.34734328321E+00  0.34734328321E+00  0.00000000000E+00 0. -1.
          5    1    1    2  501    0  0.27862714820E+01  0.87813374919E+00  0.77043201380E+02  0.77241694094E+02  0.47000000000E+01 0.  1.
         -5    1    1    2    0  502 -0.27862714820E+01 -0.87813374919E+00  0.30611241125E+02  0.31107434977E+02  0.47000000000E+01 0. -1.
<mgrwt>
<rscale>  2 0.55339342E+01</rscale>
<asrwt>0</asrwt>
<pdfrwt beam="1">  1       21 0.16615633E-01 0.55339342E+01</pdfrwt>
<pdfrwt beam="2">  1       21 0.53437514E-04 0.55339342E+01</pdfrwt>
<totfact> 0.25298337E+09</totfact>
</mgrwt>
</event>
<event>
 4    1  0.3900819E+006  0.4779337E+01  0.7546771E-02  0.2607854E+00
         21   -1    0    0  503  502  0.00000000000E+00  0.00000000000E+00  0.87870202416E+00  0.87870202416E+00  0.00000000000E+00 0. -1.
         21   -1    0    0  501  503 -0.00000000000E+00 -0.00000000000E+00 -0.14375608262E+04  0.14375608262E+04  0.00000000000E+00 0. -1.
          5    1    1    2  501    0 -0.85738399531E+00  0.13020654248E+00 -0.14310283803E+04  0.14310363612E+04  0.47000000000E+01 0. -1.
         -5    1    1    2    0  502  0.85738399531E+00 -0.13020654248E+00 -0.56537438656E+01  0.74031669410E+01  0.47000000000E+01 0. -1.
<mgrwt>
<rscale>  2 0.47793369E+01</rscale>
<asrwt>0</asrwt>
<pdfrwt beam="1">  1       21 0.13518416E-03 0.47793369E+01</pdfrwt>
<pdfrwt beam="2">  1       21 0.22116446E+00 0.47793369E+01</pdfrwt>
<totfact> 0.53898447E+06</totfact>
</mgrwt>
</event>
<event>
 4    1  0.3900819E+006  0.5781307E+01  0.7546771E-02  0.2444786E+00
         21   -1    0    0  501  502  0.00000000000E+00  0.00000000000E+00  0.45646951442E+01  0.45646951442E+01  0.00000000000E+00 0.  1.
         21   -1    0    0  502  503 -0.00000000000E+00 -0.00000000000E+00 -0.10120855812E+02  0.10120855812E+02  0.00000000000E+00 0.  1.
          5    1    1    2  501    0 -0.17299302191E+01 -0.28880540968E+01  0.10831703929E+01  0.58819021693E+01  0.47000000000E+01 0.  1.
         -5    1    1    2    0  503  0.17299302191E+01  0.28880540968E+01 -0.66393310607E+01  0.88036487869E+01  0.47000000000E+01 0.  1.
<mgrwt>
<rscale>  2 0.57813074E+01</rscale>
<asrwt>0</asrwt>
<pdfrwt beam="1">  1       21 0.70226079E-03 0.57813074E+01</pdfrwt>
<pdfrwt beam="2">  1       21 0.15570547E-02 0.57813074E+01</pdfrwt>
<totfact> 0.26773226E+09</totfact>
</mgrwt>
</event>
<event>
 4    1  0.3900819E+006  0.6370552E+01  0.7546771E-02  0.2369554E+00
         21   -1    0    0  503  502  0.00000000000E+00  0.00000000000E+00  0.56001875492E+02  0.56001875492E+02  0.00000000000E+00 0.  1.
         21   -1    0    0  501  503 -0.00000000000E+00 -0.00000000000E+00 -0.15172826827E+01  0.15172826827E+01  0.00000000000E+00 0.  1.
          5    1    1    2  501    0 -0.11462983926E+01 -0.41448683478E+01  0.64561192227E+01  0.90700280619E+01  0.47000000000E+01 0.  1.
         -5    1    1    2    0  502  0.11462983926E+01  0.41448683478E+01  0.48028473586E+02  0.48449130112E+02  0.47000000000E+01 0.  1.
<mgrwt>
<rscale>  2 0.63705521E+01</rscale>
<asrwt>0</asrwt>
<pdfrwt beam="1">  1       21 0.86156716E-02 0.63705521E+01</pdfrwt>
<pdfrwt beam="2">  1       21 0.23342815E-03 0.63705521E+01</pdfrwt>
<totfact> 0.10804012E+09</totfact>
</mgrwt>
</event>
<event>
 4    1  0.3900819E+006  0.5207685E+01  0.7546771E-02  0.2531579E+00
         21   -1    0    0  503  502  0.00000000000E+00  0.00000000000E+00  0.16596057141E+02  0.16596057141E+02  0.00000000000E+00 0.  1.
         21   -1    0    0  501  503 -0.00000000000E+00 -0.00000000000E+00 -0.33946262744E+01  0.33946262744E+01  0.00000000000E+00 0.  1.
          5    1    1    2  501    0  0.15416388548E+01  0.16289045907E+01 -0.59742333988E+00  0.52418408190E+01  0.47000000000E+01 0.  1.
         -5    1    1    2    0  502 -0.15416388548E+01 -0.16289045907E+01  0.13798854207E+02  0.14748842597E+02  0.47000000000E+01 0.  1.
<mgrwt>
<rscale>  2 0.52076848E+01</rscale>
<asrwt>0</asrwt>
<pdfrwt beam="1">  1       21 0.25532395E-02 0.52076848E+01</pdfrwt>
<pdfrwt beam="2">  1       21 0.52225021E-03 0.52076848E+01</pdfrwt>
<totfact> 0.18088745E+09</totfact>
</mgrwt>
</event>
<event>
 4    1  0.3900819E+006  0.4706493E+01  0.7546771E-02  0.2622013E+00
         21   -1    0    0  501  502  0.00000000000E+00  0.00000000000E+00  0.92436010558E+03  0.92436010558E+03  0.00000000000E+00 0.  1.
         21   -1    0    0  502  503 -0.00000000000E+00 -0.00000000000E+00 -0.69976589840E-01  0.69976589840E-01  0.00000000000E+00 0.  1.
          5    1    1    2  501    0 -0.21479768431E+00  0.12221797225E+00  0.83695190462E+03  0.83696513770E+03  0.47000000000E+01 0.  1.
         -5    1    1    2    0  503  0.21479768431E+00 -0.12221797225E+00  0.87338224368E+02  0.87464944470E+02  0.47000000000E+01 0.  1.
<mgrwt>
<rscale>  2 0.47064929E+01</rscale>
<asrwt>0</asrwt>
<pdfrwt beam="1">  1       21 0.14219947E+00 0.47064929E+01</pdfrwt>
<pdfrwt beam="2">  1       21 0.10766369E-04 0.47064929E+01</pdfrwt>
<totfact> 0.38974835E+08</totfact>
</mgrwt>
</event>
<event>
 4    1  0.3900819E+006  0.5536423E+01  0.7546771E-02  0.2479970E+00
         21   -1    0    0  503  502  0.00000000000E+00  0.00000000000E+00  0.14331498016E+01  0.14331498016E+01  0.00000000000E+00 0.  1.
         21   -1    0    0  501  503 -0.00000000000E+00 -0.00000000000E+00 -0.22052560552E+02  0.22052560552E+02  0.00000000000E+00 0.  1.
          5    1    1    2  501    0  0.15026567289E+01 -0.25107780621E+01 -0.82709618677E+01  0.99529289126E+01  0.47000000000E+01 0.  1.
         -5    1    1    2    0  502 -0.15026567289E+01  0.25107780621E+01 -0.12348448883E+02  0.13532781441E+02  0.47000000000E+01 0.  1.
<mgrwt>
<rscale>  2 0.55364234E+01</rscale>
<asrwt>0</asrwt>
<pdfrwt beam="1">  1       21 0.22048460E-03 0.55364234E+01</pdfrwt>
<pdfrwt beam="2">  1       21 0.33927015E-02 0.55364234E+01</pdfrwt>
<totfact> 0.41419669E+09</totfact>
</mgrwt>
</event>
<event>
 4    1  0.3900819E+006  0.8321119E+01  0.7546771E-02  0.2185369E+00
         21   -1    0    0  501  502  0.00000000000E+00  0.00000000000E+00  0.11108558334E+04  0.11108558334E+04  0.00000000000E+00 0.  1.
         21   -1    0    0  502  503 -0.00000000000E+00 -0.00000000000E+00 -0.15342885770E+00  0.15342885770E+00  0.00000000000E+00 0. -1.
          5    1    1    2  501    0  0.44636560093E+01  0.52179310770E+01  0.98339444998E+03  0.98342965446E+03  0.47000000000E+01 0.  1.
         -5    1    1    2    0  503 -0.44636560093E+01 -0.52179310770E+01  0.12730795455E+03  0.12757960778E+03  0.47000000000E+01 0. -1.
<mgrwt>
<rscale>  2 0.83211195E+01</rscale>
<asrwt>0</asrwt>
<pdfrwt beam="1">  1       21 0.17089446E+00 0.83211195E+01</pdfrwt>
<pdfrwt beam="2">  1       21 0.23605329E-04 0.83211195E+01</pdfrwt>
<totfact> 0.12800384E+08</totfact>
</mgrwt>
</event>
<event>
 4    1  0.3900819E+006  0.5617706E+01  0.7546771E-02  0.2468004E+00
         21   -1    0    0  501  502  0.00000000000E+00  0.00000000000E+00  0.50108817163E+02  0.50108817163E+02  0.00000000000E+00 0. -1.
         21   -1    0    0  502  503 -0.00000000000E+00 -0.00000000000E+00 -0.67193123257E+00  0.67193123257E+00  0.00000000000E+00 0. -1.
          5    1    1    2  501    0  0.78271157265E-01 -0.30761171412E+01  0.31076135384E+02  0.31579816552E+02  0.47000000000E+01 0. -1.
         -5    1    1    2    0  503 -0.78271157265E-01  0.30761171412E+01  0.18360750546E+02  0.19200931844E+02  0.47000000000E+01 0. -1.
<mgrwt>
<rscale>  2 0.56177062E+01</rscale>
<asrwt>0</asrwt>
<pdfrwt beam="1">  1       21 0.77090459E-02 0.56177062E+01</pdfrwt>
<pdfrwt beam="2">  1       21 0.10337407E-03 0.56177062E+01</pdfrwt>
<totfact> 0.34668650E+09</totfact>
</mgrwt>
</event>
<event>
 4    1  0.3900819E+006  0.5120263E+01  0.7546771E-02  0.2546252E+00
         21   -1    0    0  503  502  0.00000000000E+00  0.00000000000E+00  0.45541079043E+02  0.45541079043E+02  0.00000000000E+00 0. -1.
         21   -1    0    0  501  503 -0.00000000000E+00 -0.00000000000E+00 -0.79772797924E+00  0.79772797924E+00  0.00000000000E+00 0. -1.
          5    1    1    2  501    0 -0.83844714664E+00 -0.18504323048E+01  0.10147748546E+02  0.11366349189E+02  0.47000000000E+01 0. -1.
         -5    1    1    2    0  502  0.83844714664E+00  0.18504323048E+01  0.34595602518E+02  0.34972457834E+02  0.47000000000E+01 0. -1.
<mgrwt>
<rscale>  2 0.51202630E+01</rscale>
<asrwt>0</asrwt>
<pdfrwt beam="1">  1       21 0.70063178E-02 0.51202630E+01</pdfrwt>
<pdfrwt beam="2">  1       21 0.12272742E-03 0.51202630E+01</pdfrwt>
<totfact> 0.29111673E+09</totfact>
</mgrwt>
</event>
<event>
 4    1  0.3900819E+006  0.4866314E+01  0.7546771E-02  0.2591430E+00
         21   -1    0    0  501  502  0.00000000000E+00  0.00000000000E+00  0.99478760383E+03  0.99478760383E+03  0.00000000000E+00 0.  1.
         21   -1    0    0  502  503 -0.00000000000E+00 -0.00000000000E+00 -0.32128816004E-01  0.32128816004E-01  0.00000000000E+00 0.  1.
          5    1    1    2  501    0  0.49869757065E+00  0.11585833798E+01  0.24419985801E+03  0.24424834015E+03  0.47000000000E+01 0.  1.
         -5    1    1    2    0  503 -0.49869757065E+00 -0.11585833798E+01  0.75055561701E+03  0.75057139250E+03  0.47000000000E+01 0.  1.
<mgrwt>
<rscale>  2 0.48663143E+01</rscale>
<asrwt>0</asrwt>
<pdfrwt beam="1">  1       21 0.15301958E+00 0.48663143E+01</pdfrwt>
<pdfrwt beam="2">  1       21 0.49436915E-05 0.48663143E+01</pdfrwt>
<totfact> 0.96859805E+08</totfact>
</mgrwt>
</event>
<event>
 4    1  0.3900819E+006  0.4955830E+01  0.7546771E-02  0.2575050E+00
         21   -1    0    0  503  502  0.00000000000E+00  0.00000000000E+00  0.44247364109E+00  0.44247364109E+00  0.00000000000E+00 0. -1.
         21   -1    0    0  501  503 -0.00000000000E+00 -0.00000000000E+00 -0.55875636232E+02  0.55875636232E+02  0.00000000000E+00 0. -1.
          5    1    1    2  501    0 -0.12645719756E+01 -0.93333425616E+00 -0.25428466106E+02  0.25906893747E+02  0.47000000000E+01 0. -1.
         -5    1    1    2    0  502  0.12645719756E+01  0.93333425616E+00 -0.30004696485E+02  0.30411216126E+02  0.47000000000E+01 0. -1.
<mgrwt>
<rscale>  2 0.49558304E+01</rscale>
<asrwt>0</asrwt>
<pdfrwt beam="1">  1       21 0.68072898E-04 0.49558304E+01</pdfrwt>
<pdfrwt beam="2">  1       21 0.85962480E-02 0.49558304E+01</pdfrwt>
<totfact> 0.45428777E+09</totfact>
</mgrwt>
</event>
<event>
 4    1  0.3900819E+006  0.5072843E+01  0.7546771E-02  0.2554391E+00
         21   -1    0    0  501  502  0.00000000000E+00  0.00000000000E+00  0.81491455851E-01  0.81491455851E-01  0.00000000000E+00 0. -1.
         21   -1    0    0  502  503 -0.00000000000E+00 -0.00000000000E+00 -0.60573442950E+03  0.60573442950E+03  0.00000000000E+00 0.  1.
          5    1    1    2  501    0  0.13029562092E+01  0.13950069413E+01 -0.93255531948E+02  0.93393404361E+02  0.47000000000E+01 0. -1.
         -5    1    1    2    0  503 -0.13029562092E+01 -0.13950069413E+01 -0.51239740610E+03  0.51242251660E+03  0.47000000000E+01 0.  1.
<mgrwt>
<rscale>  2 0.50728433E+01</rscale>
<asrwt>0</asrwt>
<pdfrwt beam="1">  1       21 0.12537621E-04 0.50728433E+01</pdfrwt>
<pdfrwt beam="2">  1       21 0.93186387E-01 0.50728433E+01</pdfrwt>
<totfact> 0.79934885E+08</totfact>
</mgrwt>
</event>
<event>
 4    1  0.3900819E+006  0.9399419E+01  0.7546771E-02  0.2110870E+00
         21   -1    0    0  501  502  0.00000000000E+00  0.00000000000E+00  0.75185492154E+02  0.75185492154E+02  0.00000000000E+00 0. -1.
         21   -1    0    0  502  503 -0.00000000000E+00 -0.00000000000E+00 -0.31331476723E+01  0.31331476723E+01  0.00000000000E+00 0. -1.
          5    1    1    2  501    0 -0.21905806587E+01  0.78396706924E+01  0.66983138352E+02  0.67639410876E+02  0.47000000000E+01 0. -1.
         -5    1    1    2    0  503  0.21905806587E+01 -0.78396706924E+01  0.50692061298E+01  0.10679228950E+02  0.47000000000E+01 0. -1.
<mgrwt>
<rscale>  2 0.93994191E+01</rscale>
<asrwt>0</asrwt>
<pdfrwt beam="1">  1       21 0.11566997E-01 0.93994191E+01</pdfrwt>
<pdfrwt beam="2">  1       21 0.48202277E-03 0.93994191E+01</pdfrwt>
<totfact> 0.31815564E+08</totfact>
</mgrwt>
</event>
<event>
 4    1  0.3900819E+006  0.7035287E+01  0.7546771E-02  0.2297451E+00
         21   -1    0    0  503  502  0.00000000000E+00  0.00000000000E+00  0.58760011098E+02  0.58760011098E+02  0.00000000000E+00 0.  1.
         21   -1    0    0  501  503 -0.00000000000E+00 -0.00000000000E+00 -0.11013389441E+01  0.11013389441E+01  0.00000000000E+00 0. -1.
          5    1    1    2  501    0 -0.50067539559E+01 -0.15289448697E+01  0.43344244045E+02  0.43911487671E+02  0.47000000000E+01 0. -1.
         -5    1    1    2    0  502  0.50067539559E+01  0.15289448697E+01  0.14314428108E+02  0.15949862371E+02  0.47000000000E+01 0.  1.
<mgrwt>
<rscale>  2 0.70352866E+01</rscale>
<asrwt>0</asrwt>
<pdfrwt beam="1">  1       21 0.90399992E-02 0.70352866E+01</pdfrwt>
<pdfrwt beam="2">  1       21 0.16943681E-03 0.70352866E+01</pdfrwt>
<totfact> 0.16766320E+09</totfact>
</mgrwt>
</event>
<event>
 4    1  0.3900819E+006  0.6660951E+01  0.7546771E-02  0.2336595E+00
         21   -1    0    0  503  502  0.00000000000E+00  0.00000000000E+00  0.49481223011E+01  0.49481223011E+01  0.00000000000E+00 0. -1.
         21   -1    0    0  501  503 -0.00000000000E+00 -0.00000000000E+00 -0.89815110180E+01  0.89815110180E+01  0.00000000000E+00 0.  1.
          5    1    1    2  501    0  0.39991646728E+01  0.25069810157E+01 -0.17337543747E+01  0.68828900997E+01  0.47000000000E+01 0. -1.
         -5    1    1    2    0  502 -0.39991646728E+01 -0.25069810157E+01 -0.22996343422E+01  0.70467432194E+01  0.47000000000E+01 0.  1.
<mgrwt>
<rscale>  2 0.66609513E+01</rscale>
<asrwt>0</asrwt>
<pdfrwt beam="1">  1       21 0.76124959E-03 0.66609513E+01</pdfrwt>
<pdfrwt beam="2">  1       21 0.13817709E-02 0.66609513E+01</pdfrwt>
<totfact> 0.32066547E+09</totfact>
</mgrwt>
</event>
<event>
 4    1  0.3900819E+006  0.4939244E+01  0.7546771E-02  0.2578046E+00
         21   -1    0    0  501  502  0.00000000000E+00  0.00000000000E+00  0.10631614602E+04  0.10631614602E+04  0.00000000000E+00 0.  1.
         21   -1    0    0  502  503 -0.00000000000E+00 -0.00000000000E+00 -0.32454286393E-01  0.32454286393E-01  0.00000000000E+00 0. -1.
          5    1    1    2  501    0 -0.63893718903E+00  0.13776396125E+01  0.81929094678E+03  0.81930583521E+03  0.47000000000E+01 0. -1.
         -5    1    1    2    0  503  0.63893718903E+00 -0.13776396125E+01  0.24383805911E+03  0.24388807926E+03  0.47000000000E+01 0. -1.
<mgrwt>
<rscale>  2 0.49392440E+01</rscale>
<asrwt>0</asrwt>
<pdfrwt beam="1">  1       21 0.16353541E+00 0.49392440E+01</pdfrwt>
<pdfrwt beam="2">  1       21 0.49938186E-05 0.49392440E+01</pdfrwt>
<totfact> 0.83921819E+08</totfact>
</mgrwt>
</event>
<event>
 4    1  0.3900819E+006  0.4899964E+01  0.7546771E-02  0.2585212E+00
         21   -1    0    0  503  502  0.00000000000E+00  0.00000000000E+00  0.24507583919E+02  0.24507583919E+02  0.00000000000E+00 0.  1.
         21   -1    0    0  501  503 -0.00000000000E+00 -0.00000000000E+00 -0.98021056781E+00  0.98021056781E+00  0.00000000000E+00 0.  1.
          5    1    1    2  501    0  0.99842909986E+00 -0.96061982024E+00  0.12059479079E+02  0.13016938456E+02  0.47000000000E+01 0.  1.
         -5    1    1    2    0  502 -0.99842909986E+00  0.96061982024E+00  0.11467894272E+02  0.12470856031E+02  0.47000000000E+01 0.  1.
<mgrwt>
<rscale>  2 0.48999644E+01</rscale>
<asrwt>0</asrwt>
<pdfrwt beam="1">  1       21 0.37703971E-02 0.48999644E+01</pdfrwt>
<pdfrwt beam="2">  1       21 0.15080164E-03 0.48999644E+01</pdfrwt>
<totfact> 0.52361593E+09</totfact>
</mgrwt>
</event>
<event>
 4    1  0.3900819E+006  0.9885496E+01  0.7546771E-02  0.2081563E+00
         21   -1    0    0  501  502  0.00000000000E+00  0.00000000000E+00  0.27164530904E+00  0.27164530904E+00  0.00000000000E+00 0. -1.
         21   -1    0    0  502  503 -0.00000000000E+00 -0.00000000000E+00 -0.86357524572E+03  0.86357524572E+03  0.00000000000E+00 0.  1.
          5    1    1    2  501    0  0.43894302413E+01 -0.75077244875E+01 -0.10173925451E+03  0.10221838843E+03  0.47000000000E+01 0. -1.
         -5    1    1    2    0  503 -0.43894302413E+01  0.75077244875E+01 -0.76156434590E+03  0.76162850260E+03  0.47000000000E+01 0.  1.
<mgrwt>
<rscale>  2 0.98854957E+01</rscale>
<asrwt>0</asrwt>
<pdfrwt beam="1">  1       21 0.41790977E-04 0.98854957E+01</pdfrwt>
<pdfrwt beam="2">  1       21 0.13285966E+00 0.98854957E+01</pdfrwt>
<totfact> 0.11082590E+08</totfact>
</mgrwt>
</event>
<event>
 4    1  0.3900819E+006  0.6272281E+01  0.7546771E-02  0.2381278E+00
         21   -1    0    0  503  502  0.00000000000E+00  0.00000000000E+00  0.14329171710E+02  0.14329171710E+02  0.00000000000E+00 0.  1.
         21   -1    0    0  501  503 -0.00000000000E+00 -0.00000000000E+00 -0.32817373657E+01  0.32817373657E+01  0.00000000000E+00 0. -1.
          5    1    1    2  501    0 -0.27277233774E+01 -0.31322569243E+01  0.19644817204E+01  0.65727236891E+01  0.47000000000E+01 0. -1.
         -5    1    1    2    0  502  0.27277233774E+01  0.31322569243E+01  0.90829526241E+01  0.11038185387E+02  0.47000000000E+01 0.  1.
<mgrwt>
<rscale>  2 0.62722809E+01</rscale>
<asrwt>0</asrwt>
<pdfrwt beam="1">  1       21 0.22044879E-02 0.62722809E+01</pdfrwt>
<pdfrwt beam="2">  1       21 0.50488268E-03 0.62722809E+01</pdfrwt>
<totfact> 0.27686827E+09</totfact>
</mgrwt>
</event>
<event>
 4    1  0.3900819E+006  0.4984009E+01  0.7546771E-02  0.2569998E+00
         21   -1    0    0  503  502  0.00000000000E+00  0.00000000000E+00  0.19312899445E+01  0.19312899445E+01  0.00000000000E+00 0. -1.
         21   -1    0    0  501  503 -0.00000000000E+00 -0.00000000000E+00 -0.52570616577E+02  0.52570616577E+02  0.00000000000E+00 0. -1.
          5    1    1    2  501    0 -0.16577678172E+01  0.46437930298E-01 -0.49003511066E+02  0.49256313782E+02  0.47000000000E+01 0. -1.
         -5    1    1    2    0  502  0.16577678172E+01 -0.46437930298E-01 -0.16358155664E+01  0.52455927391E+01  0.47000000000E+01 0. -1.
<mgrwt>
<rscale>  2 0.49840095E+01</rscale>
<asrwt>0</asrwt>
<pdfrwt beam="1">  1       21 0.29712153E-03 0.49840095E+01</pdfrwt>
<pdfrwt beam="2">  1       21 0.80877870E-02 0.49840095E+01</pdfrwt>
<totfact> 0.69731190E+08</totfact>
</mgrwt>
</event>
<event>
 4    1  0.3900819E+006  0.4985280E+01  0.7546771E-02  0.2569772E+00
         21   -1    0    0  501  502  0.00000000000E+00  0.00000000000E+00  0.41898310281E-01  0.41898310281E-01  0.00000000000E+00 0. -1.
         21   -1    0    0  502  503 -0.00000000000E+00 -0.00000000000E+00 -0.62207970810E+03  0.62207970810E+03  0.00000000000E+00 0. -1.
          5    1    1    2  501    0  0.85489591337E+00  0.14255430094E+01 -0.24396741792E+03  0.24401834772E+03  0.47000000000E+01 0. -1.
         -5    1    1    2    0  503 -0.85489591337E+00 -0.14255430094E+01 -0.37807039187E+03  0.37810325869E+03  0.47000000000E+01 0. -1.
<mgrwt>
<rscale>  2 0.49852803E+01</rscale>
<asrwt>0</asrwt>
<pdfrwt beam="1">  1       21 0.64463034E-05 0.49852803E+01</pdfrwt>
<pdfrwt beam="2">  1       21 0.95698491E-01 0.49852803E+01</pdfrwt>
<totfact> 0.18111571E+09</totfact>
</mgrwt>
</event>
<event>
 4    1  0.3900819E+006  0.5294810E+01  0.7546771E-02  0.2517370E+00
         21   -1    0    0  501  502  0.00000000000E+00  0.00000000000E+00  0.88252082840E+03  0.88252082840E+03  0.00000000000E+00 0.  1.
         21   -1    0    0  502  503 -0.00000000000E+00 -0.00000000000E+00 -0.44847451278E-01  0.44847451278E-01  0.00000000000E+00 0.  1.
          5    1    1    2  501    0  0.23576187040E+01  0.62181187885E+00  0.67955769627E+03  0.67957832336E+03  0.47000000000E+01 0.  1.
         -5    1    1    2    0  503 -0.23576187040E+01 -0.62181187885E+00  0.20291828467E+03  0.20298735249E+03  0.47000000000E+01 0.  1.
<mgrwt>
<rscale>  2 0.52948103E+01</rscale>
<asrwt>0</asrwt>
<pdfrwt beam="1">  1       21 0.13575853E+00 0.52948103E+01</pdfrwt>
<pdfrwt beam="2">  1       21 0.69003147E-05 0.52948103E+01</pdfrwt>
<totfact> 0.84652690E+08</totfact>
</mgrwt>
</event>
<event>
 4    1  0.3900819E+006  0.9891380E+01  0.7546771E-02  0.2081223E+00
         21   -1    0    0  501  502  0.00000000000E+00  0.00000000000E+00  0.13109853286E+03  0.13109853286E+03  0.00000000000E+00 0.  1.
         21   -1    0    0  502  503 -0.00000000000E+00 -0.00000000000E+00 -0.81131697652E+00  0.81131697652E+00  0.00000000000E+00 0. -1.
          5    1    1    2  501    0  0.20358815063E+01 -0.84619493376E+01  0.83813892554E+02  0.84395544819E+02  0.47000000000E+01 0.  1.
         -5    1    1    2    0  503 -0.20358815063E+01  0.84619493376E+01  0.46473323332E+02  0.47514305021E+02  0.47000000000E+01 0. -1.
<mgrwt>
<rscale>  2 0.98913801E+01</rscale>
<asrwt>0</asrwt>
<pdfrwt beam="1">  1       21 0.20168988E-01 0.98913801E+01</pdfrwt>
<pdfrwt beam="2">  1       21 0.12481810E-03 0.98913801E+01</pdfrwt>
<totfact> 0.87704450E+08</totfact>
</mgrwt>
</event>
<event>
 4    1  0.3900819E+006  0.6644844E+01  0.7546771E-02  0.2338361E+00
         21   -1    0    0  501  502  0.00000000000E+00  0.00000000000E+00  0.34839598277E+02  0.34839598277E+02  0.00000000000E+00 0.  1.
         21   -1    0    0  502  503 -0.00000000000E+00 -0.00000000000E+00 -0.55426459493E+01  0.55426459493E+01  0.00000000000E+00 0. -1.
          5    1    1    2  501    0 -0.32850797320E+01 -0.33574103411E+01  0.32381589729E+02  0.33056335345E+02  0.47000000000E+01 0.  1.
         -5    1    1    2    0  503  0.32850797320E+01  0.33574103411E+01 -0.30846374013E+01  0.73259088816E+01  0.47000000000E+01 0. -1.
<mgrwt>
<rscale>  2 0.66448441E+01</rscale>
<asrwt>0</asrwt>
<pdfrwt beam="1">  1       21 0.53599381E-02 0.66448441E+01</pdfrwt>
<pdfrwt beam="2">  1       21 0.85271478E-03 0.66448441E+01</pdfrwt>
<totfact> 0.37624029E+08</totfact>
</mgrwt>
</event>
<event>
 4    1  0.3900819E+006  0.8614870E+01  0.7546771E-02  0.2163607E+00
         21   -1    0    0  503  502  0.00000000000E+00  0.00000000000E+00  0.33315657151E+01  0.33315657151E+01  0.00000000000E+00 0. -1.
         21   -1    0    0  501  503 -0.00000000000E+00 -0.00000000000E+00 -0.11960696488E+03  0.11960696488E+03  0.00000000000E+00 0.  1.
          5    1    1    2  501    0 -0.36377448169E+01  0.62364097308E+01 -0.11358800447E+03  0.11391422542E+03  0.47000000000E+01 0.  1.
         -5    1    1    2    0  502  0.36377448169E+01 -0.62364097308E+01 -0.26873946986E+01  0.90243051782E+01  0.47000000000E+01 0. -1.
<mgrwt>
<rscale>  2 0.86148705E+01</rscale>
<asrwt>0</asrwt>
<pdfrwt beam="1">  1       21 0.51254859E-03 0.86148705E+01</pdfrwt>
<pdfrwt beam="2">  1       21 0.18401071E-01 0.86148705E+01</pdfrwt>
<totfact> 0.13132491E+08</totfact>
</mgrwt>
</event>
<event>
 4    1  0.3900819E+006  0.6336053E+01  0.7546771E-02  0.2373635E+00
         21   -1    0    0  503  502  0.00000000000E+00  0.00000000000E+00  0.10296719585E+02  0.10296719585E+02  0.00000000000E+00 0. -1.
         21   -1    0    0  501  503 -0.00000000000E+00 -0.00000000000E+00 -0.81330630941E+01  0.81330630941E+01  0.00000000000E+00 0.  1.
          5    1    1    2  501    0  0.22362783413E+01 -0.36131183642E+01 -0.55670519433E+01  0.84343128038E+01  0.47000000000E+01 0. -1.
         -5    1    1    2    0  502 -0.22362783413E+01  0.36131183642E+01  0.77307084346E+01  0.99954698756E+01  0.47000000000E+01 0.  1.
<mgrwt>
<rscale>  2 0.63360528E+01</rscale>
<asrwt>0</asrwt>
<pdfrwt beam="1">  1       21 0.15841107E-02 0.63360528E+01</pdfrwt>
<pdfrwt beam="2">  1       21 0.12512405E-02 0.63360528E+01</pdfrwt>
<totfact> 0.12514437E+09</totfact>
</mgrwt>
</event>
<event>
 4    1  0.3900819E+006  0.6302016E+01  0.7546771E-02  0.2377699E+00
         21   -1    0    0  503  502  0.00000000000E+00  0.00000000000E+00  0.14502367590E+02  0.14502367590E+02  0.00000000000E+00 0. -1.
         21   -1    0    0  501  503 -0.00000000000E+00 -0.00000000000E+00 -0.28890745925E+01  0.28890745925E+01  0.00000000000E+00 0.  1.
          5    1    1    2  501    0 -0.16135782089E+01  0.38757925453E+01  0.38217605751E+01  0.73702955425E+01  0.47000000000E+01 0. -1.
         -5    1    1    2    0  502  0.16135782089E+01 -0.38757925453E+01  0.77915324225E+01  0.10021146640E+02  0.47000000000E+01 0. -1.
<mgrwt>
<rscale>  2 0.63020157E+01</rscale>
<asrwt>0</asrwt>
<pdfrwt beam="1">  1       21 0.22311334E-02 0.63020157E+01</pdfrwt>
<pdfrwt beam="2">  1       21 0.44447302E-03 0.63020157E+01</pdfrwt>
<totfact> 0.32621899E+09</totfact>
</mgrwt>
</event>
<event>
 4    1  0.3900819E+006  0.5219091E+01  0.7546771E-02  0.2529696E+00
         21   -1    0    0  503  502  0.00000000000E+00  0.00000000000E+00  0.81315501422E+01  0.81315501422E+01  0.00000000000E+00 0. -1.
         21   -1    0    0  501  503 -0.00000000000E+00 -0.00000000000E+00 -0.44684533662E+01  0.44684533662E+01  0.00000000000E+00 0. -1.
          5    1    1    2  501    0 -0.24489434508E+00 -0.22558663618E+01 -0.13206507865E+01  0.53835884670E+01  0.47000000000E+01 0. -1.
         -5    1    1    2    0  502  0.24489434508E+00  0.22558663618E+01  0.49837475625E+01  0.72164150414E+01  0.47000000000E+01 0. -1.
<mgrwt>
<rscale>  2 0.52190906E+01</rscale>
<asrwt>0</asrwt>
<pdfrwt beam="1">  1       21 0.12510077E-02 0.52190906E+01</pdfrwt>
<pdfrwt beam="2">  1       21 0.68745437E-03 0.52190906E+01</pdfrwt>
<totfact> 0.34102912E+09</totfact>
</mgrwt>
</event>
<event>
 4    1  0.3900819E+006  0.5431636E+01  0.7546771E-02  0.2495843E+00
         21   -1    0    0  503  502  0.00000000000E+00  0.00000000000E+00  0.22103044329E+00  0.22103044329E+00  0.00000000000E+00 0.  1.
         21   -1    0    0  501  503 -0.00000000000E+00 -0.00000000000E+00 -0.22297991974E+03  0.22297991974E+03  0.00000000000E+00 0. -1.
          5    1    1    2  501    0  0.22109839411E+01 -0.15887796150E+01 -0.18208437195E+03  0.18216536767E+03  0.47000000000E+01 0. -1.
         -5    1    1    2    0  502 -0.22109839411E+01  0.15887796150E+01 -0.40674517347E+02  0.41035582512E+02  0.47000000000E+01 0.  1.
<mgrwt>
<rscale>  2 0.54316361E+01</rscale>
<asrwt>0</asrwt>
<pdfrwt beam="1">  1       21 0.34004779E-04 0.54316361E+01</pdfrwt>
<pdfrwt beam="2">  1       21 0.34304507E-01 0.54316361E+01</pdfrwt>
<totfact> 0.13902629E+09</totfact>
</mgrwt>
</event>
<event>
 4    1  0.3900819E+006  0.5043542E+01  0.7546771E-02  0.2559487E+00
         21   -1    0    0  503  502  0.00000000000E+00  0.00000000000E+00  0.19713278644E+01  0.19713278644E+01  0.00000000000E+00 0.  1.
         21   -1    0    0  501  503 -0.00000000000E+00 -0.00000000000E+00 -0.14046807128E+02  0.14046807128E+02  0.00000000000E+00 0.  1.
          5    1    1    2  501    0 -0.17003204228E+01 -0.67544709654E+00 -0.37529473003E+01  0.62866470999E+01  0.47000000000E+01 0.  1.
         -5    1    1    2    0  502  0.17003204228E+01  0.67544709654E+00 -0.83225319636E+01  0.97314878927E+01  0.47000000000E+01 0.  1.
<mgrwt>
<rscale>  2 0.50435422E+01</rscale>
<asrwt>0</asrwt>
<pdfrwt beam="1">  1       21 0.30328121E-03 0.50435422E+01</pdfrwt>
<pdfrwt beam="2">  1       21 0.21610472E-02 0.50435422E+01</pdfrwt>
<totfact> 0.46750834E+09</totfact>
</mgrwt>
</event>
<event>
 4    1  0.3900819E+006  0.4846463E+01  0.7546771E-02  0.2595134E+00
         21   -1    0    0  501  502  0.00000000000E+00  0.00000000000E+00  0.76860966499E+02  0.76860966499E+02  0.00000000000E+00 0.  1.
         21   -1    0    0  502  503 -0.00000000000E+00 -0.00000000000E+00 -0.54144157299E+00  0.54144157299E+00  0.00000000000E+00 0.  1.
          5    1    1    2  501    0 -0.50361057267E+00  0.10698498193E+01  0.63702353936E+02  0.63886446914E+02  0.47000000000E+01 0.  1.
         -5    1    1    2    0  503  0.50361057267E+00 -0.10698498193E+01  0.12617170989E+02  0.13515961158E+02  0.47000000000E+01 0.  1.
<mgrwt>
<rscale>  2 0.48464629E+01</rscale>
<asrwt>0</asrwt>
<pdfrwt beam="1">  1       21 0.11824755E-01 0.48464629E+01</pdfrwt>
<pdfrwt beam="2">  1       21 0.83298764E-04 0.48464629E+01</pdfrwt>
<totfact> 0.20998372E+09</totfact>
</mgrwt>
</event>
<event>
 4    1  0.3900819E+006  0.1085739E+02  0.7546771E-02  0.2029243E+00
         21   -1    0    0  503  502  0.00000000000E+00  0.00000000000E+00  0.79873139958E+00  0.79873139958E+00  0.00000000000E+00 0. -1.
         21   -1    0    0  501  503 -0.00000000000E+00 -0.00000000000E+00 -0.14759007785E+03  0.14759007785E+03  0.00000000000E+00 0.  1.
          5    1    1    2  501    0  0.10592425833E+01 -0.97298930902E+01 -0.73088922855E+02  0.73890956541E+02  0.47000000000E+01 0.  1.
         -5    1    1    2    0  502 -0.10592425833E+01  0.97298930902E+01 -0.73702423597E+02  0.74497852710E+02  0.47000000000E+01 0. -1.
<mgrwt>
<rscale>  2 0.10857385E+02</rscale>
<asrwt>0</asrwt>
<pdfrwt beam="1">  1       21 0.12288185E-03 0.10857385E+02</pdfrwt>
<pdfrwt beam="2">  1       21 0.22706148E-01 0.10857385E+02</pdfrwt>
<totfact> 0.77103842E+08</totfact>
</mgrwt>
</event>
<event>
 4    1  0.3900819E+006  0.5749586E+01  0.7546771E-02  0.2449201E+00
         21   -1    0    0  503  502  0.00000000000E+00  0.00000000000E+00  0.10014341765E+01  0.10014341765E+01  0.00000000000E+00 0. -1.
         21   -1    0    0  501  503 -0.00000000000E+00 -0.00000000000E+00 -0.65709588931E+02  0.65709588931E+02  0.00000000000E+00 0.  1.
          5    1    1    2  501    0  0.11228413849E+00  0.33098530937E+01 -0.55884068888E+02  0.56179060963E+02  0.47000000000E+01 0. -1.
         -5    1    1    2    0  502 -0.11228413849E+00 -0.33098530937E+01 -0.88240858661E+01  0.10531962144E+02  0.47000000000E+01 0. -1.
<mgrwt>
<rscale>  2 0.57495857E+01</rscale>
<asrwt>0</asrwt>
<pdfrwt beam="1">  1       21 0.15406685E-03 0.57495857E+01</pdfrwt>
<pdfrwt beam="2">  1       21 0.10109164E-01 0.57495857E+01</pdfrwt>
<totfact> 0.13710064E+09</totfact>
</mgrwt>
</event>
<event>
 4    1  0.3900819E+006  0.6027762E+01  0.7546771E-02  0.2411824E+00
         21   -1    0    0  501  502  0.00000000000E+00  0.00000000000E+00  0.22926288384E+02  0.22926288384E+02  0.00000000000E+00 0.  1.
         21   -1    0    0  502  503 -0.00000000000E+00 -0.00000000000E+00 -0.34187848202E+01  0.34187848202E+01  0.00000000000E+00 0.  1.
          5    1    1    2  501    0 -0.13791571594E+01  0.35130955600E+01  0.19401582592E+02  0.20316380631E+02  0.47000000000E+01 0.  1.
         -5    1    1    2    0  503  0.13791571594E+01 -0.35130955600E+01  0.10592097158E+00  0.60286925727E+01  0.47000000000E+01 0.  1.
<mgrwt>
<rscale>  2 0.60277620E+01</rscale>
<asrwt>0</asrwt>
<pdfrwt beam="1">  1       21 0.35271212E-02 0.60277620E+01</pdfrwt>
<pdfrwt beam="2">  1       21 0.52596691E-03 0.60277620E+01</pdfrwt>
<totfact> 0.12773819E+09</totfact>
</mgrwt>
</event>
<event>
 4    1  0.3900819E+006  0.4811156E+01  0.7546771E-02  0.2601786E+00
         21   -1    0    0  503  502  0.00000000000E+00  0.00000000000E+00  0.10191477547E+02  0.10191477547E+02  0.00000000000E+00 0.  1.
         21   -1    0    0  501  503 -0.00000000000E+00 -0.00000000000E+00 -0.41689506370E+01  0.41689506370E+01  0.00000000000E+00 0.  1.
          5    1    1    2  501    0 -0.81533717784E+00 -0.62645527222E+00 -0.18331344241E+01  0.51485534608E+01  0.47000000000E+01 0.  1.
         -5    1    1    2    0  502  0.81533717784E+00  0.62645527222E+00  0.78556613337E+01  0.92118747230E+01  0.47000000000E+01 0.  1.
<mgrwt>
<rscale>  2 0.48111559E+01</rscale>
<asrwt>0</asrwt>
<pdfrwt beam="1">  1       21 0.15679196E-02 0.48111559E+01</pdfrwt>
<pdfrwt beam="2">  1       21 0.64137702E-03 0.48111559E+01</pdfrwt>
<totfact> 0.25134612E+09</totfact>
</mgrwt>
</event>
<event>
 4    1  0.3900819E+006  0.8043423E+01  0.7546771E-02  0.2207106E+00
         21   -1    0    0  503  502  0.00000000000E+00  0.00000000000E+00  0.21231356683E+01  0.21231356683E+01  0.00000000000E+00 0. -1.
         21   -1    0    0  501  503 -0.00000000000E+00 -0.00000000000E+00 -0.31608939708E+02  0.31608939708E+02  0.00000000000E+00 0.  1.
          5    1    1    2  501    0  0.40678844626E+01 -0.51047993071E+01 -0.17941315050E+02  0.19661827120E+02  0.47000000000E+01 0. -1.
         -5    1    1    2    0  502 -0.40678844626E+01  0.51047993071E+01 -0.11544488990E+02  0.14070248257E+02  0.47000000000E+01 0.  1.
<mgrwt>
<rscale>  2 0.80434234E+01</rscale>
<asrwt>0</asrwt>
<pdfrwt beam="1">  1       21 0.32663625E-03 0.80434234E+01</pdfrwt>
<pdfrwt beam="2">  1       21 0.48629139E-02 0.80434234E+01</pdfrwt>
<totfact> 0.19179181E+09</totfact>
</mgrwt>
</event>
<event>
 4    1  0.3900819E+006  0.5560684E+01  0.7546771E-02  0.2476368E+00
         21   -1    0    0  501  502  0.00000000000E+00  0.00000000000E+00  0.57580846533E+02  0.57580846533E+02  0.00000000000E+00 0. -1.
         21   -1    0    0  502  503 -0.00000000000E+00 -0.00000000000E+00 -0.11867857080E+01  0.11867857080E+01  0.00000000000E+00 0. -1.
          5    1    1    2  501    0  0.11316260525E+01 -0.27478412631E+01  0.49939326804E+02  0.50247960861E+02  0.47000000000E+01 0. -1.
         -5    1    1    2    0  503 -0.11316260525E+01  0.27478412631E+01  0.64547340217E+01  0.85196713798E+01  0.47000000000E+01 0. -1.
<mgrwt>
<rscale>  2 0.55606842E+01</rscale>
<asrwt>0</asrwt>
<pdfrwt beam="1">  1       21 0.88585896E-02 0.55606842E+01</pdfrwt>
<pdfrwt beam="2">  1       21 0.18258246E-03 0.55606842E+01</pdfrwt>
<totfact> 0.12959394E+09</totfact>
</mgrwt>
</event>
<event>
 4    1  0.3900819E+006  0.1035033E+02  0.7546771E-02  0.2055582E+00
         21   -1    0    0  501  502  0.00000000000E+00  0.00000000000E+00  0.26939214142E+00  0.26939214142E+00  0.00000000000E+00 0.  1.
         21   -1    0    0  502  503 -0.00000000000E+00 -0.00000000000E+00 -0.39793372761E+03  0.39793372761E+03  0.00000000000E+00 0. -1.
          5    1    1    2  501    0 -0.91854417165E+01  0.81666256868E+00 -0.19371030700E+03  0.19398662922E+03  0.47000000000E+01 0. -1.
         -5    1    1    2    0  503  0.91854417165E+01 -0.81666256868E+00 -0.20395402847E+03  0.20421649054E+03  0.47000000000E+01 0.  1.
<mgrwt>
<rscale>  2 0.10350327E+02</rscale>
<asrwt>0</asrwt>
<pdfrwt beam="1">  1       21 0.41444947E-04 0.10350327E+02</pdfrwt>
<pdfrwt beam="2">  1       21 0.61220571E-01 0.10350327E+02</pdfrwt>
<totfact> 0.56310713E+08</totfact>
</mgrwt>
</event>
<event>
 4    1  0.3900819E+006  0.6252256E+01  0.7546771E-02  0.2383705E+00
         21   -1    0    0  501  502  0.00000000000E+00  0.00000000000E+00  0.42563960644E+02  0.42563960644E+02  0.00000000000E+00 0.  1.
         21   -1    0    0  502  503 -0.00000000000E+00 -0.00000000000E+00 -0.12931365028E+01  0.12931365028E+01  0.00000000000E+00 0.  1.
          5    1    1    2  501    0  0.40684016820E+01 -0.66993212376E+00  0.32440011321E+02  0.33037025226E+02  0.47000000000E+01 0.  1.
         -5    1    1    2    0  503 -0.40684016820E+01  0.66993212376E+00  0.88308128198E+01  0.10820071920E+02  0.47000000000E+01 0.  1.
<mgrwt>
<rscale>  2 0.62522557E+01</rscale>
<asrwt>0</asrwt>
<pdfrwt beam="1">  1       21 0.65483005E-02 0.62522557E+01</pdfrwt>
<pdfrwt beam="2">  1       21 0.19894411E-03 0.62522557E+01</pdfrwt>
<totfact> 0.20076406E+09</totfact>
</mgrwt>
</event>
<event>
 4    1  0.3900819E+006  0.5096391E+01  0.7546771E-02  0.2550333E+00
         21   -1    0    0  501  502  0.00000000000E+00  0.00000000000E+00  0.11947466584E+02  0.11947466584E+02  0.00000000000E+00 0. -1.
         21   -1    0    0  502  503 -0.00000000000E+00 -0.00000000000E+00 -0.25384795135E+01  0.25384795135E+01  0.00000000000E+00 0. -1.
          5    1    1    2  501    0  0.38942674868E-01 -0.19701982426E+01  0.74492021964E+01  0.90257304973E+01  0.47000000000E+01 0. -1.
         -5    1    1    2    0  503 -0.38942674868E-01  0.19701982426E+01  0.19597848739E+01  0.54602156000E+01  0.47000000000E+01 0. -1.
<mgrwt>
<rscale>  2 0.50963906E+01</rscale>
<asrwt>0</asrwt>
<pdfrwt beam="1">  1       21 0.18380718E-02 0.50963906E+01</pdfrwt>
<pdfrwt beam="2">  1       21 0.39053532E-03 0.50963906E+01</pdfrwt>
<totfact> 0.42129899E+09</totfact>
</mgrwt>
</event>
<event>
 4    1  0.3900819E+006  0.4766238E+01  0.7546771E-02  0.2610372E+00
         21   -1    0    0  501  502  0.00000000000E+00  0.00000000000E+00  0.12746659884E+02  0.12746659884E+02  0.00000000000E+00 0.  1.
         21   -1    0    0  502  503 -0.00000000000E+00 -0.00000000000E+00 -0.24027857364E+01  0.24027857364E+01  0.00000000000E+00 0.  1.
          5    1    1    2  501    0 -0.78986128841E+00  0.56072921672E-01  0.90215059944E+01  0.10203165951E+02  0.47000000000E+01 0.  1.
         -5    1    1    2    0  503  0.78986128841E+00 -0.56072921672E-01  0.13223681529E+01  0.49462796685E+01  0.47000000000E+01 0.  1.
<mgrwt>
<rscale>  2 0.47662380E+01</rscale>
<asrwt>0</asrwt>
<pdfrwt beam="1">  1       21 0.19610246E-02 0.47662380E+01</pdfrwt>
<pdfrwt beam="2">  1       21 0.36965935E-03 0.47662380E+01</pdfrwt>
<totfact> 0.38602502E+09</totfact>
</mgrwt>
</event>
<event>
 4    1  0.3900819E+006  0.5211561E+01  0.7546771E-02  0.2530938E+00
         21   -1    0    0  503  502  0.00000000000E+00  0.00000000000E+00  0.45761266035E-01  0.45761266035E-01  0.00000000000E+00 0. -1.
         21   -1    0    0  501  503 -0.00000000000E+00 -0.00000000000E+00 -0.11661735799E+04  0.11661735799E+04  0.00000000000E+00 0. -1.
          5    1    1    2  501    0 -0.10487089320E+01 -0.19926297837E+01 -0.99167814940E+03  0.99169184345E+03  0.47000000000E+01 0. -1.
         -5    1    1    2    0  502  0.10487089320E+01  0.19926297837E+01 -0.17444966923E+03  0.17452749771E+03  0.47000000000E+01 0. -1.
<mgrwt>
<rscale>  2 0.52115606E+01</rscale>
<asrwt>0</asrwt>
<pdfrwt beam="1">  1       21 0.70393061E-05 0.52115606E+01</pdfrwt>
<pdfrwt beam="2">  1       21 0.17943397E+00 0.52115606E+01</pdfrwt>
<totfact> 0.45009791E+08</totfact>
</mgrwt>
</event>
<event>
 4    1  0.3900819E+006  0.5372369E+01  0.7546771E-02  0.2505052E+00
         21   -1    0    0  503  502  0.00000000000E+00  0.00000000000E+00  0.56301141787E+01  0.56301141787E+01  0.00000000000E+00 0.  1.
         21   -1    0    0  501  503 -0.00000000000E+00 -0.00000000000E+00 -0.72648798883E+01  0.72648798883E+01  0.00000000000E+00 0.  1.
          5    1    1    2  501    0 -0.35364162943E+00  0.25782342075E+01 -0.43154412192E+01  0.68909641522E+01  0.47000000000E+01 0.  1.
         -5    1    1    2    0  502  0.35364162943E+00 -0.25782342075E+01  0.26806755096E+01  0.60040299148E+01  0.47000000000E+01 0.  1.
<mgrwt>
<rscale>  2 0.53723695E+01</rscale>
<asrwt>0</asrwt>
<pdfrwt beam="1">  1       21 0.86617141E-03 0.53723695E+01</pdfrwt>
<pdfrwt beam="2">  1       21 0.11176738E-02 0.53723695E+01</pdfrwt>
<totfact> 0.29819163E+09</totfact>
</mgrwt>
</event>
<event>
 4    1  0.3900819E+006  0.7804348E+01  0.7546771E-02  0.2226811E+00
         21   -1    0    0  503  502  0.00000000000E+00  0.00000000000E+00  0.28641288439E-01  0.28641288439E-01  0.00000000000E+00 0.  1.
         21   -1    0    0  501  503 -0.00000000000E+00 -0.00000000000E+00 -0.21602513820E+04  0.21602513820E+04  0.00000000000E+00 0.  1.
          5    1    1    2  501    0  0.39603552623E+01 -0.48097231505E+01 -0.12149735055E+04  0.12149985707E+04  0.47000000000E+01 0.  1.
         -5    1    1    2    0  502 -0.39603552623E+01  0.48097231505E+01 -0.94524923526E+03  0.94528145259E+03  0.47000000000E+01 0.  1.
<mgrwt>
<rscale>  2 0.78043482E+01</rscale>
<asrwt>0</asrwt>
<pdfrwt beam="1">  1       21 0.44054435E-05 0.78043482E+01</pdfrwt>
<pdfrwt beam="2">  1       21 0.33241491E+00 0.78043482E+01</pdfrwt>
<totfact> 0.22376451E+08</totfact>
</mgrwt>
</event>
<event>
 4    1  0.3900819E+006  0.6657422E+01  0.7546771E-02  0.2336982E+00
         21   -1    0    0  503  502  0.00000000000E+00  0.00000000000E+00  0.16676318519E+04  0.16676318519E+04  0.00000000000E+00 0. -1.
         21   -1    0    0  501  503 -0.00000000000E+00 -0.00000000000E+00 -0.54618447083E-01  0.54618447083E-01  0.00000000000E+00 0.  1.
          5    1    1    2  501    0 -0.46178031403E+01  0.95244791493E+00  0.23632411252E+03  0.23641786612E+03  0.47000000000E+01 0.  1.
         -5    1    1    2    0  502  0.46178031403E+01 -0.95244791493E+00  0.14312531209E+04  0.14312686042E+04  0.47000000000E+01 0. -1.
<mgrwt>
<rscale>  2 0.66574216E+01</rscale>
<asrwt>0</asrwt>
<pdfrwt beam="1">  1       21 0.25651797E+00 0.66574216E+01</pdfrwt>
<pdfrwt beam="2">  1       21 0.84041736E-05 0.66574216E+01</pdfrwt>
<totfact> 0.18042904E+08</totfact>
</mgrwt>
</event>
<event>
 4    1  0.3900819E+006  0.6198247E+01  0.7546771E-02  0.2390314E+00
         21   -1    0    0  503  502  0.00000000000E+00  0.00000000000E+00  0.23706566733E+01  0.23706566733E+01  0.00000000000E+00 0. -1.
         21   -1    0    0  501  503 -0.00000000000E+00 -0.00000000000E+00 -0.43064994323E+02  0.43064994323E+02  0.00000000000E+00 0. -1.
          5    1    1    2  501    0 -0.26740824465E+01  0.30294479319E+01 -0.38288367238E+02  0.38786819120E+02  0.47000000000E+01 0. -1.
         -5    1    1    2    0  502  0.26740824465E+01 -0.30294479319E+01 -0.24059704125E+01  0.66488318770E+01  0.47000000000E+01 0. -1.
<mgrwt>
<rscale>  2 0.61982475E+01</rscale>
<asrwt>0</asrwt>
<pdfrwt beam="1">  1       21 0.36471642E-03 0.61982475E+01</pdfrwt>
<pdfrwt beam="2">  1       21 0.66253836E-02 0.61982475E+01</pdfrwt>
<totfact> 0.85227481E+08</totfact>
</mgrwt>
</event>
<event>
 4    1  0.3900819E+006  0.9138702E+01  0.7546771E-02  0.2127596E+00
         21   -1    0    0  501  502  0.00000000000E+00  0.00000000000E+00  0.80897034381E+03  0.80897034381E+03  0.00000000000E+00 0.  1.
         21   -1    0    0  502  503 -0.00000000000E+00 -0.00000000000E+00 -0.81436167102E+00  0.81436167102E+00  0.00000000000E+00 0.  1.
          5    1    1    2  501    0 -0.49985485694E+01 -0.60365869498E+01  0.78243667824E+03  0.78249004551E+03  0.47000000000E+01 0.  1.
         -5    1    1    2    0  503  0.49985485694E+01  0.60365869498E+01  0.25719303904E+02  0.27294659974E+02  0.47000000000E+01 0.  1.
<mgrwt>
<rscale>  2 0.91387018E+01</rscale>
<asrwt>0</asrwt>
<pdfrwt beam="1">  1       21 0.12445633E+00 0.91387018E+01</pdfrwt>
<pdfrwt beam="2">  1       21 0.12528706E-03 0.91387018E+01</pdfrwt>
<totfact> 0.27528304E+07</totfact>
</mgrwt>
</event>
<event>
 4    1  0.3900819E+006  0.6557759E+01  0.7546771E-02  0.2348030E+00
         21   -1    0    0  501  502  0.00000000000E+00  0.00000000000E+00  0.41040291291E+00  0.41040291291E+00  0.00000000000E+00 0. -1.
         21   -1    0    0  502  503 -0.00000000000E+00 -0.00000000000E+00 -0.10943342412E+03  0.10943342412E+03  0.00000000000E+00 0.  1.
          5    1    1    2  501    0 -0.13716942543E+01 -0.43626439486E+01 -0.65830504256E+02  0.66156326212E+02  0.47000000000E+01 0.  1.
         -5    1    1    2    0  503  0.13716942543E+01  0.43626439486E+01 -0.43192516948E+02  0.43687500817E+02  0.47000000000E+01 0. -1.
<mgrwt>
<rscale>  2 0.65577593E+01</rscale>
<asrwt>0</asrwt>
<pdfrwt beam="1">  1       21 0.63138889E-04 0.65577593E+01</pdfrwt>
<pdfrwt beam="2">  1       21 0.16835917E-01 0.65577593E+01</pdfrwt>
<totfact> 0.22802140E+09</totfact>
</mgrwt>
</event>
<event>
 4    1  0.3900819E+006  0.5321810E+01  0.7546771E-02  0.2513047E+00
         21   -1    0    0  501  502  0.00000000000E+00  0.00000000000E+00  0.16871022311E+01  0.16871022311E+01  0.00000000000E+00 0. -1.
         21   -1    0    0  502  503 -0.00000000000E+00 -0.00000000000E+00 -0.17496707890E+02  0.17496707890E+02  0.00000000000E+00 0. -1.
          5    1    1    2  501    0  0.15039446445E+01  0.19924379826E+01 -0.59732040640E+01  0.80000515872E+01  0.47000000000E+01 0. -1.
         -5    1    1    2    0  503 -0.15039446445E+01 -0.19924379826E+01 -0.98364015954E+01  0.11183758534E+02  0.47000000000E+01 0. -1.
<mgrwt>
<rscale>  2 0.53218097E+01</rscale>
<asrwt>0</asrwt>
<pdfrwt beam="1">  1       21 0.25955420E-03 0.53218097E+01</pdfrwt>
<pdfrwt beam="2">  1       21 0.26918011E-02 0.53218097E+01</pdfrwt>
<totfact> 0.44605424E+09</totfact>
</mgrwt>
</event>
<event>
 4    1  0.3900819E+006  0.6122848E+01  0.7546771E-02  0.2399704E+00
         21   -1    0    0  501  502  0.00000000000E+00  0.00000000000E+00  0.78330249896E+01  0.78330249896E+01  0.00000000000E+00 0. -1.
         21   -1    0    0  502  503 -0.00000000000E+00 -0.00000000000E+00 -0.47907445915E+01  0.47907445915E+01  0.00000000000E+00 0.  1.
          5    1    1    2  501    0  0.13126458348E+01  0.36981379797E+01  0.17186877663E+01  0.63594930020E+01  0.47000000000E+01 0.  1.
         -5    1    1    2    0  503 -0.13126458348E+01 -0.36981379797E+01  0.13235926318E+01  0.62642765791E+01  0.47000000000E+01 0. -1.
<mgrwt>
<rscale>  2 0.61228477E+01</rscale>
<asrwt>0</asrwt>
<pdfrwt beam="1">  1       21 0.12050808E-02 0.61228477E+01</pdfrwt>
<pdfrwt beam="2">  1       21 0.73703763E-03 0.61228477E+01</pdfrwt>
<totfact> 0.37917028E+09</totfact>
</mgrwt>
</event>
<event>
 4    1  0.3900819E+006  0.1282615E+02  0.7546771E-02  0.1942698E+00
         21   -1    0    0  503  502  0.00000000000E+00  0.00000000000E+00  0.10083417945E+02  0.10083417945E+02  0.00000000000E+00 0. -1.
         21   -1    0    0  501  503 -0.00000000000E+00 -0.00000000000E+00 -0.30204785555E+02  0.30204785555E+02  0.00000000000E+00 0.  1.
          5    1    1    2  501    0  0.11793318105E+02  0.18269230946E+01 -0.23720954101E+02  0.26966528575E+02  0.47000000000E+01 0.  1.
         -5    1    1    2    0  502 -0.11793318105E+02 -0.18269230946E+01  0.35995864916E+01  0.13321674926E+02  0.47000000000E+01 0. -1.
<mgrwt>
<rscale>  2 0.12826145E+02</rscale>
<asrwt>0</asrwt>
<pdfrwt beam="1">  1       21 0.15512951E-02 0.12826145E+02</pdfrwt>
<pdfrwt beam="2">  1       21 0.46468900E-02 0.12826145E+02</pdfrwt>
<totfact> 0.28350369E+08</totfact>
</mgrwt>
</event>
<event>
 4    1  0.3900819E+006  0.1196608E+02  0.7546771E-02  0.1977800E+00
         21   -1    0    0  501  502  0.00000000000E+00  0.00000000000E+00  0.27784373538E+01  0.27784373538E+01  0.00000000000E+00 0.  1.
         21   -1    0    0  502  503 -0.00000000000E+00 -0.00000000000E+00 -0.76476924419E+02  0.76476924419E+02  0.00000000000E+00 0. -1.
          5    1    1    2  501    0  0.96157606703E+01  0.53510923056E+01 -0.14218565098E+02  0.18583719638E+02  0.47000000000E+01 0.  1.
         -5    1    1    2    0  503 -0.96157606703E+01 -0.53510923056E+01 -0.59479921967E+02  0.60671642135E+02  0.47000000000E+01 0. -1.
<mgrwt>
<rscale>  2 0.11966079E+02</rscale>
<asrwt>0</asrwt>
<pdfrwt beam="1">  1       21 0.42745192E-03 0.11966079E+02</pdfrwt>
<pdfrwt beam="2">  1       21 0.11765680E-01 0.11966079E+02</pdfrwt>
<totfact> 0.41457103E+08</totfact>
</mgrwt>
</event>
<event>
 4    1  0.3900819E+006  0.4933798E+01  0.7546771E-02  0.2579034E+00
         21   -1    0    0  503  502  0.00000000000E+00  0.00000000000E+00  0.73505407159E+03  0.73505407159E+03  0.00000000000E+00 0. -1.
         21   -1    0    0  501  503 -0.00000000000E+00 -0.00000000000E+00 -0.68933308585E-01  0.68933308585E-01  0.00000000000E+00 0. -1.
          5    1    1    2  501    0  0.32070024332E+00 -0.14661219359E+01  0.10254535283E+03  0.10266397493E+03  0.47000000000E+01 0. -1.
         -5    1    1    2    0  502 -0.32070024332E+00  0.14661219359E+01  0.63243978546E+03  0.63245902997E+03  0.47000000000E+01 0. -1.
<mgrwt>
<rscale>  2 0.49337979E+01</rscale>
<asrwt>0</asrwt>
<pdfrwt beam="1">  1       21 0.11307897E+00 0.49337979E+01</pdfrwt>
<pdfrwt beam="2">  1       21 0.10605713E-04 0.49337979E+01</pdfrwt>
<totfact> 0.66236461E+08</totfact>
</mgrwt>
</event>
<event>
 4    1  0.3900819E+006  0.2700870E+02  0.7546771E-02  0.1633721E+00
         21   -1    0    0  501  502  0.00000000000E+00  0.00000000000E+00  0.22955234189E+02  0.22955234189E+02  0.00000000000E+00 0. -1.
         21   -1    0    0  502  503 -0.00000000000E+00 -0.00000000000E+00 -0.32693235469E+02  0.32693235469E+02  0.00000000000E+00 0.  1.
          5    1    1    2  501    0  0.15536303305E+02 -0.21587106340E+02 -0.21338910543E+00  0.27009543044E+02  0.47000000000E+01 0. -1.
         -5    1    1    2    0  503 -0.15536303305E+02  0.21587106340E+02 -0.95246121744E+01  0.28638926614E+02  0.47000000000E+01 0.  1.
<mgrwt>
<rscale>  2 0.27008700E+02</rscale>
<asrwt>0</asrwt>
<pdfrwt beam="1">  1       21 0.35315745E-02 0.27008700E+02</pdfrwt>
<pdfrwt beam="2">  1       21 0.50297286E-02 0.27008700E+02</pdfrwt>
<totfact> 0.91884533E+07</totfact>
</mgrwt>
</event>
<event>
 4    1  0.3900819E+006  0.5014710E+01  0.7546771E-02  0.2564551E+00
         21   -1    0    0  503  502  0.00000000000E+00  0.00000000000E+00  0.17158735978E+03  0.17158735978E+03  0.00000000000E+00 0. -1.
         21   -1    0    0  501  503 -0.00000000000E+00 -0.00000000000E+00 -0.38057160426E+00  0.38057160426E+00  0.00000000000E+00 0. -1.
          5    1    1    2  501    0 -0.74538726543E+00  0.15816801028E+01  0.18178411886E+02  0.18857411615E+02  0.47000000000E+01 0. -1.
         -5    1    1    2    0  502  0.74538726543E+00 -0.15816801028E+01  0.15302837629E+03  0.15311051976E+03  0.47000000000E+01 0. -1.
<mgrwt>
<rscale>  2 0.50147098E+01</rscale>
<asrwt>0</asrwt>
<pdfrwt beam="1">  1       21 0.26397994E-01 0.50147098E+01</pdfrwt>
<pdfrwt beam="2">  1       21 0.58549615E-04 0.50147098E+01</pdfrwt>
<totfact> 0.97623676E+08</totfact>
</mgrwt>
</event>
<event>
 4    1  0.3900819E+006  0.5702703E+01  0.7546771E-02  0.2455801E+00
         21   -1    0    0  503  502  0.00000000000E+00  0.00000000000E+00  0.41950582818E+03  0.41950582818E+03  0.00000000000E+00 0.  1.
         21   -1    0    0  501  503 -0.00000000000E+00 -0.00000000000E+00 -0.14040906011E+01  0.14040906011E+01  0.00000000000E+00 0.  1.
          5    1    1    2  501    0 -0.25091183292E+01 -0.20335059750E+01  0.44881449703E+01  0.72570149934E+01  0.47000000000E+01 0.  1.
         -5    1    1    2    0  502  0.25091183292E+01  0.20335059750E+01  0.41361359261E+03  0.41365290379E+03  0.47000000000E+01 0.  1.
<mgrwt>
<rscale>  2 0.57027030E+01</rscale>
<asrwt>0</asrwt>
<pdfrwt beam="1">  1       21 0.64539259E-01 0.57027030E+01</pdfrwt>
<pdfrwt beam="2">  1       21 0.21601427E-03 0.57027030E+01</pdfrwt>
<totfact> 0.39355067E+07</totfact>
</mgrwt>
</event>
<event>
 4    1  0.3900819E+006  0.5551757E+01  0.7546771E-02  0.2477690E+00
         21   -1    0    0  501  502  0.00000000000E+00  0.00000000000E+00  0.17680262452E+02  0.17680262452E+02  0.00000000000E+00 0.  1.
         21   -1    0    0  502  503 -0.00000000000E+00 -0.00000000000E+00 -0.19725663930E+01  0.19725663930E+01  0.00000000000E+00 0.  1.
          5    1    1    2  501    0 -0.29547923966E+01 -0.34746421637E-01  0.11203882319E+02  0.12503958750E+02  0.47000000000E+01 0.  1.
         -5    1    1    2    0  503  0.29547923966E+01  0.34746421637E-01  0.45038137400E+01  0.71488700943E+01  0.47000000000E+01 0.  1.
<mgrwt>
<rscale>  2 0.55517570E+01</rscale>
<asrwt>0</asrwt>
<pdfrwt beam="1">  1       21 0.27200403E-02 0.55517570E+01</pdfrwt>
<pdfrwt beam="2">  1       21 0.30347176E-03 0.55517570E+01</pdfrwt>
<totfact> 0.36997057E+09</totfact>
</mgrwt>
</event>
<event>
 4    1  0.3900819E+006  0.7617060E+01  0.7546771E-02  0.2242943E+00
         21   -1    0    0  501  502  0.00000000000E+00  0.00000000000E+00  0.79621848799E+02  0.79621848799E+02  0.00000000000E+00 0. -1.
         21   -1    0    0  502  503 -0.00000000000E+00 -0.00000000000E+00 -0.10393148825E+01  0.10393148825E+01  0.00000000000E+00 0.  1.
          5    1    1    2  501    0  0.55833115154E+01 -0.21808786084E+01  0.61339786777E+02  0.61810913606E+02  0.47000000000E+01 0.  1.
         -5    1    1    2    0  503 -0.55833115154E+01  0.21808786084E+01  0.17242747139E+02  0.18850250075E+02  0.47000000000E+01 0.  1.
<mgrwt>
<rscale>  2 0.76170597E+01</rscale>
<asrwt>0</asrwt>
<pdfrwt beam="1">  1       21 0.12249510E-01 0.76170597E+01</pdfrwt>
<pdfrwt beam="2">  1       21 0.15989466E-03 0.76170597E+01</pdfrwt>
<totfact> 0.11949354E+09</totfact>
</mgrwt>
</event>
<event>
 4    1  0.3900819E+006  0.6235217E+01  0.7546771E-02  0.2385779E+00
         21   -1    0    0  503  502  0.00000000000E+00  0.00000000000E+00  0.47407003028E+03  0.47407003028E+03  0.00000000000E+00 0. -1.
         21   -1    0    0  501  503 -0.00000000000E+00 -0.00000000000E+00 -0.83570333381E-01  0.83570333381E-01  0.00000000000E+00 0.  1.
          5    1    1    2  501    0  0.26712251465E+01 -0.31068455271E+01  0.20458665254E+03  0.20468164630E+03  0.47000000000E+01 0.  1.
         -5    1    1    2    0  502 -0.26712251465E+01  0.31068455271E+01  0.26939980740E+03  0.26947195431E+03  0.47000000000E+01 0. -1.
<mgrwt>
<rscale>  2 0.62352172E+01</rscale>
<asrwt>0</asrwt>
<pdfrwt beam="1">  1       21 0.72931697E-01 0.62352172E+01</pdfrwt>
<pdfrwt beam="2">  1       21 0.12857354E-04 0.62352172E+01</pdfrwt>
<totfact> 0.14495784E+09</totfact>
</mgrwt>
</event>
<event>
 4    1  0.3900819E+006  0.6623266E+01  0.7546771E-02  0.2340737E+00
         21   -1    0    0  501  502  0.00000000000E+00  0.00000000000E+00  0.24607545725E+01  0.24607545725E+01  0.00000000000E+00 0.  1.
         21   -1    0    0  502  503 -0.00000000000E+00 -0.00000000000E+00 -0.17879694423E+02  0.17879694423E+02  0.00000000000E+00 0.  1.
          5    1    1    2  501    0  0.43065167933E+01 -0.17976565777E+01 -0.82620481215E+01  0.10589102664E+02  0.47000000000E+01 0.  1.
         -5    1    1    2    0  503 -0.43065167933E+01  0.17976565777E+01 -0.71568917295E+01  0.97513463321E+01  0.47000000000E+01 0.  1.
<mgrwt>
<rscale>  2 0.66232663E+01</rscale>
<asrwt>0</asrwt>
<pdfrwt beam="1">  1       21 0.37857761E-03 0.66232663E+01</pdfrwt>
<pdfrwt beam="2">  1       21 0.27507223E-02 0.66232663E+01</pdfrwt>
<totfact> 0.31375723E+09</totfact>
</mgrwt>
</event>
<event>
 4    1  0.3900819E+006  0.9325486E+01  0.7546771E-02  0.2115538E+00
         21   -1    0    0  501  502  0.00000000000E+00  0.00000000000E+00  0.26155695514E+02  0.26155695514E+02  0.00000000000E+00 0.  1.
         21   -1    0    0  502  503 -0.00000000000E+00 -0.00000000000E+00 -0.17510688122E+02  0.17510688122E+02  0.00000000000E+00 0. -1.
          5    1    1    2  501    0  0.57722972026E+01  0.56174079573E+01  0.23973862422E+02  0.25723739359E+02  0.47000000000E+01 0.  1.
         -5    1    1    2    0  503 -0.57722972026E+01 -0.56174079573E+01 -0.15328855030E+02  0.17942644278E+02  0.47000000000E+01 0. -1.
<mgrwt>
<rscale>  2 0.93254859E+01</rscale>
<asrwt>0</asrwt>
<pdfrwt beam="1">  1       21 0.40239532E-02 0.93254859E+01</pdfrwt>
<pdfrwt beam="2">  1       21 0.26939520E-02 0.93254859E+01</pdfrwt>
<totfact> 0.13369772E+08</totfact>
</mgrwt>
</event>
<event>
 4    1  0.3900819E+006  0.7466172E+01  0.7546771E-02  0.2256414E+00
         21   -1    0    0  501  502  0.00000000000E+00  0.00000000000E+00  0.47501973207E+00  0.47501973207E+00  0.00000000000E+00 0.  1.
         21   -1    0    0  502  503 -0.00000000000E+00 -0.00000000000E+00 -0.12685702318E+03  0.12685702318E+03  0.00000000000E+00 0. -1.
          5    1    1    2  501    0 -0.41550169094E+01 -0.40484021224E+01 -0.45762299482E+02  0.46367356827E+02  0.47000000000E+01 0.  1.
         -5    1    1    2    0  503  0.41550169094E+01  0.40484021224E+01 -0.80619703962E+02  0.80964686081E+02  0.47000000000E+01 0. -1.
<mgrwt>
<rscale>  2 0.74661721E+01</rscale>
<asrwt>0</asrwt>
<pdfrwt beam="1">  1       21 0.73079929E-04 0.74661721E+01</pdfrwt>
<pdfrwt beam="2">  1       21 0.19516473E-01 0.74661721E+01</pdfrwt>
<totfact> 0.16198404E+09</totfact>
</mgrwt>
</event>
<event>
 4    1  0.3900819E+006  0.4741903E+01  0.7546771E-02  0.2615083E+00
         21   -1    0    0  501  502  0.00000000000E+00  0.00000000000E+00  0.28980067215E+02  0.28980067215E+02  0.00000000000E+00 0. -1.
         21   -1    0    0  502  503 -0.00000000000E+00 -0.00000000000E+00 -0.83733241590E+00  0.83733241590E+00  0.00000000000E+00 0. -1.
          5    1    1    2  501    0 -0.61981722263E+00 -0.10711760280E+00  0.18109568835E+02  0.18720099652E+02  0.47000000000E+01 0. -1.
         -5    1    1    2    0  503  0.61981722263E+00  0.10711760280E+00  0.10033165964E+02  0.11097299979E+02  0.47000000000E+01 0. -1.
<mgrwt>
<rscale>  2 0.47419034E+01</rscale>
<asrwt>0</asrwt>
<pdfrwt beam="1">  1       21 0.44584711E-02 0.47419034E+01</pdfrwt>
<pdfrwt beam="2">  1       21 0.12882039E-03 0.47419034E+01</pdfrwt>
<totfact> 0.48927048E+09</totfact>
</mgrwt>
</event>
<event>
 4    1  0.3900819E+006  0.5785881E+01  0.7546771E-02  0.2444153E+00
         21   -1    0    0  501  502  0.00000000000E+00  0.00000000000E+00  0.75578379262E+03  0.75578379262E+03  0.00000000000E+00 0.  1.
         21   -1    0    0  502  503 -0.00000000000E+00 -0.00000000000E+00 -0.73103580326E-01  0.73103580326E-01  0.00000000000E+00 0. -1.
          5    1    1    2  501    0 -0.29178333632E+01 -0.16948933306E+01  0.61510819700E+03  0.61513540821E+03  0.47000000000E+01 0.  1.
         -5    1    1    2    0  503  0.29178333632E+01  0.16948933306E+01  0.14060249204E+03  0.14072148799E+03  0.47000000000E+01 0. -1.
<mgrwt>
<rscale>  2 0.57858807E+01</rscale>
<asrwt>0</asrwt>
<pdfrwt beam="1">  1       21 0.11626817E+00 0.57858807E+01</pdfrwt>
<pdfrwt beam="2">  1       21 0.11247310E-04 0.57858807E+01</pdfrwt>
<totfact> 0.64939501E+08</totfact>
</mgrwt>
</event>
<event>
 4    1  0.3900819E+006  0.6453975E+01  0.7546771E-02  0.2359835E+00
         21   -1    0    0  503  502  0.00000000000E+00  0.00000000000E+00  0.48932423101E+02  0.48932423101E+02  0.00000000000E+00 0. -1.
         21   -1    0    0  501  503 -0.00000000000E+00 -0.00000000000E+00 -0.11392707036E+01  0.11392707036E+01  0.00000000000E+00 0. -1.
          5    1    1    2  501    0 -0.38492749427E+01  0.21787311534E+01  0.11308489578E+02  0.13020588449E+02  0.47000000000E+01 0. -1.
         -5    1    1    2    0  502  0.38492749427E+01 -0.21787311534E+01  0.36484662819E+02  0.37051105355E+02  0.47000000000E+01 0. -1.
<mgrwt>
<rscale>  2 0.64539745E+01</rscale>
<asrwt>0</asrwt>
<pdfrwt beam="1">  1       21 0.75280635E-02 0.64539745E+01</pdfrwt>
<pdfrwt beam="2">  1       21 0.17527245E-03 0.64539745E+01</pdfrwt>
<totfact> 0.19833876E+09</totfact>
</mgrwt>
</event>
<event>
 4    1  0.3900819E+006  0.5903822E+01  0.7546771E-02  0.2428112E+00
         21   -1    0    0  503  502  0.00000000000E+00  0.00000000000E+00  0.24222121594E+02  0.24222121594E+02  0.00000000000E+00 0.  1.
         21   -1    0    0  501  503 -0.00000000000E+00 -0.00000000000E+00 -0.14805646537E+01  0.14805646537E+01  0.00000000000E+00 0.  1.
          5    1    1    2  501    0 -0.13498195446E+01  0.33080358594E+01  0.92169614314E+01  0.10945660879E+02  0.47000000000E+01 0.  1.
         -5    1    1    2    0  502  0.13498195446E+01 -0.33080358594E+01  0.13524595509E+02  0.14757025369E+02  0.47000000000E+01 0.  1.
<mgrwt>
<rscale>  2 0.59038220E+01</rscale>
<asrwt>0</asrwt>
<pdfrwt beam="1">  1       21 0.37264800E-02 0.59038220E+01</pdfrwt>
<pdfrwt beam="2">  1       21 0.22777919E-03 0.59038220E+01</pdfrwt>
<totfact> 0.36661635E+09</totfact>
</mgrwt>
</event>
<event>
 4    1  0.3900819E+006  0.5629016E+01  0.7546771E-02  0.2466363E+00
         21   -1    0    0  503  502  0.00000000000E+00  0.00000000000E+00  0.96036573633E+01  0.96036573633E+01  0.00000000000E+00 0. -1.
         21   -1    0    0  501  503 -0.00000000000E+00 -0.00000000000E+00 -0.33897528418E+01  0.33897528418E+01  0.00000000000E+00 0. -1.
          5    1    1    2  501    0 -0.28442587002E+01 -0.12271996183E+01  0.41679153974E+01  0.70040948892E+01  0.47000000000E+01 0. -1.
         -5    1    1    2    0  502  0.28442587002E+01  0.12271996183E+01  0.20459891242E+01  0.59893153159E+01  0.47000000000E+01 0. -1.
<mgrwt>
<rscale>  2 0.56290165E+01</rscale>
<asrwt>0</asrwt>
<pdfrwt beam="1">  1       21 0.14774857E-02 0.56290165E+01</pdfrwt>
<pdfrwt beam="2">  1       21 0.52150044E-03 0.56290165E+01</pdfrwt>
<totfact> 0.42574985E+09</totfact>
</mgrwt>
</event>
<event>
 4    1  0.3900819E+006  0.5268314E+01  0.7546771E-02  0.2521648E+00
         21   -1    0    0  501  502  0.00000000000E+00  0.00000000000E+00  0.13284157902E+01  0.13284157902E+01  0.00000000000E+00 0. -1.
         21   -1    0    0  502  503 -0.00000000000E+00 -0.00000000000E+00 -0.51709479054E+02  0.51709479054E+02  0.00000000000E+00 0. -1.
          5    1    1    2  501    0  0.24643956108E+00 -0.23673616993E+01 -0.47185524943E+01  0.70724728005E+01  0.47000000000E+01 0. -1.
         -5    1    1    2    0  503 -0.24643956108E+00  0.23673616993E+01 -0.45662510770E+02  0.45965422044E+02  0.47000000000E+01 0. -1.
<mgrwt>
<rscale>  2 0.52683141E+01</rscale>
<asrwt>0</asrwt>
<pdfrwt beam="1">  1       21 0.20437171E-03 0.52683141E+01</pdfrwt>
<pdfrwt beam="2">  1       21 0.79553024E-02 0.52683141E+01</pdfrwt>
<totfact> 0.12478381E+09</totfact>
</mgrwt>
</event>
<event>
 4    1  0.3900819E+006  0.7367216E+01  0.7546771E-02  0.2265492E+00
         21   -1    0    0  503  502  0.00000000000E+00  0.00000000000E+00  0.13376759013E+00  0.13376759013E+00  0.00000000000E+00 0.  1.
         21   -1    0    0  501  503 -0.00000000000E+00 -0.00000000000E+00 -0.40578704126E+03  0.40578704126E+03  0.00000000000E+00 0.  1.
          5    1    1    2  501    0 -0.55447373776E+01  0.12007313350E+01 -0.20482955103E+03  0.20496199854E+03  0.47000000000E+01 0. -1.
         -5    1    1    2    0  502  0.55447373776E+01 -0.12007313350E+01 -0.20082372264E+03  0.20095881031E+03  0.47000000000E+01 0. -1.
<mgrwt>
<rscale>  2 0.73672158E+01</rscale>
<asrwt>0</asrwt>
<pdfrwt beam="1">  1       21 0.20579827E-04 0.73672158E+01</pdfrwt>
<pdfrwt beam="2">  1       21 0.62428174E-01 0.73672158E+01</pdfrwt>
<totfact> 0.11607198E+09</totfact>
</mgrwt>
</event>
<event>
 4    1  0.3900819E+006  0.4920418E+01  0.7546771E-02  0.2581468E+00
         21   -1    0    0  501  502  0.00000000000E+00  0.00000000000E+00  0.74422279696E+01  0.74422279696E+01  0.00000000000E+00 0. -1.
         21   -1    0    0  502  503 -0.00000000000E+00 -0.00000000000E+00 -0.69836882984E+01  0.69836882984E+01  0.00000000000E+00 0. -1.
          5    1    1    2  501    0  0.10789948725E+01 -0.97789621522E+00  0.55010597161E+01  0.73805263324E+01  0.47000000000E+01 0. -1.
         -5    1    1    2    0  503 -0.10789948725E+01  0.97789621522E+00 -0.50425200449E+01  0.70453899357E+01  0.47000000000E+01 0. -1.
<mgrwt>
<rscale>  2 0.49204178E+01</rscale>
<asrwt>0</asrwt>
<pdfrwt beam="1">  1       21 0.11449581E-02 0.49204178E+01</pdfrwt>
<pdfrwt beam="2">  1       21 0.10744136E-02 0.49204178E+01</pdfrwt>
<totfact> 0.19543822E+09</totfact>
</mgrwt>
</event>
<event>
 4    1  0.3900819E+006  0.6038602E+01  0.7546771E-02  0.2410426E+00
         21   -1    0    0  503  502  0.00000000000E+00  0.00000000000E+00  0.68107795335E+00  0.68107795335E+00  0.00000000000E+00 0.  1.
         21   -1    0    0  501  503 -0.00000000000E+00 -0.00000000000E+00 -0.93560255169E+02  0.93560255169E+02  0.00000000000E+00 0.  1.
          5    1    1    2  501    0 -0.37547577426E+01  0.52583639932E+00 -0.77257789252E+02  0.77493423655E+02  0.47000000000E+01 0.  1.
         -5    1    1    2    0  502  0.37547577426E+01 -0.52583639932E+00 -0.15621387963E+02  0.16747909467E+02  0.47000000000E+01 0.  1.
<mgrwt>
<rscale>  2 0.60386016E+01</rscale>
<asrwt>0</asrwt>
<pdfrwt beam="1">  1       21 0.10478125E-03 0.60386016E+01</pdfrwt>
<pdfrwt beam="2">  1       21 0.14393882E-01 0.60386016E+01</pdfrwt>
<totfact> 0.13865831E+09</totfact>
</mgrwt>
</event>
<event>
 4    1  0.3900819E+006  0.5523174E+01  0.7546771E-02  0.2481949E+00
         21   -1    0    0  501  502  0.00000000000E+00  0.00000000000E+00  0.63039702501E+02  0.63039702501E+02  0.00000000000E+00 0.  1.
         21   -1    0    0  502  503 -0.00000000000E+00 -0.00000000000E+00 -0.57384662746E+00  0.57384662746E+00  0.00000000000E+00 0.  1.
          5    1    1    2  501    0 -0.28809684926E+01 -0.33980778783E+00  0.43824895598E+02  0.44171562379E+02  0.47000000000E+01 0.  1.
         -5    1    1    2    0  503  0.28809684926E+01  0.33980778783E+00  0.18640960275E+02  0.19441986749E+02  0.47000000000E+01 0.  1.
<mgrwt>
<rscale>  2 0.55231738E+01</rscale>
<asrwt>0</asrwt>
<pdfrwt beam="1">  1       21 0.96984103E-02 0.55231738E+01</pdfrwt>
<pdfrwt beam="2">  1       21 0.88284146E-04 0.55231738E+01</pdfrwt>
<totfact> 0.29784539E+09</totfact>
</mgrwt>
</event>
<event>
 4    1  0.3900819E+006  0.4925921E+01  0.7546771E-02  0.2580465E+00
         21   -1    0    0  501  502  0.00000000000E+00  0.00000000000E+00  0.25105359341E+03  0.25105359341E+03  0.00000000000E+00 0. -1.
         21   -1    0    0  502  503 -0.00000000000E+00 -0.00000000000E+00 -0.12138480211E+00  0.12138480211E+00  0.00000000000E+00 0. -1.
          5    1    1    2  501    0 -0.78391585796E+00 -0.12490684672E+01  0.18215599646E+03  0.18222258845E+03  0.47000000000E+01 0. -1.
         -5    1    1    2    0  503  0.78391585796E+00  0.12490684672E+01  0.68776212153E+02  0.68952389764E+02  0.47000000000E+01 0. -1.
<mgrwt>
<rscale>  2 0.49259208E+01</rscale>
<asrwt>0</asrwt>
<pdfrwt beam="1">  1       21 0.38623214E-01 0.49259208E+01</pdfrwt>
<pdfrwt beam="2">  1       21 0.18674786E-04 0.49259208E+01</pdfrwt>
<totfact> 0.23097648E+09</totfact>
</mgrwt>
</event>
<event>
 4    1  0.3900819E+006  0.4993580E+01  0.7546771E-02  0.2568294E+00
         21   -1    0    0  503  502  0.00000000000E+00  0.00000000000E+00  0.47066580596E+00  0.47066580596E+00  0.00000000000E+00 0. -1.
         21   -1    0    0  501  503 -0.00000000000E+00 -0.00000000000E+00 -0.54622682165E+02  0.54622682165E+02  0.00000000000E+00 0. -1.
          5    1    1    2  501    0 -0.10149098801E+01 -0.13475153794E+01 -0.22298855108E+02  0.22851143930E+02  0.47000000000E+01 0. -1.
         -5    1    1    2    0  502  0.10149098801E+01  0.13475153794E+01 -0.31853161250E+02  0.32242204041E+02  0.47000000000E+01 0. -1.
<mgrwt>
<rscale>  2 0.49935799E+01</rscale>
<asrwt>0</asrwt>
<pdfrwt beam="1">  1       21 0.72410127E-04 0.49935799E+01</pdfrwt>
<pdfrwt beam="2">  1       21 0.84034893E-02 0.49935799E+01</pdfrwt>
<totfact> 0.43644431E+09</totfact>
</mgrwt>
</event>
<event>
 4    1  0.3900819E+006  0.5262059E+01  0.7546771E-02  0.2522664E+00
         21   -1    0    0  501  502  0.00000000000E+00  0.00000000000E+00  0.20019671132E+02  0.20019671132E+02  0.00000000000E+00 0. -1.
         21   -1    0    0  502  503 -0.00000000000E+00 -0.00000000000E+00 -0.43358540523E+01  0.43358540523E+01  0.00000000000E+00 0.  1.
          5    1    1    2  501    0  0.89884724422E+00  0.21889120121E+01  0.17891389011E+02  0.18649157163E+02  0.47000000000E+01 0. -1.
         -5    1    1    2    0  503 -0.89884724422E+00 -0.21889120121E+01 -0.22075719308E+01  0.57063680213E+01  0.47000000000E+01 0.  1.
<mgrwt>
<rscale>  2 0.52620587E+01</rscale>
<asrwt>0</asrwt>
<pdfrwt beam="1">  1       21 0.30799494E-02 0.52620587E+01</pdfrwt>
<pdfrwt beam="2">  1       21 0.66705448E-03 0.52620587E+01</pdfrwt>
<totfact> 0.99472443E+08</totfact>
</mgrwt>
</event>
<event>
 4    1  0.3900819E+006  0.6088778E+01  0.7546771E-02  0.2404010E+00
         21   -1    0    0  503  502  0.00000000000E+00  0.00000000000E+00  0.36601160138E+01  0.36601160138E+01  0.00000000000E+00 0. -1.
         21   -1    0    0  501  503 -0.00000000000E+00 -0.00000000000E+00 -0.22428130319E+02  0.22428130319E+02  0.00000000000E+00 0.  1.
          5    1    1    2  501    0  0.34506763463E+01 -0.17538662328E+01 -0.19043538244E+02  0.19993237929E+02  0.47000000000E+01 0.  1.
         -5    1    1    2    0  502 -0.34506763463E+01  0.17538662328E+01  0.27552393886E+00  0.60950084045E+01  0.47000000000E+01 0. -1.
<mgrwt>
<rscale>  2 0.60887777E+01</rscale>
<asrwt>0</asrwt>
<pdfrwt beam="1">  1       21 0.56309478E-03 0.60887777E+01</pdfrwt>
<pdfrwt beam="2">  1       21 0.34504815E-02 0.60887777E+01</pdfrwt>
<totfact> 0.12095565E+09</totfact>
</mgrwt>
</event>
<event>
 4    1  0.3900819E+006  0.5649495E+01  0.7546771E-02  0.2463404E+00
         21   -1    0    0  503  502  0.00000000000E+00  0.00000000000E+00  0.13439498301E+01  0.13439498301E+01  0.00000000000E+00 0.  1.
         21   -1    0    0  501  503 -0.00000000000E+00 -0.00000000000E+00 -0.26089770187E+02  0.26089770187E+02  0.00000000000E+00 0. -1.
          5    1    1    2  501    0 -0.87615590965E+00  0.30098405023E+01 -0.16481999572E+02  0.17423349245E+02  0.47000000000E+01 0. -1.
         -5    1    1    2    0  502  0.87615590965E+00 -0.30098405023E+01 -0.82638207848E+01  0.10010370772E+02  0.47000000000E+01 0.  1.
<mgrwt>
<rscale>  2 0.56494946E+01</rscale>
<asrwt>0</asrwt>
<pdfrwt beam="1">  1       21 0.20676153E-03 0.56494946E+01</pdfrwt>
<pdfrwt beam="2">  1       21 0.40138105E-02 0.56494946E+01</pdfrwt>
<totfact> 0.36044299E+09</totfact>
</mgrwt>
</event>
<event>
 4    1  0.3900819E+006  0.5078833E+01  0.7546771E-02  0.2553356E+00
         21   -1    0    0  501  502  0.00000000000E+00  0.00000000000E+00  0.30474145766E+01  0.30474145766E+01  0.00000000000E+00 0.  1.
         21   -1    0    0  502  503 -0.00000000000E+00 -0.00000000000E+00 -0.17714915143E+02  0.17714915143E+02  0.00000000000E+00 0.  1.
          5    1    1    2  501    0  0.85142061988E-02 -0.19247015298E+01  0.16794488373E+00  0.50816093863E+01  0.47000000000E+01 0.  1.
         -5    1    1    2    0  503 -0.85142061988E-02  0.19247015298E+01 -0.14835445450E+02  0.15680720334E+02  0.47000000000E+01 0.  1.
<mgrwt>
<rscale>  2 0.50788334E+01</rscale>
<asrwt>0</asrwt>
<pdfrwt beam="1">  1       21 0.46883302E-03 0.50788334E+01</pdfrwt>
<pdfrwt beam="2">  1       21 0.27253715E-02 0.50788334E+01</pdfrwt>
<totfact> 0.18649422E+09</totfact>
</mgrwt>
</event>
<event>
 4    1  0.3900819E+006  0.1180304E+02  0.7546771E-02  0.1984894E+00
         21   -1    0    0  501  502  0.00000000000E+00  0.00000000000E+00  0.10087508863E+02  0.10087508863E+02  0.00000000000E+00 0. -1.
         21   -1    0    0  502  503 -0.00000000000E+00 -0.00000000000E+00 -0.10970047111E+03  0.10970047111E+03  0.00000000000E+00 0.  1.
          5    1    1    2  501    0  0.57200827722E+01  0.91925181107E+01  0.61906784772E+01  0.13328024465E+02  0.47000000000E+01 0. -1.
         -5    1    1    2    0  503 -0.57200827722E+01 -0.91925181107E+01 -0.10580364073E+03  0.10645995551E+03  0.47000000000E+01 0.  1.
<mgrwt>
<rscale>  2 0.11803039E+02</rscale>
<asrwt>0</asrwt>
<pdfrwt beam="1">  1       21 0.15519244E-02 0.11803039E+02</pdfrwt>
<pdfrwt beam="2">  1       21 0.16876996E-01 0.11803039E+02</pdfrwt>
<totfact> 0.34898580E+07</totfact>
</mgrwt>
</event>
<event>
 4    1  0.3900819E+006  0.7611285E+01  0.7546771E-02  0.2243450E+00
         21   -1    0    0  501  502  0.00000000000E+00  0.00000000000E+00  0.44823455709E+02  0.44823455709E+02  0.00000000000E+00 0.  1.
         21   -1    0    0  502  503 -0.00000000000E+00 -0.00000000000E+00 -0.19436499767E+01  0.19436499767E+01  0.00000000000E+00 0.  1.
          5    1    1    2  501    0  0.25853851345E+01 -0.53997633695E+01  0.34975011358E+02  0.35793617870E+02  0.47000000000E+01 0.  1.
         -5    1    1    2    0  503 -0.25853851345E+01  0.53997633695E+01  0.79047943747E+01  0.10973487816E+02  0.47000000000E+01 0.  1.
<mgrwt>
<rscale>  2 0.76112851E+01</rscale>
<asrwt>0</asrwt>
<pdfrwt beam="1">  1       21 0.68959155E-02 0.76112851E+01</pdfrwt>
<pdfrwt beam="2">  1       21 0.29902311E-03 0.76112851E+01</pdfrwt>
<totfact> 0.12278731E+09</totfact>
</mgrwt>
</event>
<event>
 4    1  0.3900819E+006  0.4902357E+01  0.7546771E-02  0.2584773E+00
         21   -1    0    0  501  502  0.00000000000E+00  0.00000000000E+00  0.22775082926E+03  0.22775082926E+03  0.00000000000E+00 0. -1.
         21   -1    0    0  502  503 -0.00000000000E+00 -0.00000000000E+00 -0.12331155923E+00  0.12331155923E+00  0.00000000000E+00 0. -1.
          5    1    1    2  501    0  0.12675299876E+01  0.58005912927E+00  0.70539912841E+02  0.70710058723E+02  0.47000000000E+01 0. -1.
         -5    1    1    2    0  503 -0.12675299876E+01 -0.58005912927E+00  0.15708760486E+03  0.15716408210E+03  0.47000000000E+01 0. -1.
<mgrwt>
<rscale>  2 0.49023567E+01</rscale>
<asrwt>0</asrwt>
<pdfrwt beam="1">  1       21 0.35038253E-01 0.49023567E+01</pdfrwt>
<pdfrwt beam="2">  1       21 0.18971191E-04 0.49023567E+01</pdfrwt>
<totfact> 0.26572283E+09</totfact>
</mgrwt>
</event>
<event>
 4    1  0.3900819E+006  0.5640906E+01  0.7546771E-02  0.2464643E+00
         21   -1    0    0  503  502  0.00000000000E+00  0.00000000000E+00  0.26451427614E+01  0.26451427614E+01  0.00000000000E+00 0.  1.
         21   -1    0    0  501  503 -0.00000000000E+00 -0.00000000000E+00 -0.54901501184E+02  0.54901501184E+02  0.00000000000E+00 0.  1.
          5    1    1    2  501    0  0.28411967823E+00 -0.31062996223E+01 -0.51554564712E+02  0.51862249893E+02  0.47000000000E+01 0.  1.
         -5    1    1    2    0  502 -0.28411967823E+00  0.31062996223E+01 -0.70179371118E+00  0.56843940528E+01  0.47000000000E+01 0.  1.
<mgrwt>
<rscale>  2 0.56409061E+01</rscale>
<asrwt>0</asrwt>
<pdfrwt beam="1">  1       21 0.40694505E-03 0.56409061E+01</pdfrwt>
<pdfrwt beam="2">  1       21 0.84463845E-02 0.56409061E+01</pdfrwt>
<totfact> 0.47200126E+08</totfact>
</mgrwt>
</event>
<event>
 4    1  0.3900819E+006  0.5047477E+01  0.7546771E-02  0.2558800E+00
         21   -1    0    0  503  502  0.00000000000E+00  0.00000000000E+00  0.20755286449E+01  0.20755286449E+01  0.00000000000E+00 0.  1.
         21   -1    0    0  501  503 -0.00000000000E+00 -0.00000000000E+00 -0.17938131862E+02  0.17938131862E+02  0.00000000000E+00 0.  1.
          5    1    1    2  501    0 -0.82478094547E+00 -0.16452222570E+01 -0.13553912178E+02  0.14463248432E+02  0.47000000000E+01 0.  1.
         -5    1    1    2    0  502  0.82478094547E+00  0.16452222570E+01 -0.23086910388E+01  0.55504120744E+01  0.47000000000E+01 0.  1.
<mgrwt>
<rscale>  2 0.50474766E+01</rscale>
<asrwt>0</asrwt>
<pdfrwt beam="1">  1       21 0.31931208E-03 0.50474766E+01</pdfrwt>
<pdfrwt beam="2">  1       21 0.27597127E-02 0.50474766E+01</pdfrwt>
<totfact> 0.30772816E+09</totfact>
</mgrwt>
</event>
<event>
 4    1  0.3900819E+006  0.9349075E+01  0.7546771E-02  0.2114042E+00
         21   -1    0    0  503  502  0.00000000000E+00  0.00000000000E+00  0.36334512912E+02  0.36334512912E+02  0.00000000000E+00 0. -1.
         21   -1    0    0  501  503 -0.00000000000E+00 -0.00000000000E+00 -0.26826713796E+01  0.26826713796E+01  0.00000000000E+00 0. -1.
          5    1    1    2  501    0 -0.74740977364E+01  0.30745840705E+01  0.10556004340E+02  0.14100866350E+02  0.47000000000E+01 0. -1.
         -5    1    1    2    0  502  0.74740977364E+01 -0.30745840705E+01  0.23095837192E+02  0.24916317941E+02  0.47000000000E+01 0. -1.
<mgrwt>
<rscale>  2 0.93490750E+01</rscale>
<asrwt>0</asrwt>
<pdfrwt beam="1">  1       21 0.55899247E-02 0.93490750E+01</pdfrwt>
<pdfrwt beam="2">  1       21 0.41271870E-03 0.93490750E+01</pdfrwt>
<totfact> 0.12316240E+09</totfact>
</mgrwt>
</event>
<event>
 4    1  0.3900819E+006  0.5279862E+01  0.7546771E-02  0.2519779E+00
         21   -1    0    0  501  502  0.00000000000E+00  0.00000000000E+00  0.38559948090E+03  0.38559948090E+03  0.00000000000E+00 0. -1.
         21   -1    0    0  502  503 -0.00000000000E+00 -0.00000000000E+00 -0.59110380749E+00  0.59110380749E+00  0.00000000000E+00 0. -1.
          5    1    1    2  501    0  0.23408434761E+01  0.55443144700E+00  0.37340622142E+03  0.37344354746E+03  0.47000000000E+01 0. -1.
         -5    1    1    2    0  503 -0.23408434761E+01 -0.55443144700E+00  0.11602155674E+02  0.12747037251E+02  0.47000000000E+01 0. -1.
<mgrwt>
<rscale>  2 0.52798620E+01</rscale>
<asrwt>0</asrwt>
<pdfrwt beam="1">  1       21 0.59322796E-01 0.52798620E+01</pdfrwt>
<pdfrwt beam="2">  1       21 0.90939355E-04 0.52798620E+01</pdfrwt>
<totfact> 0.14017002E+08</totfact>
</mgrwt>
</event>
<event>
 4    1  0.3900819E+006  0.1264809E+02  0.7546771E-02  0.1949664E+00
         21   -1    0    0  501  502  0.00000000000E+00  0.00000000000E+00  0.69769701117E+02  0.69769701117E+02  0.00000000000E+00 0.  1.
         21   -1    0    0  502  503 -0.00000000000E+00 -0.00000000000E+00 -0.28970064760E+01  0.28970064760E+01  0.00000000000E+00 0.  1.
          5    1    1    2  501    0  0.82828964361E+01  0.83233249193E+01  0.50028082626E+02  0.51602162380E+02  0.47000000000E+01 0.  1.
         -5    1    1    2    0  503 -0.82828964361E+01 -0.83233249193E+01  0.16844612015E+02  0.21064545213E+02  0.47000000000E+01 0.  1.
<mgrwt>
<rscale>  2 0.12648087E+02</rscale>
<asrwt>0</asrwt>
<pdfrwt beam="1">  1       21 0.10733799E-01 0.12648087E+02</pdfrwt>
<pdfrwt beam="2">  1       21 0.44569335E-03 0.12648087E+02</pdfrwt>
<totfact> 0.46473355E+08</totfact>
</mgrwt>
</event>
<event>
 4    1  0.3900819E+006  0.6858920E+01  0.7546771E-02  0.2315456E+00
         21   -1    0    0  501  502  0.00000000000E+00  0.00000000000E+00  0.17898979884E+00  0.17898979884E+00  0.00000000000E+00 0. -1.
         21   -1    0    0  502  503 -0.00000000000E+00 -0.00000000000E+00 -0.75868817999E+03  0.75868817999E+03  0.00000000000E+00 0.  1.
          5    1    1    2  501    0  0.20534063534E+01  0.45539336719E+01 -0.72507366708E+02  0.72831058049E+02  0.47000000000E+01 0. -1.
         -5    1    1    2    0  503 -0.20534063534E+01 -0.45539336719E+01 -0.68600182349E+03  0.68603611174E+03  0.47000000000E+01 0.  1.
<mgrwt>
<rscale>  2 0.68589204E+01</rscale>
<asrwt>0</asrwt>
<pdfrwt beam="1">  1       21 0.27537076E-04 0.68589204E+01</pdfrwt>
<pdfrwt beam="2">  1       21 0.11672048E+00 0.68589204E+01</pdfrwt>
<totfact> 0.21636205E+08</totfact>
</mgrwt>
</event>
<event>
 4    1  0.3900819E+006  0.7180837E+01  0.7546771E-02  0.2283140E+00
         21   -1    0    0  503  502  0.00000000000E+00  0.00000000000E+00  0.35264720620E+01  0.35264720620E+01  0.00000000000E+00 0. -1.
         21   -1    0    0  501  503 -0.00000000000E+00 -0.00000000000E+00 -0.17658598906E+02  0.17658598906E+02  0.00000000000E+00 0. -1.
          5    1    1    2  501    0  0.22476179083E+01  0.49419259188E+01 -0.11458530906E+02  0.13522660558E+02  0.47000000000E+01 0. -1.
         -5    1    1    2    0  502 -0.22476179083E+01 -0.49419259188E+01 -0.26735959379E+01  0.76624104097E+01  0.47000000000E+01 0. -1.
<mgrwt>
<rscale>  2 0.71808369E+01</rscale>
<asrwt>0</asrwt>
<pdfrwt beam="1">  1       21 0.54253416E-03 0.71808369E+01</pdfrwt>
<pdfrwt beam="2">  1       21 0.27167075E-02 0.71808369E+01</pdfrwt>
<totfact> 0.20596888E+09</totfact>
</mgrwt>
</event>
<event>
 4    1  0.3900819E+006  0.5008938E+01  0.7546771E-02  0.2565571E+00
         21   -1    0    0  503  502  0.00000000000E+00  0.00000000000E+00  0.42497839703E+03  0.42497839703E+03  0.00000000000E+00 0. -1.
         21   -1    0    0  501  503 -0.00000000000E+00 -0.00000000000E+00 -0.52388844083E+00  0.52388844083E+00  0.00000000000E+00 0. -1.
          5    1    1    2  501    0  0.16967112998E+01 -0.34731760768E+00  0.11821783025E+02  0.12839159344E+02  0.47000000000E+01 0. -1.
         -5    1    1    2    0  502 -0.16967112998E+01  0.34731760768E+00  0.41263272556E+03  0.41266312613E+03  0.47000000000E+01 0. -1.
<mgrwt>
<rscale>  2 0.50089379E+01</rscale>
<asrwt>0</asrwt>
<pdfrwt beam="1">  1       21 0.65381016E-01 0.50089379E+01</pdfrwt>
<pdfrwt beam="2">  1       21 0.80598561E-04 0.50089379E+01</pdfrwt>
<totfact> 0.13247895E+08</totfact>
</mgrwt>
</event>
<event>
 4    1  0.3900819E+006  0.6684317E+01  0.7546771E-02  0.2334047E+00
         21   -1    0    0  501  502  0.00000000000E+00  0.00000000000E+00  0.60345873632E+02  0.60345873632E+02  0.00000000000E+00 0. -1.
         21   -1    0    0  502  503 -0.00000000000E+00 -0.00000000000E+00 -0.74886310738E+00  0.74886310738E+00  0.00000000000E+00 0. -1.
          5    1    1    2  501    0 -0.12411131022E+01 -0.45879982501E+01  0.33045902768E+02  0.33715156523E+02  0.47000000000E+01 0. -1.
         -5    1    1    2    0  503  0.12411131022E+01  0.45879982501E+01  0.26551107757E+02  0.27379580216E+02  0.47000000000E+01 0. -1.
<mgrwt>
<rscale>  2 0.66843167E+01</rscale>
<asrwt>0</asrwt>
<pdfrwt beam="1">  1       21 0.92839768E-02 0.66843167E+01</pdfrwt>
<pdfrwt beam="2">  1       21 0.11520976E-03 0.66843167E+01</pdfrwt>
<totfact> 0.26170365E+09</totfact>
</mgrwt>
</event>
<event>
 4    1  0.3900819E+006  0.5085932E+01  0.7546771E-02  0.2552132E+00
         21   -1    0    0  501  502  0.00000000000E+00  0.00000000000E+00  0.30309139046E+02  0.30309139046E+02  0.00000000000E+00 0.  1.
         21   -1    0    0  502  503 -0.00000000000E+00 -0.00000000000E+00 -0.92411542471E+00  0.92411542471E+00  0.00000000000E+00 0.  1.
          5    1    1    2  501    0  0.18421331886E+01  0.61907060430E+00  0.19011595790E+02  0.19680129003E+02  0.47000000000E+01 0.  1.
         -5    1    1    2    0  503 -0.18421331886E+01 -0.61907060430E+00  0.10373427831E+02  0.11553125467E+02  0.47000000000E+01 0.  1.
<mgrwt>
<rscale>  2 0.50859319E+01</rscale>
<asrwt>0</asrwt>
<pdfrwt beam="1">  1       21 0.46629437E-02 0.50859319E+01</pdfrwt>
<pdfrwt beam="2">  1       21 0.14217163E-03 0.50859319E+01</pdfrwt>
<totfact> 0.43274027E+09</totfact>
</mgrwt>
</event>
<event>
 4    1  0.3900819E+006  0.1093833E+02  0.7546771E-02  0.2025215E+00
         21   -1    0    0  501  502  0.00000000000E+00  0.00000000000E+00  0.70128488330E+01  0.70128488330E+01  0.00000000000E+00 0.  1.
         21   -1    0    0  502  503 -0.00000000000E+00 -0.00000000000E+00 -0.17824792255E+02  0.17824792255E+02  0.00000000000E+00 0. -1.
          5    1    1    2  501    0 -0.87156563245E+01 -0.46469740535E+01 -0.79765008419E+01  0.13537784113E+02  0.47000000000E+01 0. -1.
         -5    1    1    2    0  503  0.87156563245E+01  0.46469740535E+01 -0.28354425800E+01  0.11299856975E+02  0.47000000000E+01 0.  1.
<mgrwt>
<rscale>  2 0.10938329E+02</rscale>
<asrwt>0</asrwt>
<pdfrwt beam="1">  1       21 0.10788998E-02 0.10938329E+02</pdfrwt>
<pdfrwt beam="2">  1       21 0.27422757E-02 0.10938329E+02</pdfrwt>
<totfact> 0.99822365E+08</totfact>
</mgrwt>
</event>
<event>
 4    1  0.3900819E+006  0.4758682E+01  0.7546771E-02  0.2611830E+00
         21   -1    0    0  503  502  0.00000000000E+00  0.00000000000E+00  0.67833367333E+01  0.67833367333E+01  0.00000000000E+00 0.  1.
         21   -1    0    0  501  503 -0.00000000000E+00 -0.00000000000E+00 -0.76243819860E+01  0.76243819860E+01  0.00000000000E+00 0.  1.
          5    1    1    2  501    0  0.44238537725E+00  0.59945656230E+00 -0.58217361575E+01  0.75191532023E+01  0.47000000000E+01 0.  1.
         -5    1    1    2    0  502 -0.44238537725E+00 -0.59945656230E+00  0.49806909048E+01  0.68885655169E+01  0.47000000000E+01 0.  1.
<mgrwt>
<rscale>  2 0.47586819E+01</rscale>
<asrwt>0</asrwt>
<pdfrwt beam="1">  1       21 0.10435903E-02 0.47586819E+01</pdfrwt>
<pdfrwt beam="2">  1       21 0.11729818E-02 0.47586819E+01</pdfrwt>
<totfact> 0.19017234E+09</totfact>
</mgrwt>
</event>
<event>
 4    1  0.3900819E+006  0.5882650E+01  0.7546771E-02  0.2430952E+00
         21   -1    0    0  503  502  0.00000000000E+00  0.00000000000E+00  0.62332898811E+00  0.62332898811E+00  0.00000000000E+00 0. -1.
         21   -1    0    0  501  503 -0.00000000000E+00 -0.00000000000E+00 -0.58484459553E+02  0.58484459553E+02  0.00000000000E+00 0.  1.
          5    1    1    2  501    0  0.25480945362E+01  0.24541361204E+01 -0.35587306965E+02  0.36070236856E+02  0.47000000000E+01 0. -1.
         -5    1    1    2    0  502 -0.25480945362E+01 -0.24541361204E+01 -0.22273823600E+02  0.23037551685E+02  0.47000000000E+01 0.  1.
<mgrwt>
<rscale>  2 0.58826499E+01</rscale>
<asrwt>0</asrwt>
<pdfrwt beam="1">  1       21 0.95896794E-04 0.58826499E+01</pdfrwt>
<pdfrwt beam="2">  1       21 0.89976066E-02 0.58826499E+01</pdfrwt>
<totfact> 0.31610713E+09</totfact>
</mgrwt>
</event>
<event>
 4    1  0.3900819E+006  0.9146008E+01  0.7546771E-02  0.2127117E+00
         21   -1    0    0  503  502  0.00000000000E+00  0.00000000000E+00  0.61229493568E+01  0.61229493568E+01  0.00000000000E+00 0.  1.
         21   -1    0    0  501  503 -0.00000000000E+00 -0.00000000000E+00 -0.21252300903E+02  0.21252300903E+02  0.00000000000E+00 0.  1.
          5    1    1    2  501    0  0.18727443943E+00 -0.78437488878E+01 -0.15744899978E+02  0.18208551388E+02  0.47000000000E+01 0.  1.
         -5    1    1    2    0  502 -0.18727443943E+00  0.78437488878E+01  0.61554843216E+00  0.91666988716E+01  0.47000000000E+01 0.  1.
<mgrwt>
<rscale>  2 0.91460083E+01</rscale>
<asrwt>0</asrwt>
<pdfrwt beam="1">  1       21 0.94199223E-03 0.91460083E+01</pdfrwt>
<pdfrwt beam="2">  1       21 0.32695847E-02 0.91460083E+01</pdfrwt>
<totfact> 0.84159360E+08</totfact>
</mgrwt>
</event>
<event>
 4    1  0.3900819E+006  0.4773288E+01  0.7546771E-02  0.2609015E+00
         21   -1    0    0  501  502  0.00000000000E+00  0.00000000000E+00  0.15276374998E+04  0.15276374998E+04  0.00000000000E+00 0.  1.
         21   -1    0    0  502  503 -0.00000000000E+00 -0.00000000000E+00 -0.17931095752E+00  0.17931095752E+00  0.00000000000E+00 0.  1.
          5    1    1    2  501    0 -0.45846449759E+00 -0.69576806742E+00  0.14951776944E+04  0.14951853137E+04  0.47000000000E+01 0.  1.
         -5    1    1    2    0  503  0.45846449759E+00  0.69576806742E+00  0.32280494427E+02  0.32631497105E+02  0.47000000000E+01 0.  1.
<mgrwt>
<rscale>  2 0.47732885E+01</rscale>
<asrwt>0</asrwt>
<pdfrwt beam="1">  1       21 0.23501073E+00 0.47732885E+01</pdfrwt>
<pdfrwt beam="2">  1       21 0.27587524E-04 0.47732885E+01</pdfrwt>
<totfact> 0.38591961E+07</totfact>
</mgrwt>
</event>
<event>
 4    1  0.3900819E+006  0.4832255E+01  0.7546771E-02  0.2597800E+00
         21   -1    0    0  501  502  0.00000000000E+00  0.00000000000E+00  0.27115924621E+00  0.27115924621E+00  0.00000000000E+00 0.  1.
         21   -1    0    0  502  503 -0.00000000000E+00 -0.00000000000E+00 -0.16544841902E+03  0.16544841902E+03  0.00000000000E+00 0.  1.
          5    1    1    2  501    0 -0.10255394492E+01 -0.45711407481E+00 -0.25211006251E+02  0.25669934177E+02  0.47000000000E+01 0.  1.
         -5    1    1    2    0  503  0.10255394492E+01  0.45711407481E+00 -0.13996625352E+03  0.14004964409E+03  0.47000000000E+01 0.  1.
<mgrwt>
<rscale>  2 0.48322546E+01</rscale>
<asrwt>0</asrwt>
<pdfrwt beam="1">  1       21 0.41716971E-04 0.48322546E+01</pdfrwt>
<pdfrwt beam="2">  1       21 0.25453503E-01 0.48322546E+01</pdfrwt>
<totfact> 0.15687036E+09</totfact>
</mgrwt>
</event>
<event>
 4    1  0.3900819E+006  0.5439568E+01  0.7546771E-02  0.2494623E+00
         21   -1    0    0  501  502  0.00000000000E+00  0.00000000000E+00  0.27420005460E+02  0.27420005460E+02  0.00000000000E+00 0. -1.
         21   -1    0    0  502  503 -0.00000000000E+00 -0.00000000000E+00 -0.10793967549E+01  0.10793967549E+01  0.00000000000E+00 0. -1.
          5    1    1    2  501    0 -0.26905267221E+01  0.50987053618E+00  0.13406952891E+02  0.14468423820E+02  0.47000000000E+01 0. -1.
         -5    1    1    2    0  503  0.26905267221E+01 -0.50987053618E+00  0.12933655814E+02  0.14030978395E+02  0.47000000000E+01 0. -1.
<mgrwt>
<rscale>  2 0.54395682E+01</rscale>
<asrwt>0</asrwt>
<pdfrwt beam="1">  1       21 0.42184619E-02 0.54395682E+01</pdfrwt>
<pdfrwt beam="2">  1       21 0.16606106E-03 0.54395682E+01</pdfrwt>
<totfact> 0.43511157E+09</totfact>
</mgrwt>
</event>
<event>
 4    1  0.3900819E+006  0.6368444E+01  0.7546771E-02  0.2369802E+00
         21   -1    0    0  501  502  0.00000000000E+00  0.00000000000E+00  0.14376874464E+01  0.14376874464E+01  0.00000000000E+00 0. -1.
         21   -1    0    0  502  503 -0.00000000000E+00 -0.00000000000E+00 -0.41450240253E+02  0.41450240253E+02  0.00000000000E+00 0.  1.
          5    1    1    2  501    0  0.46665062895E+00  0.42719221294E+01 -0.78866173796E+01  0.10136854304E+02  0.47000000000E+01 0. -1.
         -5    1    1    2    0  503 -0.46665062895E+00 -0.42719221294E+01 -0.32125935427E+02  0.32751073395E+02  0.47000000000E+01 0.  1.
<mgrwt>
<rscale>  2 0.63684442E+01</rscale>
<asrwt>0</asrwt>
<pdfrwt beam="1">  1       21 0.22118267E-03 0.63684442E+01</pdfrwt>
<pdfrwt beam="2">  1       21 0.63769606E-02 0.63684442E+01</pdfrwt>
<totfact> 0.18352400E+09</totfact>
</mgrwt>
</event>
<event>
 4    1  0.3900819E+006  0.5383437E+01  0.7546771E-02  0.2503319E+00
         21   -1    0    0  501  502  0.00000000000E+00  0.00000000000E+00  0.31126800219E+02  0.31126800219E+02  0.00000000000E+00 0. -1.
         21   -1    0    0  502  503 -0.00000000000E+00 -0.00000000000E+00 -0.13483072128E+01  0.13483072128E+01  0.00000000000E+00 0. -1.
          5    1    1    2  501    0  0.10154900979E+01  0.24207805212E+01  0.23921890023E+02  0.24520159476E+02  0.47000000000E+01 0. -1.
         -5    1    1    2    0  503 -0.10154900979E+01 -0.24207805212E+01  0.58566029829E+01  0.79549479552E+01  0.47000000000E+01 0. -1.
<mgrwt>
<rscale>  2 0.53834374E+01</rscale>
<asrwt>0</asrwt>
<pdfrwt beam="1">  1       21 0.47887379E-02 0.53834374E+01</pdfrwt>
<pdfrwt beam="2">  1       21 0.20743190E-03 0.53834374E+01</pdfrwt>
<totfact> 0.26496171E+09</totfact>
</mgrwt>
</event>
<event>
 4    1  0.3900819E+006  0.6165491E+01  0.7546771E-02  0.2394370E+00
         21   -1    0    0  503  502  0.00000000000E+00  0.00000000000E+00  0.56404447283E-01  0.56404447283E-01  0.00000000000E+00 0.  1.
         21   -1    0    0  501  503 -0.00000000000E+00 -0.00000000000E+00 -0.77775002605E+03  0.77775002605E+03  0.00000000000E+00 0.  1.
          5    1    1    2  501    0 -0.93434642307E+00 -0.38794688442E+01 -0.53092866769E+03  0.53096446535E+03  0.47000000000E+01 0. -1.
         -5    1    1    2    0  502  0.93434642307E+00  0.38794688442E+01 -0.24676495391E+03  0.24684196515E+03  0.47000000000E+01 0. -1.
<mgrwt>
<rscale>  2 0.61654912E+01</rscale>
<asrwt>0</asrwt>
<pdfrwt beam="1">  1       21 0.86773175E-05 0.61654912E+01</pdfrwt>
<pdfrwt beam="2">  1       21 0.11965785E+00 0.61654912E+01</pdfrwt>
<totfact> 0.90150501E+08</totfact>
</mgrwt>
</event>
<event>
 4    1  0.3900819E+006  0.7816574E+01  0.7546771E-02  0.2225780E+00
         21   -1    0    0  501  502  0.00000000000E+00  0.00000000000E+00  0.46122398094E+01  0.46122398094E+01  0.00000000000E+00 0. -1.
         21   -1    0    0  502  503 -0.00000000000E+00 -0.00000000000E+00 -0.22922919969E+02  0.22922919969E+02  0.00000000000E+00 0.  1.
          5    1    1    2  501    0  0.32015995289E+01 -0.53627034014E+01 -0.21062724224E+00  0.78194111767E+01  0.47000000000E+01 0. -1.
         -5    1    1    2    0  503 -0.32015995289E+01  0.53627034014E+01 -0.18100052917E+02  0.19715748602E+02  0.47000000000E+01 0.  1.
<mgrwt>
<rscale>  2 0.78165739E+01</rscale>
<asrwt>0</asrwt>
<pdfrwt beam="1">  1       21 0.70957536E-03 0.78165739E+01</pdfrwt>
<pdfrwt beam="2">  1       21 0.35266030E-02 0.78165739E+01</pdfrwt>
<totfact> 0.10196869E+09</totfact>
</mgrwt>
</event>
<event>
 4    1  0.3900819E+006  0.5960237E+01  0.7546771E-02  0.2420628E+00
         21   -1    0    0  503  502  0.00000000000E+00  0.00000000000E+00  0.26994128864E+02  0.26994128864E+02  0.00000000000E+00 0.  1.
         21   -1    0    0  501  503 -0.00000000000E+00 -0.00000000000E+00 -0.78997724517E+01  0.78997724517E+01  0.00000000000E+00 0.  1.
          5    1    1    2  501    0  0.24215693424E+00  0.36572921790E+01 -0.63803895694E+01  0.87311967748E+01  0.47000000000E+01 0.  1.
         -5    1    1    2    0  502 -0.24215693424E+00 -0.36572921790E+01  0.25474745982E+02  0.26162704541E+02  0.47000000000E+01 0.  1.
<mgrwt>
<rscale>  2 0.59602371E+01</rscale>
<asrwt>0</asrwt>
<pdfrwt beam="1">  1       21 0.41529429E-02 0.59602371E+01</pdfrwt>
<pdfrwt beam="2">  1       21 0.12153496E-02 0.59602371E+01</pdfrwt>
<totfact> 0.30745760E+08</totfact>
</mgrwt>
</event>
<event>
 4    1  0.3900819E+006  0.1100516E+02  0.7546771E-02  0.2021925E+00
         21   -1    0    0  501  502  0.00000000000E+00  0.00000000000E+00  0.33730087293E+00  0.33730087293E+00  0.00000000000E+00 0.  1.
         21   -1    0    0  502  503 -0.00000000000E+00 -0.00000000000E+00 -0.36790641351E+03  0.36790641351E+03  0.00000000000E+00 0. -1.
          5    1    1    2  501    0 -0.75014218092E+01  0.65385168921E+01 -0.15524453875E+03  0.15563412333E+03  0.47000000000E+01 0.  1.
         -5    1    1    2    0  503  0.75014218092E+01 -0.65385168921E+01 -0.21232457389E+03  0.21260959106E+03  0.47000000000E+01 0. -1.
<mgrwt>
<rscale>  2 0.11005159E+02</rscale>
<asrwt>0</asrwt>
<pdfrwt beam="1">  1       21 0.51892545E-04 0.11005159E+02</pdfrwt>
<pdfrwt beam="2">  1       21 0.56600875E-01 0.11005159E+02</pdfrwt>
<totfact> 0.49517427E+08</totfact>
</mgrwt>
</event>
<event>
 4    1  0.3900819E+006  0.5185450E+01  0.7546771E-02  0.2535271E+00
         21   -1    0    0  501  502  0.00000000000E+00  0.00000000000E+00  0.16931709451E+01  0.16931709451E+01  0.00000000000E+00 0. -1.
         21   -1    0    0  502  503 -0.00000000000E+00 -0.00000000000E+00 -0.16262887443E+02  0.16262887443E+02  0.00000000000E+00 0. -1.
          5    1    1    2  501    0  0.21742031236E+00  0.21798207885E+01 -0.86610213397E+01  0.10094661010E+02  0.47000000000E+01 0. -1.
         -5    1    1    2    0  503 -0.21742031236E+00 -0.21798207885E+01 -0.59086951580E+01  0.78613973778E+01  0.47000000000E+01 0. -1.
<mgrwt>
<rscale>  2 0.51854499E+01</rscale>
<asrwt>0</asrwt>
<pdfrwt beam="1">  1       21 0.26048783E-03 0.51854499E+01</pdfrwt>
<pdfrwt beam="2">  1       21 0.25019827E-02 0.51854499E+01</pdfrwt>
<totfact> 0.48005392E+09</totfact>
</mgrwt>
</event>
<event>
 4    1  0.3900819E+006  0.6425773E+01  0.7546771E-02  0.2363097E+00
         21   -1    0    0  503  502  0.00000000000E+00  0.00000000000E+00  0.12178863015E+02  0.12178863015E+02  0.00000000000E+00 0.  1.
         21   -1    0    0  501  503 -0.00000000000E+00 -0.00000000000E+00 -0.35480225302E+01  0.35480225302E+01  0.00000000000E+00 0. -1.
          5    1    1    2  501    0 -0.43188090023E+01  0.74056807111E+00  0.26577280496E+01  0.69537091291E+01  0.47000000000E+01 0.  1.
         -5    1    1    2    0  502  0.43188090023E+01 -0.74056807111E+00  0.59731124352E+01  0.87731764162E+01  0.47000000000E+01 0. -1.
<mgrwt>
<rscale>  2 0.64257725E+01</rscale>
<asrwt>0</asrwt>
<pdfrwt beam="1">  1       21 0.18736712E-02 0.64257725E+01</pdfrwt>
<pdfrwt beam="2">  1       21 0.54584963E-03 0.64257725E+01</pdfrwt>
<totfact> 0.32054038E+09</totfact>
</mgrwt>
</event>
<event>
 4    1  0.3900819E+006  0.1101624E+02  0.7546771E-02  0.2021382E+00
         21   -1    0    0  503  502  0.00000000000E+00  0.00000000000E+00  0.10661000176E+03  0.10661000176E+03  0.00000000000E+00 0. -1.
         21   -1    0    0  501  503 -0.00000000000E+00 -0.00000000000E+00 -0.11513974801E+01  0.11513974801E+01  0.00000000000E+00 0. -1.
          5    1    1    2  501    0  0.13833016554E+01  0.98668166486E+01  0.46989716861E+02  0.48263765756E+02  0.47000000000E+01 0. -1.
         -5    1    1    2    0  502 -0.13833016554E+01 -0.98668166486E+01  0.58468887421E+02  0.59497633487E+02  0.47000000000E+01 0. -1.
<mgrwt>
<rscale>  2 0.11016242E+02</rscale>
<asrwt>0</asrwt>
<pdfrwt beam="1">  1       21 0.16401531E-01 0.11016242E+02</pdfrwt>
<pdfrwt beam="2">  1       21 0.17713816E-03 0.11016242E+02</pdfrwt>
<totfact> 0.80472924E+08</totfact>
</mgrwt>
</event>
<event>
 4    1  0.3900819E+006  0.8738594E+01  0.7546771E-02  0.2154792E+00
         21   -1    0    0  503  502  0.00000000000E+00  0.00000000000E+00  0.14912971656E+01  0.14912971656E+01  0.00000000000E+00 0. -1.
         21   -1    0    0  501  503 -0.00000000000E+00 -0.00000000000E+00 -0.60739912469E+02  0.60739912469E+02  0.00000000000E+00 0. -1.
          5    1    1    2  501    0 -0.46629507958E+01 -0.57035006109E+01 -0.41952001405E+02  0.42852461437E+02  0.47000000000E+01 0. -1.
         -5    1    1    2    0  502  0.46629507958E+01  0.57035006109E+01 -0.17296613898E+02  0.19378748197E+02  0.47000000000E+01 0. -1.
<mgrwt>
<rscale>  2 0.87385942E+01</rscale>
<asrwt>0</asrwt>
<pdfrwt beam="1">  1       21 0.22943035E-03 0.87385942E+01</pdfrwt>
<pdfrwt beam="2">  1       21 0.93446012E-02 0.87385942E+01</pdfrwt>
<totfact> 0.12146939E+09</totfact>
</mgrwt>
</event>
<event>
 4    1  0.3900819E+006  0.6009197E+01  0.7546771E-02  0.2414228E+00
         21   -1    0    0  503  502  0.00000000000E+00  0.00000000000E+00  0.24995196822E+01  0.24995196822E+01  0.00000000000E+00 0.  1.
         21   -1    0    0  501  503 -0.00000000000E+00 -0.00000000000E+00 -0.15126307302E+02  0.15126307302E+02  0.00000000000E+00 0.  1.
          5    1    1    2  501    0  0.32929496100E+01  0.17823952349E+01 -0.81810648158E+01  0.10150875402E+02  0.47000000000E+01 0.  1.
         -5    1    1    2    0  502 -0.32929496100E+01 -0.17823952349E+01 -0.44457228044E+01  0.74749515825E+01  0.47000000000E+01 0.  1.
<mgrwt>
<rscale>  2 0.60091971E+01</rscale>
<asrwt>0</asrwt>
<pdfrwt beam="1">  1       21 0.38454148E-03 0.60091971E+01</pdfrwt>
<pdfrwt beam="2">  1       21 0.23271242E-02 0.60091971E+01</pdfrwt>
<totfact> 0.35975906E+09</totfact>
</mgrwt>
</event>
<event>
 4    1  0.3900819E+006  0.6912511E+01  0.7546771E-02  0.2309905E+00
         21   -1    0    0  501  502  0.00000000000E+00  0.00000000000E+00  0.56931241564E+01  0.56931241564E+01  0.00000000000E+00 0.  1.
         21   -1    0    0  502  503 -0.00000000000E+00 -0.00000000000E+00 -0.15819508189E+02  0.15819508189E+02  0.00000000000E+00 0.  1.
          5    1    1    2  501    0  0.27188320492E+01  0.42779388573E+01  0.23066343902E+01  0.72872059659E+01  0.47000000000E+01 0.  1.
         -5    1    1    2    0  503 -0.27188320492E+01 -0.42779388573E+01 -0.12433018423E+02  0.14225426380E+02  0.47000000000E+01 0.  1.
<mgrwt>
<rscale>  2 0.69125110E+01</rscale>
<asrwt>0</asrwt>
<pdfrwt beam="1">  1       21 0.87586528E-03 0.69125110E+01</pdfrwt>
<pdfrwt beam="2">  1       21 0.24337704E-02 0.69125110E+01</pdfrwt>
<totfact> 0.11951363E+09</totfact>
</mgrwt>
</event>
<event>
 4    1  0.3900819E+006  0.6648811E+01  0.7546771E-02  0.2337925E+00
         21   -1    0    0  501  502  0.00000000000E+00  0.00000000000E+00  0.15644162282E+02  0.15644162282E+02  0.00000000000E+00 0. -1.
         21   -1    0    0  502  503 -0.00000000000E+00 -0.00000000000E+00 -0.48612418132E+01  0.48612418132E+01  0.00000000000E+00 0.  1.
          5    1    1    2  501    0 -0.74139305055E+00 -0.46440312694E+01  0.12025805211E+02  0.13741422090E+02  0.47000000000E+01 0. -1.
         -5    1    1    2    0  503  0.74139305055E+00  0.46440312694E+01 -0.12428847420E+01  0.67639820053E+01  0.47000000000E+01 0.  1.
<mgrwt>
<rscale>  2 0.66488112E+01</rscale>
<asrwt>0</asrwt>
<pdfrwt beam="1">  1       21 0.24067942E-02 0.66488112E+01</pdfrwt>
<pdfrwt beam="2">  1       21 0.74788336E-03 0.66488112E+01</pdfrwt>
<totfact> 0.14747125E+09</totfact>
</mgrwt>
</event>
<event>
 4    1  0.3900819E+006  0.7698874E+01  0.7546771E-02  0.2235818E+00
         21   -1    0    0  503  502  0.00000000000E+00  0.00000000000E+00  0.33981301276E+01  0.33981301276E+01  0.00000000000E+00 0. -1.
         21   -1    0    0  501  503 -0.00000000000E+00 -0.00000000000E+00 -0.17448139973E+02  0.17448139973E+02  0.00000000000E+00 0.  1.
          5    1    1    2  501    0  0.14479652724E+01 -0.59233486259E+01 -0.68414491900E+01  0.10299421799E+02  0.47000000000E+01 0. -1.
         -5    1    1    2    0  502 -0.14479652724E+01  0.59233486259E+01 -0.72085606551E+01  0.10546848301E+02  0.47000000000E+01 0. -1.
<mgrwt>
<rscale>  2 0.76988741E+01</rscale>
<asrwt>0</asrwt>
<pdfrwt beam="1">  1       21 0.52278926E-03 0.76988741E+01</pdfrwt>
<pdfrwt beam="2">  1       21 0.26843292E-02 0.76988741E+01</pdfrwt>
<totfact> 0.23275603E+09</totfact>
</mgrwt>
</event>
<event>
 4    1  0.3900819E+006  0.5157357E+01  0.7546771E-02  0.2539974E+00
         21   -1    0    0  503  502  0.00000000000E+00  0.00000000000E+00  0.27559786843E+00  0.27559786843E+00  0.00000000000E+00 0. -1.
         21   -1    0    0  501  503 -0.00000000000E+00 -0.00000000000E+00 -0.96886971772E+02  0.96886971772E+02  0.00000000000E+00 0. -1.
          5    1    1    2  501    0 -0.18515603034E+01 -0.10392579886E+01 -0.51330439834E+02  0.51588878513E+02  0.47000000000E+01 0. -1.
         -5    1    1    2    0  502  0.18515603034E+01  0.10392579886E+01 -0.45280934070E+02  0.45573691127E+02  0.47000000000E+01 0. -1.
<mgrwt>
<rscale>  2 0.51573571E+01</rscale>
<asrwt>0</asrwt>
<pdfrwt beam="1">  1       21 0.42399612E-04 0.51573571E+01</pdfrwt>
<pdfrwt beam="2">  1       21 0.14905709E-01 0.51573571E+01</pdfrwt>
<totfact> 0.38218879E+09</totfact>
</mgrwt>
</event>
<event>
 4    1  0.3900819E+006  0.8068765E+01  0.7546771E-02  0.2205073E+00
         21   -1    0    0  503  502  0.00000000000E+00  0.00000000000E+00  0.96785177784E+02  0.96785177784E+02  0.00000000000E+00 0.  1.
         21   -1    0    0  501  503 -0.00000000000E+00 -0.00000000000E+00 -0.11651468194E+01  0.11651468194E+01  0.00000000000E+00 0. -1.
          5    1    1    2  501    0 -0.81500314772E+00 -0.65077450549E+01  0.15969783745E+02  0.17892427691E+02  0.47000000000E+01 0. -1.
         -5    1    1    2    0  502  0.81500314772E+00  0.65077450549E+01  0.79650247220E+02  0.80057896912E+02  0.47000000000E+01 0.  1.
<mgrwt>
<rscale>  2 0.80687654E+01</rscale>
<asrwt>0</asrwt>
<pdfrwt beam="1">  1       21 0.14890021E-01 0.80687654E+01</pdfrwt>
<pdfrwt beam="2">  1       21 0.17925343E-03 0.80687654E+01</pdfrwt>
<totfact> 0.77645002E+08</totfact>
</mgrwt>
</event>
<event>
 4    1  0.3900819E+006  0.6164745E+01  0.7546771E-02  0.2394463E+00
         21   -1    0    0  503  502  0.00000000000E+00  0.00000000000E+00  0.12875376170E+03  0.12875376170E+03  0.00000000000E+00 0.  1.
         21   -1    0    0  501  503 -0.00000000000E+00 -0.00000000000E+00 -0.12714401616E+01  0.12714401616E+01  0.00000000000E+00 0.  1.
          5    1    1    2  501    0 -0.17952188594E+01  0.35624802843E+01  0.67726479632E+01  0.91582114500E+01  0.47000000000E+01 0.  1.
         -5    1    1    2    0  502  0.17952188594E+01 -0.35624802843E+01  0.12070967357E+03  0.12086699041E+03  0.47000000000E+01 0.  1.
<mgrwt>
<rscale>  2 0.61647446E+01</rscale>
<asrwt>0</asrwt>
<pdfrwt beam="1">  1       21 0.19808261E-01 0.61647446E+01</pdfrwt>
<pdfrwt beam="2">  1       21 0.19560628E-03 0.61647446E+01</pdfrwt>
<totfact> 0.36364316E+08</totfact>
</mgrwt>
</event>
<event>
 4    1  0.3900819E+006  0.6048461E+01  0.7546771E-02  0.2409159E+00
         21   -1    0    0  501  502  0.00000000000E+00  0.00000000000E+00  0.46872195008E+00  0.46872195008E+00  0.00000000000E+00 0. -1.
         21   -1    0    0  502  503 -0.00000000000E+00 -0.00000000000E+00 -0.12379585758E+03  0.12379585758E+03  0.00000000000E+00 0. -1.
          5    1    1    2  501    0 -0.18175572631E+01 -0.33452004390E+01 -0.23894275211E+02  0.24647926247E+02  0.47000000000E+01 0. -1.
         -5    1    1    2    0  503  0.18175572631E+01  0.33452004390E+01 -0.99432860415E+02  0.99616653280E+02  0.47000000000E+01 0. -1.
<mgrwt>
<rscale>  2 0.60484610E+01</rscale>
<asrwt>0</asrwt>
<pdfrwt beam="1">  1       21 0.72111052E-04 0.60484610E+01</pdfrwt>
<pdfrwt beam="2">  1       21 0.19045521E-01 0.60484610E+01</pdfrwt>
<totfact> 0.14686132E+09</totfact>
</mgrwt>
</event>
<event>
 4    1  0.3900819E+006  0.9406601E+01  0.7546771E-02  0.2110420E+00
         21   -1    0    0  503  502  0.00000000000E+00  0.00000000000E+00  0.25435219819E+02  0.25435219819E+02  0.00000000000E+00 0.  1.
         21   -1    0    0  501  503 -0.00000000000E+00 -0.00000000000E+00 -0.40152197291E+01  0.40152197291E+01  0.00000000000E+00 0. -1.
          5    1    1    2  501    0 -0.28493799042E+01  0.76338180856E+01  0.16092175852E+02  0.18639803327E+02  0.47000000000E+01 0.  1.
         -5    1    1    2    0  502  0.28493799042E+01 -0.76338180856E+01  0.53278242377E+01  0.10810636221E+02  0.47000000000E+01 0. -1.
<mgrwt>
<rscale>  2 0.94066011E+01</rscale>
<asrwt>0</asrwt>
<pdfrwt beam="1">  1       21 0.39131107E-02 0.94066011E+01</pdfrwt>
<pdfrwt beam="2">  1       21 0.61772613E-03 0.94066011E+01</pdfrwt>
<totfact> 0.11981829E+09</totfact>
</mgrwt>
</event>
<event>
 4    1  0.3900819E+006  0.1135176E+02  0.7546771E-02  0.2005344E+00
         21   -1    0    0  503  502  0.00000000000E+00  0.00000000000E+00  0.84926763935E+01  0.84926763935E+01  0.00000000000E+00 0.  1.
         21   -1    0    0  501  503 -0.00000000000E+00 -0.00000000000E+00 -0.17066165303E+02  0.17066165303E+02  0.00000000000E+00 0. -1.
          5    1    1    2  501    0  0.37690611511E+01 -0.96211569378E+01 -0.85426849026E+01  0.14207038683E+02  0.47000000000E+01 0. -1.
         -5    1    1    2    0  502 -0.37690611511E+01  0.96211569378E+01 -0.30804006995E-01  0.11351803014E+02  0.47000000000E+01 0.  1.
<mgrwt>
<rscale>  2 0.11351761E+02</rscale>
<asrwt>0</asrwt>
<pdfrwt beam="1">  1       21 0.13065656E-02 0.11351761E+02</pdfrwt>
<pdfrwt beam="2">  1       21 0.26255639E-02 0.11351761E+02</pdfrwt>
<totfact> 0.82164332E+08</totfact>
</mgrwt>
</event>
<event>
 4    1  0.3900819E+006  0.5525355E+01  0.7546771E-02  0.2481622E+00
         21   -1    0    0  501  502  0.00000000000E+00  0.00000000000E+00  0.32558036010E+01  0.32558036010E+01  0.00000000000E+00 0.  1.
         21   -1    0    0  502  503 -0.00000000000E+00 -0.00000000000E+00 -0.14464739437E+02  0.14464739437E+02  0.00000000000E+00 0.  1.
          5    1    1    2  501    0  0.19388555167E+01  0.21634213791E+01 -0.34967391556E+00  0.55364090009E+01  0.47000000000E+01 0.  1.
         -5    1    1    2    0  503 -0.19388555167E+01 -0.21634213791E+01 -0.10859261921E+02  0.12184134037E+02  0.47000000000E+01 0.  1.
<mgrwt>
<rscale>  2 0.55253554E+01</rscale>
<asrwt>0</asrwt>
<pdfrwt beam="1">  1       21 0.50089287E-03 0.55253554E+01</pdfrwt>
<pdfrwt beam="2">  1       21 0.22253445E-02 0.55253554E+01</pdfrwt>
<totfact> 0.24680691E+09</totfact>
</mgrwt>
</event>
<event>
 4    1  0.3900819E+006  0.4920616E+01  0.7546771E-02  0.2581432E+00
         21   -1    0    0  501  502  0.00000000000E+00  0.00000000000E+00  0.36294454634E+04  0.36294454634E+04  0.00000000000E+00 0.  1.
         21   -1    0    0  502  503 -0.00000000000E+00 -0.00000000000E+00 -0.10392076274E-01  0.10392076274E-01  0.00000000000E+00 0.  1.
          5    1    1    2  501    0 -0.14411448478E+01  0.21345000392E+00  0.29006123354E+04  0.29006165091E+04  0.47000000000E+01 0.  1.
         -5    1    1    2    0  503  0.14411448478E+01 -0.21345000392E+00  0.72882273595E+03  0.72883934643E+03  0.47000000000E+01 0.  1.
<mgrwt>
<rscale>  2 0.49206158E+01</rscale>
<asrwt>0</asrwt>
<pdfrwt beam="1">  1       21 0.55736280E+00 0.49206158E+01</pdfrwt>
<pdfrwt beam="2">  1       21 0.16016880E-05 0.49206158E+01</pdfrwt>
<totfact> 0.58468885E+07</totfact>
</mgrwt>
</event>
<event>
 4    1  0.3900819E+006  0.6688686E+01  0.7546771E-02  0.2333572E+00
         21   -1    0    0  501  502  0.00000000000E+00  0.00000000000E+00  0.21107639345E+01  0.21107639345E+01  0.00000000000E+00 0. -1.
         21   -1    0    0  502  503 -0.00000000000E+00 -0.00000000000E+00 -0.21643597377E+02  0.21643597377E+02  0.00000000000E+00 0.  1.
          5    1    1    2  501    0  0.11495077116E+00 -0.47576582977E+01 -0.80572908320E+01  0.10471793624E+02  0.47000000000E+01 0.  1.
         -5    1    1    2    0  503 -0.11495077116E+00  0.47576582977E+01 -0.11475542610E+02  0.13282567687E+02  0.47000000000E+01 0. -1.
<mgrwt>
<rscale>  2 0.66886864E+01</rscale>
<asrwt>0</asrwt>
<pdfrwt beam="1">  1       21 0.32473293E-03 0.66886864E+01</pdfrwt>
<pdfrwt beam="2">  1       21 0.33297841E-02 0.66886864E+01</pdfrwt>
<totfact> 0.29573026E+09</totfact>
</mgrwt>
</event>
<event>
 4    1  0.3900819E+006  0.3424451E+02  0.7546771E-02  0.1555414E+00
         21   -1    0    0  501  502  0.00000000000E+00  0.00000000000E+00  0.16562284584E+01  0.16562284584E+01  0.00000000000E+00 0. -1.
         21   -1    0    0  502  503 -0.00000000000E+00 -0.00000000000E+00 -0.93063308031E+03  0.93063308031E+03  0.00000000000E+00 0.  1.
          5    1    1    2  501    0  0.19002492082E+02  0.28098068444E+02 -0.23651652961E+03  0.23898275029E+03  0.47000000000E+01 0. -1.
         -5    1    1    2    0  503 -0.19002492082E+02 -0.28098068444E+02 -0.69246032224E+03  0.69330655848E+03  0.47000000000E+01 0.  1.
<mgrwt>
<rscale>  2 0.34244505E+02</rscale>
<asrwt>0</asrwt>
<pdfrwt beam="1">  1       21 0.25480488E-03 0.34244505E+02</pdfrwt>
<pdfrwt beam="2">  1       21 0.14317404E+00 0.34244505E+02</pdfrwt>
<totfact> 0.96689888E+06</totfact>
</mgrwt>
</event>
<event>
 4    1  0.3900819E+006  0.2286693E+02  0.7546771E-02  0.1693676E+00
         21   -1    0    0  501  502  0.00000000000E+00  0.00000000000E+00  0.26009000969E+03  0.26009000969E+03  0.00000000000E+00 0. -1.
         21   -1    0    0  502  503 -0.00000000000E+00 -0.00000000000E+00 -0.21788939171E+01  0.21788939171E+01  0.00000000000E+00 0.  1.
          5    1    1    2  501    0  0.14803458036E+02 -0.16782854313E+02  0.16541695650E+03  0.16699001787E+03  0.47000000000E+01 0. -1.
         -5    1    1    2    0  503 -0.14803458036E+02  0.16782854313E+02  0.92494159270E+02  0.95278885740E+02  0.47000000000E+01 0.  1.
<mgrwt>
<rscale>  2 0.22866932E+02</rscale>
<asrwt>0</asrwt>
<pdfrwt beam="1">  1       21 0.40013823E-01 0.22866932E+02</pdfrwt>
<pdfrwt beam="2">  1       21 0.33521466E-03 0.22866932E+02</pdfrwt>
<totfact> 0.88467498E+07</totfact>
</mgrwt>
</event>
<event>
 4    1  0.3900819E+006  0.7085917E+01  0.7546771E-02  0.2292418E+00
         21   -1    0    0  503  502  0.00000000000E+00  0.00000000000E+00  0.37762612084E+02  0.37762612084E+02  0.00000000000E+00 0.  1.
         21   -1    0    0  501  503 -0.00000000000E+00 -0.00000000000E+00 -0.20537514252E+01  0.20537514252E+01  0.00000000000E+00 0.  1.
          5    1    1    2  501    0  0.45172741678E+01  0.27774898419E+01  0.60331629312E+01  0.93064101932E+01  0.47000000000E+01 0.  1.
         -5    1    1    2    0  502 -0.45172741678E+01 -0.27774898419E+01  0.29675697727E+02  0.30509953316E+02  0.47000000000E+01 0.  1.
<mgrwt>
<rscale>  2 0.70859167E+01</rscale>
<asrwt>0</asrwt>
<pdfrwt beam="1">  1       21 0.58096321E-02 0.70859167E+01</pdfrwt>
<pdfrwt beam="2">  1       21 0.31596178E-03 0.70859167E+01</pdfrwt>
<totfact> 0.14019569E+09</totfact>
</mgrwt>
</event>
<event>
 4    1  0.3900819E+006  0.7094188E+01  0.7546771E-02  0.2291602E+00
         21   -1    0    0  501  502  0.00000000000E+00  0.00000000000E+00  0.26406344869E+03  0.26406344869E+03  0.00000000000E+00 0.  1.
         21   -1    0    0  502  503 -0.00000000000E+00 -0.00000000000E+00 -0.42102089521E+00  0.42102089521E+00  0.00000000000E+00 0. -1.
          5    1    1    2  501    0 -0.30862384140E+01  0.43258111048E+01  0.22965524172E+03  0.22976478747E+03  0.47000000000E+01 0.  1.
         -5    1    1    2    0  503  0.30862384140E+01 -0.43258111048E+01  0.33987186075E+02  0.34719682121E+02  0.47000000000E+01 0. -1.
<mgrwt>
<rscale>  2 0.70941884E+01</rscale>
<asrwt>0</asrwt>
<pdfrwt beam="1">  1       21 0.40625014E-01 0.70941884E+01</pdfrwt>
<pdfrwt beam="2">  1       21 0.64772656E-04 0.70941884E+01</pdfrwt>
<totfact> 0.53080641E+08</totfact>
</mgrwt>
</event>
<event>
 4    1  0.3900819E+006  0.5184658E+01  0.7546771E-02  0.2535403E+00
         21   -1    0    0  503  502  0.00000000000E+00  0.00000000000E+00  0.30320122102E+01  0.30320122102E+01  0.00000000000E+00 0. -1.
         21   -1    0    0  501  503 -0.00000000000E+00 -0.00000000000E+00 -0.10067024177E+02  0.10067024177E+02  0.00000000000E+00 0.  1.
          5    1    1    2  501    0  0.44433394374E+00 -0.21431857108E+01 -0.12549319621E+01  0.53343726786E+01  0.47000000000E+01 0. -1.
         -5    1    1    2    0  502 -0.44433394374E+00  0.21431857108E+01 -0.57800800044E+01  0.77646637082E+01  0.47000000000E+01 0.  1.
<mgrwt>
<rscale>  2 0.51846579E+01</rscale>
<asrwt>0</asrwt>
<pdfrwt beam="1">  1       21 0.46646342E-03 0.51846579E+01</pdfrwt>
<pdfrwt beam="2">  1       21 0.15487730E-02 0.51846579E+01</pdfrwt>
<totfact> 0.42828402E+09</totfact>
</mgrwt>
</event>
<event>
 4    1  0.3900819E+006  0.6774790E+01  0.7546771E-02  0.2324315E+00
         21   -1    0    0  503  502  0.00000000000E+00  0.00000000000E+00  0.10811161307E+03  0.10811161307E+03  0.00000000000E+00 0. -1.
         21   -1    0    0  501  503 -0.00000000000E+00 -0.00000000000E+00 -0.55336203743E+00  0.55336203743E+00  0.00000000000E+00 0. -1.
          5    1    1    2  501    0 -0.40258868734E+01 -0.27568127681E+01  0.27564190763E+02  0.28384544988E+02  0.47000000000E+01 0. -1.
         -5    1    1    2    0  502  0.40258868734E+01  0.27568127681E+01  0.79994060270E+02  0.80280430120E+02  0.47000000000E+01 0. -1.
<mgrwt>
<rscale>  2 0.67747902E+01</rscale>
<asrwt>0</asrwt>
<pdfrwt beam="1">  1       21 0.16632539E-01 0.67747902E+01</pdfrwt>
<pdfrwt beam="2">  1       21 0.85132707E-04 0.67747902E+01</pdfrwt>
<totfact> 0.15930370E+09</totfact>
</mgrwt>
</event>
<event>
 4    1  0.3900819E+006  0.1923991E+02  0.7546771E-02  0.1760880E+00
         21   -1    0    0  501  502  0.00000000000E+00  0.00000000000E+00  0.90224952562E+01  0.90224952562E+01  0.00000000000E+00 0.  1.
         21   -1    0    0  502  503 -0.00000000000E+00 -0.00000000000E+00 -0.14401545335E+03  0.14401545335E+03  0.00000000000E+00 0. -1.
          5    1    1    2  501    0 -0.16063738002E+02 -0.94889627501E+01 -0.27886322662E+01  0.19440950660E+02  0.47000000000E+01 0.  1.
         -5    1    1    2    0  503  0.16063738002E+02  0.94889627501E+01 -0.13220432583E+03  0.13359699795E+03  0.47000000000E+01 0. -1.
<mgrwt>
<rscale>  2 0.19239909E+02</rscale>
<asrwt>0</asrwt>
<pdfrwt beam="1">  1       21 0.13880762E-02 0.19239909E+02</pdfrwt>
<pdfrwt beam="2">  1       21 0.22156223E-01 0.19239909E+02</pdfrwt>
<totfact> 0.30050939E+07</totfact>
</mgrwt>
</event>
<event>
 4    1  0.3900819E+006  0.5873532E+01  0.7546771E-02  0.2432180E+00
         21   -1    0    0  501  502  0.00000000000E+00  0.00000000000E+00  0.45008144051E+01  0.45008144051E+01  0.00000000000E+00 0.  1.
         21   -1    0    0  502  503 -0.00000000000E+00 -0.00000000000E+00 -0.10114777076E+02  0.10114777076E+02  0.00000000000E+00 0. -1.
          5    1    1    2  501    0 -0.28530317704E+01  0.20660572642E+01  0.78950658115E+00  0.59263566838E+01  0.47000000000E+01 0.  1.
         -5    1    1    2    0  503  0.28530317704E+01 -0.20660572642E+01 -0.64034692524E+01  0.86892347976E+01  0.47000000000E+01 0. -1.
<mgrwt>
<rscale>  2 0.58735324E+01</rscale>
<asrwt>0</asrwt>
<pdfrwt beam="1">  1       21 0.69243299E-03 0.58735324E+01</pdfrwt>
<pdfrwt beam="2">  1       21 0.15561195E-02 0.58735324E+01</pdfrwt>
<totfact> 0.27719354E+09</totfact>
</mgrwt>
</event>
<event>
 4    1  0.3900819E+006  0.8985127E+01  0.7546771E-02  0.2137807E+00
         21   -1    0    0  503  502  0.00000000000E+00  0.00000000000E+00  0.37533092248E+02  0.37533092248E+02  0.00000000000E+00 0.  1.
         21   -1    0    0  501  503 -0.00000000000E+00 -0.00000000000E+00 -0.38302021639E+01  0.38302021639E+01  0.00000000000E+00 0. -1.
          5    1    1    2  501    0 -0.73011037700E+01 -0.23100643651E+01  0.31574617724E+01  0.95237638817E+01  0.47000000000E+01 0. -1.
         -5    1    1    2    0  502  0.73011037700E+01  0.23100643651E+01  0.30545428312E+02  0.31839530530E+02  0.47000000000E+01 0.  1.
<mgrwt>
<rscale>  2 0.89851274E+01</rscale>
<asrwt>0</asrwt>
<pdfrwt beam="1">  1       21 0.57743216E-02 0.89851274E+01</pdfrwt>
<pdfrwt beam="2">  1       21 0.58926190E-03 0.89851274E+01</pdfrwt>
<totfact> 0.68963935E+08</totfact>
</mgrwt>
</event>
<event>
 4    1  0.3900819E+006  0.5895892E+01  0.7546771E-02  0.2429173E+00
         21   -1    0    0  503  502  0.00000000000E+00  0.00000000000E+00  0.32249789532E+03  0.32249789532E+03  0.00000000000E+00 0.  1.
         21   -1    0    0  501  503 -0.00000000000E+00 -0.00000000000E+00 -0.10824390168E+00  0.10824390168E+00  0.00000000000E+00 0.  1.
          5    1    1    2  501    0 -0.35300865720E+01  0.45829592716E+00  0.17165803414E+03  0.17175925661E+03  0.47000000000E+01 0.  1.
         -5    1    1    2    0  502  0.35300865720E+01 -0.45829592716E+00  0.15073161727E+03  0.15084688260E+03  0.47000000000E+01 0.  1.
<mgrwt>
<rscale>  2 0.58958923E+01</rscale>
<asrwt>0</asrwt>
<pdfrwt beam="1">  1       21 0.49614292E-01 0.58958923E+01</pdfrwt>
<pdfrwt beam="2">  1       21 0.16653166E-04 0.58958923E+01</pdfrwt>
<totfact> 0.20153281E+09</totfact>
</mgrwt>
</event>
<event>
 4    1  0.3900819E+006  0.5378505E+01  0.7546771E-02  0.2504091E+00
         21   -1    0    0  503  502  0.00000000000E+00  0.00000000000E+00  0.79845773376E+03  0.79845773376E+03  0.00000000000E+00 0. -1.
         21   -1    0    0  501  503 -0.00000000000E+00 -0.00000000000E+00 -0.36663147276E-01  0.36663147276E-01  0.00000000000E+00 0. -1.
          5    1    1    2  501    0  0.14717112577E+01  0.21615687794E+01  0.44259412885E+03  0.44262680805E+03  0.47000000000E+01 0. -1.
         -5    1    1    2    0  502 -0.14717112577E+01 -0.21615687794E+01  0.35582694176E+03  0.35586758886E+03  0.47000000000E+01 0. -1.
<mgrwt>
<rscale>  2 0.53785048E+01</rscale>
<asrwt>0</asrwt>
<pdfrwt beam="1">  1       21 0.12282573E+00 0.53785048E+01</pdfrwt>
<pdfrwt beam="2">  1       21 0.56411237E-05 0.53785048E+01</pdfrwt>
<totfact> 0.13827717E+09</totfact>
</mgrwt>
</event>
<event>
 4    1  0.3900819E+006  0.6394821E+01  0.7546771E-02  0.2366705E+00
         21   -1    0    0  501  502  0.00000000000E+00  0.00000000000E+00  0.18136248287E+03  0.18136248287E+03  0.00000000000E+00 0. -1.
         21   -1    0    0  502  503 -0.00000000000E+00 -0.00000000000E+00 -0.23245275184E+00  0.23245275184E+00  0.00000000000E+00 0.  1.
          5    1    1    2  501    0 -0.41793427835E+01 -0.11562161612E+01  0.10628985725E+03  0.10648205246E+03  0.47000000000E+01 0. -1.
         -5    1    1    2    0  503  0.41793427835E+01  0.11562161612E+01  0.74840172861E+02  0.75112883154E+02  0.47000000000E+01 0.  1.
<mgrwt>
<rscale>  2 0.63948215E+01</rscale>
<asrwt>0</asrwt>
<pdfrwt beam="1">  1       21 0.27901807E-01 0.63948215E+01</pdfrwt>
<pdfrwt beam="2">  1       21 0.35762107E-04 0.63948215E+01</pdfrwt>
<totfact> 0.20959821E+09</totfact>
</mgrwt>
</event>
<event>
 4    1  0.3900819E+006  0.6005006E+01  0.7546771E-02  0.2414772E+00
         21   -1    0    0  503  502  0.00000000000E+00  0.00000000000E+00  0.62469229864E+02  0.62469229864E+02  0.00000000000E+00 0. -1.
         21   -1    0    0  501  503 -0.00000000000E+00 -0.00000000000E+00 -0.94369414690E+00  0.94369414690E+00  0.00000000000E+00 0.  1.
          5    1    1    2  501    0 -0.27722956688E+01 -0.25068856123E+01  0.11004969286E+02  0.12536723963E+02  0.47000000000E+01 0.  1.
         -5    1    1    2    0  502  0.27722956688E+01  0.25068856123E+01  0.50520566432E+02  0.50876200048E+02  0.47000000000E+01 0. -1.
<mgrwt>
<rscale>  2 0.60050061E+01</rscale>
<asrwt>0</asrwt>
<pdfrwt beam="1">  1       21 0.96106475E-02 0.60050061E+01</pdfrwt>
<pdfrwt beam="2">  1       21 0.14518376E-03 0.60050061E+01</pdfrwt>
<totfact> 0.16639531E+09</totfact>
</mgrwt>
</event>
<event>
 4    1  0.3900819E+006  0.1327926E+02  0.7546771E-02  0.1925621E+00
         21   -1    0    0  501  502  0.00000000000E+00  0.00000000000E+00  0.25048959772E+03  0.25048959772E+03  0.00000000000E+00 0. -1.
         21   -1    0    0  502  503 -0.00000000000E+00 -0.00000000000E+00 -0.13867201662E+01  0.13867201662E+01  0.00000000000E+00 0.  1.
          5    1    1    2  501    0 -0.22838914649E+01  0.12207895110E+02  0.21291875632E+03  0.21333245336E+03  0.47000000000E+01 0. -1.
         -5    1    1    2    0  503  0.22838914649E+01 -0.12207895110E+02  0.36184121231E+02  0.38543864525E+02  0.47000000000E+01 0.  1.
<mgrwt>
<rscale>  2 0.13279264E+02</rscale>
<asrwt>0</asrwt>
<pdfrwt beam="1">  1       21 0.38536825E-01 0.13279264E+02</pdfrwt>
<pdfrwt beam="2">  1       21 0.21334176E-03 0.13279264E+02</pdfrwt>
<totfact> 0.15322139E+08</totfact>
</mgrwt>
</event>
<event>
 4    1  0.3900819E+006  0.5137258E+01  0.7546771E-02  0.2543366E+00
         21   -1    0    0  501  502  0.00000000000E+00  0.00000000000E+00  0.90240320659E+02  0.90240320659E+02  0.00000000000E+00 0.  1.
         21   -1    0    0  502  503 -0.00000000000E+00 -0.00000000000E+00 -0.29625363340E+00  0.29625363340E+00  0.00000000000E+00 0.  1.
          5    1    1    2  501    0  0.43551425650E+00  0.20277439605E+01  0.39847450614E+02  0.40177241552E+02  0.47000000000E+01 0. -1.
         -5    1    1    2    0  503 -0.43551425650E+00 -0.20277439605E+01  0.50096616411E+02  0.50359332741E+02  0.47000000000E+01 0. -1.
<mgrwt>
<rscale>  2 0.51372579E+01</rscale>
<asrwt>0</asrwt>
<pdfrwt beam="1">  1       21 0.13883104E-01 0.51372579E+01</pdfrwt>
<pdfrwt beam="2">  1       21 0.45577554E-04 0.51372579E+01</pdfrwt>
<totfact> 0.38630614E+09</totfact>
</mgrwt>
</event>
<event>
 4    1  0.3900819E+006  0.6176974E+01  0.7546771E-02  0.2392944E+00
         21   -1    0    0  503  502  0.00000000000E+00  0.00000000000E+00  0.11598943815E+01  0.11598943815E+01  0.00000000000E+00 0. -1.
         21   -1    0    0  501  503 -0.00000000000E+00 -0.00000000000E+00 -0.63402286850E+02  0.63402286850E+02  0.00000000000E+00 0. -1.
          5    1    1    2  501    0 -0.28396384651E+01  0.28286854820E+01 -0.53513346344E+02  0.53868666635E+02  0.47000000000E+01 0. -1.
         -5    1    1    2    0  502  0.28396384651E+01 -0.28286854820E+01 -0.87290461250E+01  0.10693514596E+02  0.47000000000E+01 0. -1.
<mgrwt>
<rscale>  2 0.61769740E+01</rscale>
<asrwt>0</asrwt>
<pdfrwt beam="1">  1       21 0.17844528E-03 0.61769740E+01</pdfrwt>
<pdfrwt beam="2">  1       21 0.97541986E-02 0.61769740E+01</pdfrwt>
<totfact> 0.12580571E+09</totfact>
</mgrwt>
</event>
<event>
 4    1  0.3900819E+006  0.6903686E+01  0.7546771E-02  0.2310814E+00
         21   -1    0    0  503  502  0.00000000000E+00  0.00000000000E+00  0.13318186100E+03  0.13318186100E+03  0.00000000000E+00 0.  1.
         21   -1    0    0  501  503 -0.00000000000E+00 -0.00000000000E+00 -0.37553581895E+00  0.37553581895E+00  0.00000000000E+00 0. -1.
          5    1    1    2  501    0 -0.26155230677E+01 -0.43278081286E+01  0.80889646410E+02  0.81183716227E+02  0.47000000000E+01 0. -1.
         -5    1    1    2    0  502  0.26155230677E+01  0.43278081286E+01  0.51916678772E+02  0.52373680593E+02  0.47000000000E+01 0.  1.
<mgrwt>
<rscale>  2 0.69036863E+01</rscale>
<asrwt>0</asrwt>
<pdfrwt beam="1">  1       21 0.20489479E-01 0.69036863E+01</pdfrwt>
<pdfrwt beam="2">  1       21 0.57774848E-04 0.69036863E+01</pdfrwt>
<totfact> 0.19432949E+09</totfact>
</mgrwt>
</event>
<event>
 4    1  0.3900819E+006  0.6426639E+01  0.7546771E-02  0.2362997E+00
         21   -1    0    0  501  502  0.00000000000E+00  0.00000000000E+00  0.16080744922E+01  0.16080744922E+01  0.00000000000E+00 0.  1.
         21   -1    0    0  502  503 -0.00000000000E+00 -0.00000000000E+00 -0.64501795073E+02  0.64501795073E+02  0.00000000000E+00 0.  1.
          5    1    1    2  501    0 -0.43333387323E+01  0.65868648121E+00 -0.58040181742E+01  0.86595796327E+01  0.47000000000E+01 0.  1.
         -5    1    1    2    0  503  0.43333387323E+01 -0.65868648121E+00 -0.57089702407E+02  0.57450289933E+02  0.47000000000E+01 0.  1.
<mgrwt>
<rscale>  2 0.64266393E+01</rscale>
<asrwt>0</asrwt>
<pdfrwt beam="1">  1       21 0.24739610E-03 0.64266393E+01</pdfrwt>
<pdfrwt beam="2">  1       21 0.99233521E-02 0.64266393E+01</pdfrwt>
<totfact> 0.80845001E+08</totfact>
</mgrwt>
</event>
<event>
 4    1  0.3900819E+006  0.4962947E+01  0.7546771E-02  0.2573769E+00
         21   -1    0    0  503  502  0.00000000000E+00  0.00000000000E+00  0.56620097326E+00  0.56620097326E+00  0.00000000000E+00 0. -1.
         21   -1    0    0  501  503 -0.00000000000E+00 -0.00000000000E+00 -0.73790231453E+02  0.73790231453E+02  0.00000000000E+00 0. -1.
          5    1    1    2  501    0  0.85159059467E+00  0.13474553440E+01 -0.60431177290E+02  0.60634627327E+02  0.47000000000E+01 0. -1.
         -5    1    1    2    0  502 -0.85159059467E+00 -0.13474553440E+01 -0.12792853190E+02  0.13721805100E+02  0.47000000000E+01 0. -1.
<mgrwt>
<rscale>  2 0.49629470E+01</rscale>
<asrwt>0</asrwt>
<pdfrwt beam="1">  1       21 0.87107874E-04 0.49629470E+01</pdfrwt>
<pdfrwt beam="2">  1       21 0.11352339E-01 0.49629470E+01</pdfrwt>
<totfact> 0.21555038E+09</totfact>
</mgrwt>
</event>
<event>
 4    1  0.3900819E+006  0.7856662E+01  0.7546771E-02  0.2222417E+00
         21   -1    0    0  501  502  0.00000000000E+00  0.00000000000E+00  0.87621395084E+01  0.87621395084E+01  0.00000000000E+00 0.  1.
         21   -1    0    0  502  503 -0.00000000000E+00 -0.00000000000E+00 -0.99650711977E+01  0.99650711977E+01  0.00000000000E+00 0. -1.
          5    1    1    2  501    0 -0.13350214144E+01 -0.61526302300E+01  0.44674806986E+01  0.90380044654E+01  0.47000000000E+01 0.  1.
         -5    1    1    2    0  503  0.13350214144E+01  0.61526302300E+01 -0.56704123879E+01  0.96892062406E+01  0.47000000000E+01 0. -1.
<mgrwt>
<rscale>  2 0.78566622E+01</rscale>
<asrwt>0</asrwt>
<pdfrwt beam="1">  1       21 0.13480215E-02 0.78566622E+01</pdfrwt>
<pdfrwt beam="2">  1       21 0.15330879E-02 0.78566622E+01</pdfrwt>
<totfact> 0.13858041E+09</totfact>
</mgrwt>
</event>
<event>
 4    1  0.3900819E+006  0.4850611E+01  0.7546771E-02  0.2594358E+00
         21   -1    0    0  501  502  0.00000000000E+00  0.00000000000E+00  0.55193873440E+00  0.55193873440E+00  0.00000000000E+00 0. -1.
         21   -1    0    0  502  503 -0.00000000000E+00 -0.00000000000E+00 -0.53144279308E+02  0.53144279308E+02  0.00000000000E+00 0. -1.
          5    1    1    2  501    0  0.54049737742E+00  0.10706502373E+01 -0.38238858517E+02  0.38545281553E+02  0.47000000000E+01 0. -1.
         -5    1    1    2    0  503 -0.54049737742E+00 -0.10706502373E+01 -0.14353482057E+02  0.15150936489E+02  0.47000000000E+01 0. -1.
<mgrwt>
<rscale>  2 0.48506112E+01</rscale>
<asrwt>0</asrwt>
<pdfrwt beam="1">  1       21 0.84913637E-04 0.48506112E+01</pdfrwt>
<pdfrwt beam="2">  1       21 0.81760444E-02 0.48506112E+01</pdfrwt>
<totfact> 0.35736448E+09</totfact>
</mgrwt>
</event>
<event>
 4    1  0.3900819E+006  0.4914692E+01  0.7546771E-02  0.2582513E+00
         21   -1    0    0  501  502  0.00000000000E+00  0.00000000000E+00  0.16035169875E+01  0.16035169875E+01  0.00000000000E+00 0.  1.
         21   -1    0    0  502  503 -0.00000000000E+00 -0.00000000000E+00 -0.23390943130E+02  0.23390943130E+02  0.00000000000E+00 0. -1.
          5    1    1    2  501    0 -0.13620132021E+01 -0.45729605199E+00 -0.34369234424E+01  0.59972195550E+01  0.47000000000E+01 0.  1.
         -5    1    1    2    0  503  0.13620132021E+01  0.45729605199E+00 -0.18350502700E+02  0.18997240562E+02  0.47000000000E+01 0. -1.
<mgrwt>
<rscale>  2 0.49146922E+01</rscale>
<asrwt>0</asrwt>
<pdfrwt beam="1">  1       21 0.24669493E-03 0.49146922E+01</pdfrwt>
<pdfrwt beam="2">  1       21 0.35986065E-02 0.49146922E+01</pdfrwt>
<totfact> 0.29012388E+09</totfact>
</mgrwt>
</event>
<event>
 4    1  0.3900819E+006  0.5061912E+01  0.7546771E-02  0.2556286E+00
         21   -1    0    0  503  502  0.00000000000E+00  0.00000000000E+00  0.31888080267E+03  0.31888080267E+03  0.00000000000E+00 0. -1.
         21   -1    0    0  501  503 -0.00000000000E+00 -0.00000000000E+00 -0.80875221403E-01  0.80875221403E-01  0.00000000000E+00 0. -1.
          5    1    1    2  501    0 -0.18565644091E+01 -0.29347185122E+00  0.17221801417E+03  0.17229238916E+03  0.47000000000E+01 0.  1.
         -5    1    1    2    0  502  0.18565644091E+01  0.29347185122E+00  0.14658191328E+03  0.14666928874E+03  0.47000000000E+01 0.  1.
<mgrwt>
<rscale>  2 0.50619124E+01</rscale>
<asrwt>0</asrwt>
<pdfrwt beam="1">  1       21 0.49057578E-01 0.50619124E+01</pdfrwt>
<pdfrwt beam="2">  1       21 0.12442597E-04 0.50619124E+01</pdfrwt>
<totfact> 0.26712075E+09</totfact>
</mgrwt>
</event>
<event>
 4    1  0.3900819E+006  0.6198641E+01  0.7546771E-02  0.2390266E+00
         21   -1    0    0  501  502  0.00000000000E+00  0.00000000000E+00  0.46620226608E+03  0.46620226608E+03  0.00000000000E+00 0.  1.
         21   -1    0    0  502  503 -0.00000000000E+00 -0.00000000000E+00 -0.12094903966E+00  0.12094903966E+00  0.00000000000E+00 0. -1.
          5    1    1    2  501    0 -0.23663252239E+01  0.32762248998E+01  0.36464341464E+03  0.36469609675E+03  0.47000000000E+01 0.  1.
         -5    1    1    2    0  503  0.23663252239E+01 -0.32762248998E+01  0.10143790240E+03  0.10162711837E+03  0.47000000000E+01 0. -1.
<mgrwt>
<rscale>  2 0.61986405E+01</rscale>
<asrwt>0</asrwt>
<pdfrwt beam="1">  1       21 0.71721987E-01 0.61986405E+01</pdfrwt>
<pdfrwt beam="2">  1       21 0.18607918E-04 0.61986405E+01</pdfrwt>
<totfact> 0.91054164E+08</totfact>
</mgrwt>
</event>
<event>
 4    1  0.3900819E+006  0.5846424E+01  0.7546771E-02  0.2435851E+00
         21   -1    0    0  501  502  0.00000000000E+00  0.00000000000E+00  0.16038768126E+02  0.16038768126E+02  0.00000000000E+00 0. -1.
         21   -1    0    0  502  503 -0.00000000000E+00 -0.00000000000E+00 -0.22483770193E+01  0.22483770193E+01  0.00000000000E+00 0.  1.
          5    1    1    2  501    0  0.17268332483E+01  0.30180662058E+01  0.48071742047E+01  0.75689893992E+01  0.47000000000E+01 0. -1.
         -5    1    1    2    0  503 -0.17268332483E+01 -0.30180662058E+01  0.89832169025E+01  0.10718155747E+02  0.47000000000E+01 0. -1.
<mgrwt>
<rscale>  2 0.58464243E+01</rscale>
<asrwt>0</asrwt>
<pdfrwt beam="1">  1       21 0.24675027E-02 0.58464243E+01</pdfrwt>
<pdfrwt beam="2">  1       21 0.34590417E-03 0.58464243E+01</pdfrwt>
<totfact> 0.37320102E+09</totfact>
</mgrwt>
</event>
<event>
 4    1  0.3900819E+006  0.5361547E+01  0.7546771E-02  0.2506753E+00
         21   -1    0    0  501  502  0.00000000000E+00  0.00000000000E+00  0.19122271324E+00  0.19122271324E+00  0.00000000000E+00 0. -1.
         21   -1    0    0  502  503 -0.00000000000E+00 -0.00000000000E+00 -0.20694083707E+03  0.20694083707E+03  0.00000000000E+00 0. -1.
          5    1    1    2  501    0 -0.22623878201E+01  0.12400752907E+01 -0.49205842242E+02  0.49497081693E+02  0.47000000000E+01 0. -1.
         -5    1    1    2    0  503  0.22623878201E+01 -0.12400752907E+01 -0.15754377212E+03  0.15763497809E+03  0.47000000000E+01 0. -1.
<mgrwt>
<rscale>  2 0.53615469E+01</rscale>
<asrwt>0</asrwt>
<pdfrwt beam="1">  1       21 0.29418924E-04 0.53615469E+01</pdfrwt>
<pdfrwt beam="2">  1       21 0.31837003E-01 0.53615469E+01</pdfrwt>
<totfact> 0.18908666E+09</totfact>
</mgrwt>
</event>
<event>
 4    1  0.3900819E+006  0.8335351E+01  0.7546771E-02  0.2184287E+00
         21   -1    0    0  503  502  0.00000000000E+00  0.00000000000E+00  0.14315588816E+00  0.14315588816E+00  0.00000000000E+00 0. -1.
         21   -1    0    0  501  503 -0.00000000000E+00 -0.00000000000E+00 -0.48958816480E+03  0.48958816480E+03  0.00000000000E+00 0. -1.
          5    1    1    2  501    0  0.68714226154E+01  0.41427868512E+00 -0.22189059205E+03  0.22204709616E+03  0.47000000000E+01 0. -1.
         -5    1    1    2    0  502 -0.68714226154E+01 -0.41427868512E+00 -0.26755441686E+03  0.26768422452E+03  0.47000000000E+01 0. -1.
<mgrwt>
<rscale>  2 0.83353510E+01</rscale>
<asrwt>0</asrwt>
<pdfrwt beam="1">  1       21 0.22023874E-04 0.83353510E+01</pdfrwt>
<pdfrwt beam="2">  1       21 0.75321629E-01 0.83353510E+01</pdfrwt>
<totfact> 0.79343419E+08</totfact>
</mgrwt>
</event>
<event>
 4    1  0.3900819E+006  0.6197558E+01  0.7546771E-02  0.2390399E+00
         21   -1    0    0  503  502  0.00000000000E+00  0.00000000000E+00  0.15546199356E+04  0.15546199356E+04  0.00000000000E+00 0.  1.
         21   -1    0    0  501  503 -0.00000000000E+00 -0.00000000000E+00 -0.29443966558E-01  0.29443966558E-01  0.00000000000E+00 0.  1.
          5    1    1    2  501    0  0.13369865559E+01  0.38121120386E+01  0.10890852827E+04  0.10891029165E+04  0.47000000000E+01 0.  1.
         -5    1    1    2    0  502 -0.13369865559E+01 -0.38121120386E+01  0.46550520891E+03  0.46554646304E+03  0.47000000000E+01 0.  1.
<mgrwt>
<rscale>  2 0.61975585E+01</rscale>
<asrwt>0</asrwt>
<pdfrwt beam="1">  1       21 0.23910657E+00 0.61975585E+01</pdfrwt>
<pdfrwt beam="2">  1       21 0.45310861E-05 0.61975585E+01</pdfrwt>
<totfact> 0.47374040E+08</totfact>
</mgrwt>
</event>
<event>
 4    1  0.3900819E+006  0.4866783E+01  0.7546771E-02  0.2591343E+00
         21   -1    0    0  503  502  0.00000000000E+00  0.00000000000E+00  0.11078867704E+02  0.11078867704E+02  0.00000000000E+00 0. -1.
         21   -1    0    0  501  503 -0.00000000000E+00 -0.00000000000E+00 -0.38250631257E+01  0.38250631257E+01  0.00000000000E+00 0. -1.
          5    1    1    2  501    0  0.85952087553E+00  0.92563264898E+00 -0.13222333884E+01  0.50432006771E+01  0.47000000000E+01 0. -1.
         -5    1    1    2    0  502 -0.85952087553E+00 -0.92563264898E+00  0.85760379668E+01  0.98607301527E+01  0.47000000000E+01 0. -1.
<mgrwt>
<rscale>  2 0.48667825E+01</rscale>
<asrwt>0</asrwt>
<pdfrwt beam="1">  1       21 0.17044412E-02 0.48667825E+01</pdfrwt>
<pdfrwt beam="2">  1       21 0.58847125E-03 0.48667825E+01</pdfrwt>
<totfact> 0.25462033E+09</totfact>
</mgrwt>
</event>
<event>
 4    1  0.3900819E+006  0.1344713E+02  0.7546771E-02  0.1919518E+00
         21   -1    0    0  503  502  0.00000000000E+00  0.00000000000E+00  0.17516108993E+01  0.17516108993E+01  0.00000000000E+00 0. -1.
         21   -1    0    0  501  503 -0.00000000000E+00 -0.00000000000E+00 -0.10602353989E+03  0.10602353989E+03  0.00000000000E+00 0.  1.
          5    1    1    2  501    0  0.10925324604E+02 -0.62747537799E+01 -0.43394623061E+02  0.45430370495E+02  0.47000000000E+01 0.  1.
         -5    1    1    2    0  502 -0.10925324604E+02  0.62747537799E+01 -0.60877305927E+02  0.62344780292E+02  0.47000000000E+01 0. -1.
<mgrwt>
<rscale>  2 0.13447128E+02</rscale>
<asrwt>0</asrwt>
<pdfrwt beam="1">  1       21 0.26947855E-03 0.13447128E+02</pdfrwt>
<pdfrwt beam="2">  1       21 0.16311317E-01 0.13447128E+02</pdfrwt>
<totfact> 0.49388340E+08</totfact>
</mgrwt>
</event>
<event>
 4    1  0.3900819E+006  0.5261878E+01  0.7546771E-02  0.2522693E+00
         21   -1    0    0  503  502  0.00000000000E+00  0.00000000000E+00  0.16705817453E+02  0.16705817453E+02  0.00000000000E+00 0. -1.
         21   -1    0    0  501  503 -0.00000000000E+00 -0.00000000000E+00 -0.63238782366E+01  0.63238782366E+01  0.00000000000E+00 0. -1.
          5    1    1    2  501    0 -0.83126686112E+00 -0.22150299231E+01 -0.47005603582E+01  0.70556806784E+01  0.47000000000E+01 0. -1.
         -5    1    1    2    0  502  0.83126686112E+00  0.22150299231E+01  0.15082499575E+02  0.15974015011E+02  0.47000000000E+01 0. -1.
<mgrwt>
<rscale>  2 0.52618782E+01</rscale>
<asrwt>0</asrwt>
<pdfrwt beam="1">  1       21 0.25701257E-02 0.52618782E+01</pdfrwt>
<pdfrwt beam="2">  1       21 0.97290435E-03 0.52618782E+01</pdfrwt>
<totfact> 0.76282575E+08</totfact>
</mgrwt>
</event>
<event>
 4    1  0.3900819E+006  0.4784188E+01  0.7546771E-02  0.2606924E+00
         21   -1    0    0  501  502  0.00000000000E+00  0.00000000000E+00  0.37408794552E+01  0.37408794552E+01  0.00000000000E+00 0. -1.
         21   -1    0    0  502  503 -0.00000000000E+00 -0.00000000000E+00 -0.11684623940E+02  0.11684623940E+02  0.00000000000E+00 0. -1.
          5    1    1    2  501    0  0.77339168315E+00  0.44756996827E+00  0.13514118055E+01  0.49713949189E+01  0.47000000000E+01 0. -1.
         -5    1    1    2    0  503 -0.77339168315E+00 -0.44756996827E+00 -0.92951562902E+01  0.10454108476E+02  0.47000000000E+01 0. -1.
<mgrwt>
<rscale>  2 0.47841879E+01</rscale>
<asrwt>0</asrwt>
<pdfrwt beam="1">  1       21 0.57551992E-03 0.47841879E+01</pdfrwt>
<pdfrwt beam="2">  1       21 0.17976344E-02 0.47841879E+01</pdfrwt>
<totfact> 0.23926595E+09</totfact>
</mgrwt>
</event>
<event>
 4    1  0.3900819E+006  0.5438662E+01  0.7546771E-02  0.2494762E+00
         21   -1    0    0  503  502  0.00000000000E+00  0.00000000000E+00  0.92427866504E+01  0.92427866504E+01  0.00000000000E+00 0.  1.
         21   -1    0    0  501  503 -0.00000000000E+00 -0.00000000000E+00 -0.11135347082E+02  0.11135347082E+02  0.00000000000E+00 0.  1.
          5    1    1    2  501    0 -0.26303918173E+01 -0.75503836782E+00 -0.95474832612E+01  0.10987878807E+02  0.47000000000E+01 0.  1.
         -5    1    1    2    0  502  0.26303918173E+01  0.75503836782E+00  0.76549228293E+01  0.93902549258E+01  0.47000000000E+01 0.  1.
<mgrwt>
<rscale>  2 0.54386620E+01</rscale>
<asrwt>0</asrwt>
<pdfrwt beam="1">  1       21 0.14219672E-02 0.54386620E+01</pdfrwt>
<pdfrwt beam="2">  1       21 0.17131303E-02 0.54386620E+01</pdfrwt>
<totfact> 0.82223667E+08</totfact>
</mgrwt>
</event>
<event>
 4    1  0.3900819E+006  0.4750000E+01  0.7546771E-02  0.2613511E+00
         21   -1    0    0  501  502  0.00000000000E+00  0.00000000000E+00  0.73218443314E+01  0.73218443314E+01  0.00000000000E+00 0. -1.
         21   -1    0    0  502  503 -0.00000000000E+00 -0.00000000000E+00 -0.82661514822E+01  0.82661514822E+01  0.00000000000E+00 0. -1.
          5    1    1    2  501    0 -0.68299314470E+00  0.77589568312E-01  0.57004308156E+01  0.74200681439E+01  0.47000000000E+01 0. -1.
         -5    1    1    2    0  503  0.68299314470E+00 -0.77589568312E-01 -0.66447379664E+01  0.81679276698E+01  0.47000000000E+01 0. -1.
<mgrwt>
<rscale>  2 0.47500000E+01</rscale>
<asrwt>0</asrwt>
<pdfrwt beam="1">  1       21 0.11264376E-02 0.47500000E+01</pdfrwt>
<pdfrwt beam="2">  1       21 0.12717156E-02 0.47500000E+01</pdfrwt>
<totfact> 0.15245981E+09</totfact>
</mgrwt>
</event>
<event>
 4    1  0.3900819E+006  0.9427549E+01  0.7546771E-02  0.2109109E+00
         21   -1    0    0  503  502  0.00000000000E+00  0.00000000000E+00  0.31120079579E+00  0.31120079579E+00  0.00000000000E+00 0. -1.
         21   -1    0    0  501  503 -0.00000000000E+00 -0.00000000000E+00 -0.28567244015E+03  0.28567244015E+03  0.00000000000E+00 0. -1.
          5    1    1    2  501    0 -0.52288726806E+01  0.62807302265E+01 -0.14497101274E+03  0.14527722883E+03  0.47000000000E+01 0. -1.
         -5    1    1    2    0  502  0.52288726806E+01 -0.62807302265E+01 -0.14039022662E+03  0.14070641212E+03  0.47000000000E+01 0. -1.
<mgrwt>
<rscale>  2 0.94275491E+01</rscale>
<asrwt>0</asrwt>
<pdfrwt beam="1">  1       21 0.47877146E-04 0.94275491E+01</pdfrwt>
<pdfrwt beam="2">  1       21 0.43949514E-01 0.94275491E+01</pdfrwt>
<totfact> 0.82014155E+08</totfact>
</mgrwt>
</event>
<event>
 4    1  0.3900819E+006  0.7997798E+01  0.7546771E-02  0.2210793E+00
         21   -1    0    0  503  502  0.00000000000E+00  0.00000000000E+00  0.81556526182E+01  0.81556526182E+01  0.00000000000E+00 0.  1.
         21   -1    0    0  501  503 -0.00000000000E+00 -0.00000000000E+00 -0.93664617766E+01  0.93664617766E+01  0.00000000000E+00 0.  1.
          5    1    1    2  501    0  0.23185322600E+01  0.60414547770E+01 -0.41387393787E+01  0.90052168940E+01  0.47000000000E+01 0.  1.
         -5    1    1    2    0  502 -0.23185322600E+01 -0.60414547770E+01  0.29279302202E+01  0.85168975007E+01  0.47000000000E+01 0.  1.
<mgrwt>
<rscale>  2 0.79977977E+01</rscale>
<asrwt>0</asrwt>
<pdfrwt beam="1">  1       21 0.12547158E-02 0.79977977E+01</pdfrwt>
<pdfrwt beam="2">  1       21 0.14409941E-02 0.79977977E+01</pdfrwt>
<totfact> 0.17023370E+09</totfact>
</mgrwt>
</event>
<event>
 4    1  0.3900819E+006  0.5190182E+01  0.7546771E-02  0.2534483E+00
         21   -1    0    0  503  502  0.00000000000E+00  0.00000000000E+00  0.18186666971E+00  0.18186666971E+00  0.00000000000E+00 0.  1.
         21   -1    0    0  501  503 -0.00000000000E+00 -0.00000000000E+00 -0.15439035755E+03  0.15439035755E+03  0.00000000000E+00 0.  1.
          5    1    1    2  501    0  0.18993278214E+01  0.11137965185E+01 -0.92680283459E+02  0.92825497202E+02  0.47000000000E+01 0. -1.
         -5    1    1    2    0  502 -0.18993278214E+01 -0.11137965185E+01 -0.61528207425E+02  0.61746727021E+02  0.47000000000E+01 0. -1.
<mgrwt>
<rscale>  2 0.51901820E+01</rscale>
<asrwt>0</asrwt>
<pdfrwt beam="1">  1       21 0.27979451E-04 0.51901820E+01</pdfrwt>
<pdfrwt beam="2">  1       21 0.23752394E-01 0.51901820E+01</pdfrwt>
<totfact> 0.31839958E+09</totfact>
</mgrwt>
</event>
<event>
 4    1  0.3900819E+006  0.5144089E+01  0.7546771E-02  0.2542210E+00
         21   -1    0    0  503  502  0.00000000000E+00  0.00000000000E+00  0.94021474215E+01  0.94021474215E+01  0.00000000000E+00 0. -1.
         21   -1    0    0  501  503 -0.00000000000E+00 -0.00000000000E+00 -0.15666654755E+02  0.15666654755E+02  0.00000000000E+00 0. -1.
          5    1    1    2  501    0  0.11483637705E+01  0.17472580542E+01 -0.14485097690E+02  0.15371392427E+02  0.47000000000E+01 0. -1.
         -5    1    1    2    0  502 -0.11483637705E+01 -0.17472580542E+01  0.82205903560E+01  0.96974097499E+01  0.47000000000E+01 0. -1.
<mgrwt>
<rscale>  2 0.51440888E+01</rscale>
<asrwt>0</asrwt>
<pdfrwt beam="1">  1       21 0.14464842E-02 0.51440888E+01</pdfrwt>
<pdfrwt beam="2">  1       21 0.24102545E-02 0.51440888E+01</pdfrwt>
<totfact> 0.46958163E+08</totfact>
</mgrwt>
</event>
<event>
 4    1  0.3900819E+006  0.6684866E+01  0.7546771E-02  0.2333987E+00
         21   -1    0    0  501  502  0.00000000000E+00  0.00000000000E+00  0.14466642446E+04  0.14466642446E+04  0.00000000000E+00 0.  1.
         21   -1    0    0  502  503 -0.00000000000E+00 -0.00000000000E+00 -0.45331844234E-01  0.45331844234E-01  0.00000000000E+00 0. -1.
          5    1    1    2  501    0  0.83442246769E+00  0.46798695166E+01  0.11315923575E+04  0.11316121027E+04  0.47000000000E+01 0.  1.
         -5    1    1    2    0  503 -0.83442246769E+00 -0.46798695166E+01  0.31502655522E+03  0.31509747370E+03  0.47000000000E+01 0. -1.
<mgrwt>
<rscale>  2 0.66848665E+01</rscale>
<asrwt>0</asrwt>
<pdfrwt beam="1">  1       21 0.22252676E+00 0.66848665E+01</pdfrwt>
<pdfrwt beam="2">  1       21 0.69752885E-05 0.66848665E+01</pdfrwt>
<totfact> 0.32459196E+08</totfact>
</mgrwt>
</event>
<event>
 4    1  0.3900819E+006  0.5104743E+01  0.7546771E-02  0.2548901E+00
         21   -1    0    0  503  502  0.00000000000E+00  0.00000000000E+00  0.27316724306E+00  0.27316724306E+00  0.00000000000E+00 0. -1.
         21   -1    0    0  501  503 -0.00000000000E+00 -0.00000000000E+00 -0.95440046125E+02  0.95440046125E+02  0.00000000000E+00 0.  1.
          5    1    1    2  501    0 -0.52449531239E+00 -0.19217970848E+01 -0.48639471443E+02  0.48906610818E+02  0.47000000000E+01 0.  1.
         -5    1    1    2    0  502  0.52449531239E+00  0.19217970848E+01 -0.46527407439E+02  0.46806602551E+02  0.47000000000E+01 0.  1.
<mgrwt>
<rscale>  2 0.51047428E+01</rscale>
<asrwt>0</asrwt>
<pdfrwt beam="1">  1       21 0.42025655E-04 0.51047428E+01</pdfrwt>
<pdfrwt beam="2">  1       21 0.14683110E-01 0.51047428E+01</pdfrwt>
<totfact> 0.39194107E+09</totfact>
</mgrwt>
</event>
<event>
 4    1  0.3900819E+006  0.6466058E+01  0.7546771E-02  0.2358444E+00
         21   -1    0    0  501  502  0.00000000000E+00  0.00000000000E+00  0.11905637266E+01  0.11905637266E+01  0.00000000000E+00 0.  1.
         21   -1    0    0  502  503 -0.00000000000E+00 -0.00000000000E+00 -0.35129081875E+02  0.35129081875E+02  0.00000000000E+00 0. -1.
          5    1    1    2  501    0 -0.36534386252E+01  0.25243397559E+01 -0.16642927235E+02  0.17854885380E+02  0.47000000000E+01 0.  1.
         -5    1    1    2    0  503  0.36534386252E+01 -0.25243397559E+01 -0.17295590913E+02  0.18464760221E+02  0.47000000000E+01 0. -1.
<mgrwt>
<rscale>  2 0.64660579E+01</rscale>
<asrwt>0</asrwt>
<pdfrwt beam="1">  1       21 0.18316364E-03 0.64660579E+01</pdfrwt>
<pdfrwt beam="2">  1       21 0.54044743E-02 0.64660579E+01</pdfrwt>
<totfact> 0.30822161E+09</totfact>
</mgrwt>
</event>
<event>
 4    1  0.3900819E+006  0.6003665E+01  0.7546771E-02  0.2414947E+00
         21   -1    0    0  501  502  0.00000000000E+00  0.00000000000E+00  0.16780618857E+03  0.16780618857E+03  0.00000000000E+00 0.  1.
         21   -1    0    0  502  503 -0.00000000000E+00 -0.00000000000E+00 -0.30442116494E+00  0.30442116494E+00  0.00000000000E+00 0. -1.
          5    1    1    2  501    0  0.28699248337E+01  0.23911352649E+01  0.12935921239E+03  0.12949845492E+03  0.47000000000E+01 0.  1.
         -5    1    1    2    0  503 -0.28699248337E+01 -0.23911352649E+01  0.38142555015E+02  0.38612154816E+02  0.47000000000E+01 0. -1.
<mgrwt>
<rscale>  2 0.60036652E+01</rscale>
<asrwt>0</asrwt>
<pdfrwt beam="1">  1       21 0.25816263E-01 0.60036652E+01</pdfrwt>
<pdfrwt beam="2">  1       21 0.46834160E-04 0.60036652E+01</pdfrwt>
<totfact> 0.15835327E+09</totfact>
</mgrwt>
</event>
<event>
 4    1  0.3900819E+006  0.1398009E+02  0.7546771E-02  0.1900886E+00
         21   -1    0    0  501  502  0.00000000000E+00  0.00000000000E+00  0.14414477272E+03  0.14414477272E+03  0.00000000000E+00 0.  1.
         21   -1    0    0  502  503 -0.00000000000E+00 -0.00000000000E+00 -0.20441649589E+01  0.20441649589E+01  0.00000000000E+00 0. -1.
          5    1    1    2  501    0 -0.31151318332E+01  0.12792533478E+02  0.11346445754E+03  0.11432246535E+03  0.47000000000E+01 0.  1.
         -5    1    1    2    0  503  0.31151318332E+01 -0.12792533478E+02  0.28636150220E+02  0.31866472326E+02  0.47000000000E+01 0. -1.
<mgrwt>
<rscale>  2 0.13980092E+02</rscale>
<asrwt>0</asrwt>
<pdfrwt beam="1">  1       21 0.22176111E-01 0.13980092E+02</pdfrwt>
<pdfrwt beam="2">  1       21 0.31448703E-03 0.13980092E+02</pdfrwt>
<totfact> 0.23922160E+08</totfact>
</mgrwt>
</event>
<event>
 4    1  0.3900819E+006  0.4756736E+01  0.7546771E-02  0.2612206E+00
         21   -1    0    0  501  502  0.00000000000E+00  0.00000000000E+00  0.14686816892E+03  0.14686816892E+03  0.00000000000E+00 0. -1.
         21   -1    0    0  502  503 -0.00000000000E+00 -0.00000000000E+00 -0.15454993033E+00  0.15454993033E+00  0.00000000000E+00 0.  1.
          5    1    1    2  501    0 -0.69120465754E+00  0.24243978549E+00  0.77494844587E+02  0.77640694732E+02  0.47000000000E+01 0. -1.
         -5    1    1    2    0  503  0.69120465754E+00 -0.24243978549E+00  0.69218774401E+02  0.69382024116E+02  0.47000000000E+01 0.  1.
<mgrwt>
<rscale>  2 0.47567364E+01</rscale>
<asrwt>0</asrwt>
<pdfrwt beam="1">  1       21 0.22594991E-01 0.47567364E+01</pdfrwt>
<pdfrwt beam="2">  1       21 0.23777030E-04 0.47567364E+01</pdfrwt>
<totfact> 0.39366624E+09</totfact>
</mgrwt>
</event>
<event>
 4    1  0.3900819E+006  0.5444786E+01  0.7546771E-02  0.2493822E+00
         21   -1    0    0  501  502  0.00000000000E+00  0.00000000000E+00  0.13036743426E+00  0.13036743426E+00  0.00000000000E+00 0. -1.
         21   -1    0    0  502  503 -0.00000000000E+00 -0.00000000000E+00 -0.31220299567E+04  0.31220299567E+04  0.00000000000E+00 0. -1.
          5    1    1    2  501    0 -0.22020356440E+01  0.16452151761E+01 -0.57797037392E+02  0.58052934682E+02  0.47000000000E+01 0. -1.
         -5    1    1    2    0  503  0.22020356440E+01 -0.16452151761E+01 -0.30641025519E+04  0.30641073895E+04  0.47000000000E+01 0. -1.
<mgrwt>
<rscale>  2 0.54447859E+01</rscale>
<asrwt>0</asrwt>
<pdfrwt beam="1">  1       21 0.20055589E-04 0.54447859E+01</pdfrwt>
<pdfrwt beam="2">  1       21 0.48033481E+00 0.54447859E+01</pdfrwt>
<totfact> 0.56330687E+06</totfact>
</mgrwt>
</event>
<event>
 4    1  0.3900819E+006  0.6396922E+01  0.7546771E-02  0.2366459E+00
         21   -1    0    0  501  502  0.00000000000E+00  0.00000000000E+00  0.14980990465E+03  0.14980990465E+03  0.00000000000E+00 0.  1.
         21   -1    0    0  502  503 -0.00000000000E+00 -0.00000000000E+00 -0.27851204494E+00  0.27851204494E+00  0.00000000000E+00 0. -1.
          5    1    1    2  501    0 -0.34201342428E+01 -0.26708231731E+01  0.85178071668E+02  0.85417940199E+02  0.47000000000E+01 0. -1.
         -5    1    1    2    0  503  0.34201342428E+01  0.26708231731E+01  0.64353320938E+02  0.64670476498E+02  0.47000000000E+01 0. -1.
<mgrwt>
<rscale>  2 0.63969223E+01</rscale>
<asrwt>0</asrwt>
<pdfrwt beam="1">  1       21 0.23047613E-01 0.63969223E+01</pdfrwt>
<pdfrwt beam="2">  1       21 0.42848127E-04 0.63969223E+01</pdfrwt>
<totfact> 0.22603731E+09</totfact>
</mgrwt>
</event>
<event>
 4    1  0.3900819E+006  0.9565567E+01  0.7546771E-02  0.2100589E+00
         21   -1    0    0  501  502  0.00000000000E+00  0.00000000000E+00  0.57095461044E+01  0.57095461044E+01  0.00000000000E+00 0. -1.
         21   -1    0    0  502  503 -0.00000000000E+00 -0.00000000000E+00 -0.18370276631E+02  0.18370276631E+02  0.00000000000E+00 0. -1.
          5    1    1    2  501    0  0.57672032099E+01  0.60124396006E+01 -0.20291805862E+01  0.97784271059E+01  0.47000000000E+01 0. -1.
         -5    1    1    2    0  503 -0.57672032099E+01 -0.60124396006E+01 -0.10631549941E+02  0.14301395630E+02  0.47000000000E+01 0. -1.
<mgrwt>
<rscale>  2 0.95655665E+01</rscale>
<asrwt>0</asrwt>
<pdfrwt beam="1">  1       21 0.87839171E-03 0.95655665E+01</pdfrwt>
<pdfrwt beam="2">  1       21 0.28261964E-02 0.95655665E+01</pdfrwt>
<totfact> 0.11900867E+09</totfact>
</mgrwt>
</event>
<event>
 4    1  0.3900819E+006  0.5490155E+01  0.7546771E-02  0.2486915E+00
         21   -1    0    0  501  502  0.00000000000E+00  0.00000000000E+00  0.57427117643E+00  0.57427117643E+00  0.00000000000E+00 0. -1.
         21   -1    0    0  502  503 -0.00000000000E+00 -0.00000000000E+00 -0.56563877472E+02  0.56563877472E+02  0.00000000000E+00 0.  1.
          5    1    1    2  501    0  0.20594910998E+01  0.19519986825E+01 -0.20324941722E+02  0.21053385914E+02  0.47000000000E+01 0. -1.
         -5    1    1    2    0  503 -0.20594910998E+01 -0.19519986825E+01 -0.35664664573E+02  0.36084762734E+02  0.47000000000E+01 0.  1.
<mgrwt>
<rscale>  2 0.54901550E+01</rscale>
<asrwt>0</asrwt>
<pdfrwt beam="1">  1       21 0.88349383E-04 0.54901550E+01</pdfrwt>
<pdfrwt beam="2">  1       21 0.87021378E-02 0.54901550E+01</pdfrwt>
<totfact> 0.34883495E+09</totfact>
</mgrwt>
</event>
<event>
 4    1  0.3900819E+006  0.8613856E+01  0.7546771E-02  0.2163680E+00
         21   -1    0    0  503  502  0.00000000000E+00  0.00000000000E+00  0.48833300703E+01  0.48833300703E+01  0.00000000000E+00 0.  1.
         21   -1    0    0  501  503 -0.00000000000E+00 -0.00000000000E+00 -0.28194979963E+02  0.28194979963E+02  0.00000000000E+00 0. -1.
          5    1    1    2  501    0 -0.47771333740E+01  0.54117936249E+01 -0.42500732036E+00  0.86243344517E+01  0.47000000000E+01 0.  1.
         -5    1    1    2    0  502  0.47771333740E+01 -0.54117936249E+01 -0.22886642572E+02  0.24453975582E+02  0.47000000000E+01 0. -1.
<mgrwt>
<rscale>  2 0.86138559E+01</rscale>
<asrwt>0</asrwt>
<pdfrwt beam="1">  1       21 0.75128156E-03 0.86138559E+01</pdfrwt>
<pdfrwt beam="2">  1       21 0.43376891E-02 0.86138559E+01</pdfrwt>
<totfact> 0.73390931E+08</totfact>
</mgrwt>
</event>
<event>
 4    1  0.3900819E+006  0.5563923E+01  0.7546771E-02  0.2475889E+00
         21   -1    0    0  503  502  0.00000000000E+00  0.00000000000E+00  0.79263829291E+02  0.79263829291E+02  0.00000000000E+00 0. -1.
         21   -1    0    0  501  503 -0.00000000000E+00 -0.00000000000E+00 -0.40765194804E+00  0.40765194804E+00  0.00000000000E+00 0. -1.
          5    1    1    2  501    0 -0.76478046186E+00 -0.28779074762E+01  0.31271089474E+02  0.31762214618E+02  0.47000000000E+01 0. -1.
         -5    1    1    2    0  502  0.76478046186E+00  0.28779074762E+01  0.47585087869E+02  0.47909266621E+02  0.47000000000E+01 0. -1.
<mgrwt>
<rscale>  2 0.55639231E+01</rscale>
<asrwt>0</asrwt>
<pdfrwt beam="1">  1       21 0.12194423E-01 0.55639231E+01</pdfrwt>
<pdfrwt beam="2">  1       21 0.62715747E-04 0.55639231E+01</pdfrwt>
<totfact> 0.33297920E+09</totfact>
</mgrwt>
</event>
<event>
 4    1  0.3900819E+006  0.5248486E+01  0.7546771E-02  0.2524875E+00
         21   -1    0    0  503  502  0.00000000000E+00  0.00000000000E+00  0.19202450840E+01  0.19202450840E+01  0.00000000000E+00 0.  1.
         21   -1    0    0  501  503 -0.00000000000E+00 -0.00000000000E+00 -0.12669529993E+03  0.12669529993E+03  0.00000000000E+00 0.  1.
          5    1    1    2  501    0  0.39335172265E+00  0.23025806002E+01 -0.12294526492E+03  0.12305724184E+03  0.47000000000E+01 0.  1.
         -5    1    1    2    0  502 -0.39335172265E+00 -0.23025806002E+01 -0.18297899256E+01  0.55583031736E+01  0.47000000000E+01 0.  1.
<mgrwt>
<rscale>  2 0.52484858E+01</rscale>
<asrwt>0</asrwt>
<pdfrwt beam="1">  1       21 0.29542225E-03 0.52484858E+01</pdfrwt>
<pdfrwt beam="2">  1       21 0.19491589E-01 0.52484858E+01</pdfrwt>
<totfact> 0.18940905E+08</totfact>
</mgrwt>
</event>
<event>
 4    1  0.3900819E+006  0.1155604E+02  0.7546771E-02  0.1995934E+00
         21   -1    0    0  501  502  0.00000000000E+00  0.00000000000E+00  0.13302807684E+02  0.13302807684E+02  0.00000000000E+00 0. -1.
         21   -1    0    0  502  503 -0.00000000000E+00 -0.00000000000E+00 -0.13476807261E+02  0.13476807261E+02  0.00000000000E+00 0.  1.
          5    1    1    2  501    0 -0.47237659748E+01 -0.94413009911E+01  0.66760747176E+01  0.13345864641E+02  0.47000000000E+01 0. -1.
         -5    1    1    2    0  503  0.47237659748E+01  0.94413009911E+01 -0.68500742949E+01  0.13433750304E+02  0.47000000000E+01 0.  1.
<mgrwt>
<rscale>  2 0.11556043E+02</rscale>
<asrwt>0</asrwt>
<pdfrwt beam="1">  1       21 0.20465858E-02 0.11556043E+02</pdfrwt>
<pdfrwt beam="2">  1       21 0.20733550E-02 0.11556043E+02</pdfrwt>
<totfact> 0.60781969E+08</totfact>
</mgrwt>
</event>
<event>
 4    1  0.3900819E+006  0.6779652E+01  0.7546771E-02  0.2323798E+00
         21   -1    0    0  501  502  0.00000000000E+00  0.00000000000E+00  0.59663875031E+02  0.59663875031E+02  0.00000000000E+00 0.  1.
         21   -1    0    0  502  503 -0.00000000000E+00 -0.00000000000E+00 -0.11501861664E+01  0.11501861664E+01  0.00000000000E+00 0.  1.
          5    1    1    2  501    0 -0.48545207718E+01 -0.55435682198E+00  0.46730050600E+02  0.47219289623E+02  0.47000000000E+01 0.  1.
         -5    1    1    2    0  503  0.48545207718E+01  0.55435682198E+00  0.11783638264E+02  0.13594771574E+02  0.47000000000E+01 0.  1.
<mgrwt>
<rscale>  2 0.67796522E+01</rscale>
<asrwt>0</asrwt>
<pdfrwt beam="1">  1       21 0.91790553E-02 0.67796522E+01</pdfrwt>
<pdfrwt beam="2">  1       21 0.17695176E-03 0.67796522E+01</pdfrwt>
<totfact> 0.15014796E+09</totfact>
</mgrwt>
</event>
<event>
 4    1  0.3900819E+006  0.4876015E+01  0.7546771E-02  0.2589630E+00
         21   -1    0    0  501  502  0.00000000000E+00  0.00000000000E+00  0.47454482109E+01  0.47454482109E+01  0.00000000000E+00 0.  1.
         21   -1    0    0  502  503 -0.00000000000E+00 -0.00000000000E+00 -0.66246729539E+02  0.66246729539E+02  0.00000000000E+00 0.  1.
          5    1    1    2  501    0  0.12394070423E+01  0.38651446608E+00  0.33767950533E+01  0.59311270498E+01  0.47000000000E+01 0.  1.
         -5    1    1    2    0  503 -0.12394070423E+01 -0.38651446608E+00 -0.64878076382E+02  0.65061050701E+02  0.47000000000E+01 0.  1.
<mgrwt>
<rscale>  2 0.48760151E+01</rscale>
<asrwt>0</asrwt>
<pdfrwt beam="1">  1       21 0.73006897E-03 0.48760151E+01</pdfrwt>
<pdfrwt beam="2">  1       21 0.10191804E-01 0.48760151E+01</pdfrwt>
<totfact> 0.14109131E+08</totfact>
</mgrwt>
</event>
<event>
 4    1  0.3900819E+006  0.9360186E+01  0.7546771E-02  0.2113340E+00
         21   -1    0    0  501  502  0.00000000000E+00  0.00000000000E+00  0.32781762653E+03  0.32781762653E+03  0.00000000000E+00 0. -1.
         21   -1    0    0  502  503 -0.00000000000E+00 -0.00000000000E+00 -0.27291164670E+00  0.27291164670E+00  0.00000000000E+00 0.  1.
          5    1    1    2  501    0 -0.43125022486E+00  0.80831375481E+01  0.14016889880E+03  0.14048107801E+03  0.47000000000E+01 0.  1.
         -5    1    1    2    0  503  0.43125022486E+00 -0.80831375481E+01  0.18737581609E+03  0.18760946017E+03  0.47000000000E+01 0. -1.
<mgrwt>
<rscale>  2 0.93601864E+01</rscale>
<asrwt>0</asrwt>
<pdfrwt beam="1">  1       21 0.50433166E-01 0.93601864E+01</pdfrwt>
<pdfrwt beam="2">  1       21 0.41986669E-04 0.93601864E+01</pdfrwt>
<totfact> 0.75847165E+08</totfact>
</mgrwt>
</event>
<event>
 4    1  0.3900819E+006  0.1153733E+02  0.7546771E-02  0.1996785E+00
         21   -1    0    0  503  502  0.00000000000E+00  0.00000000000E+00  0.37330708687E+01  0.37330708687E+01  0.00000000000E+00 0. -1.
         21   -1    0    0  501  503 -0.00000000000E+00 -0.00000000000E+00 -0.35744713210E+02  0.35744713210E+02  0.00000000000E+00 0.  1.
          5    1    1    2  501    0 -0.10502851847E+02  0.84260572540E+00 -0.16983957992E+02  0.20532041068E+02  0.47000000000E+01 0.  1.
         -5    1    1    2    0  502  0.10502851847E+02 -0.84260572540E+00 -0.15027684349E+02  0.18945743011E+02  0.47000000000E+01 0. -1.
<mgrwt>
<rscale>  2 0.11537326E+02</rscale>
<asrwt>0</asrwt>
<pdfrwt beam="1">  1       21 0.57431859E-03 0.11537326E+02</pdfrwt>
<pdfrwt beam="2">  1       21 0.54991867E-02 0.11537326E+02</pdfrwt>
<totfact> 0.88794207E+08</totfact>
</mgrwt>
</event>
<event>
 4    1  0.3900819E+006  0.8687101E+01  0.7546771E-02  0.2158436E+00
         21   -1    0    0  501  502  0.00000000000E+00  0.00000000000E+00  0.10168238488E+03  0.10168238488E+03  0.00000000000E+00 0. -1.
         21   -1    0    0  502  503 -0.00000000000E+00 -0.00000000000E+00 -0.17050396877E+01  0.17050396877E+01  0.00000000000E+00 0.  1.
          5    1    1    2  501    0 -0.73016255108E+01  0.24895926507E+00  0.88835361728E+02  0.89259101548E+02  0.47000000000E+01 0. -1.
         -5    1    1    2    0  503  0.73016255108E+01 -0.24895926507E+00  0.11141983462E+02  0.14128323018E+02  0.47000000000E+01 0.  1.
<mgrwt>
<rscale>  2 0.86871005E+01</rscale>
<asrwt>0</asrwt>
<pdfrwt beam="1">  1       21 0.15643439E-01 0.86871005E+01</pdfrwt>
<pdfrwt beam="2">  1       21 0.26231388E-03 0.86871005E+01</pdfrwt>
<totfact> 0.44145784E+08</totfact>
</mgrwt>
</event>
<event>
 4    1  0.3900819E+006  0.7484431E+01  0.7546771E-02  0.2254760E+00
         21   -1    0    0  503  502  0.00000000000E+00  0.00000000000E+00  0.20024165430E+03  0.20024165430E+03  0.00000000000E+00 0. -1.
         21   -1    0    0  501  503 -0.00000000000E+00 -0.00000000000E+00 -0.23123889209E+01  0.23123889209E+01  0.00000000000E+00 0. -1.
          5    1    1    2  501    0 -0.45162915961E+01 -0.36782898299E+01  0.40111106941E+01  0.84915083969E+01  0.47000000000E+01 0. -1.
         -5    1    1    2    0  502  0.45162915961E+01  0.36782898299E+01  0.19391815469E+03  0.19406253483E+03  0.47000000000E+01 0. -1.
<mgrwt>
<rscale>  2 0.74844309E+01</rscale>
<asrwt>0</asrwt>
<pdfrwt beam="1">  1       21 0.30806395E-01 0.74844309E+01</pdfrwt>
<pdfrwt beam="2">  1       21 0.35575230E-03 0.74844309E+01</pdfrwt>
<totfact> 0.85975066E+07</totfact>
</mgrwt>
</event>
<event>
 4    1  0.3900819E+006  0.5977494E+01  0.7546771E-02  0.2418362E+00
         21   -1    0    0  503  502  0.00000000000E+00  0.00000000000E+00  0.33791592993E+02  0.33791592993E+02  0.00000000000E+00 0.  1.
         21   -1    0    0  501  503 -0.00000000000E+00 -0.00000000000E+00 -0.11690617667E+01  0.11690617667E+01  0.00000000000E+00 0.  1.
          5    1    1    2  501    0  0.36921043532E+01 -0.93811393190E-01  0.10908341784E+02  0.12438744133E+02  0.47000000000E+01 0.  1.
         -5    1    1    2    0  502 -0.36921043532E+01  0.93811393190E-01  0.21714189443E+02  0.22521910627E+02  0.47000000000E+01 0.  1.
<mgrwt>
<rscale>  2 0.59774941E+01</rscale>
<asrwt>0</asrwt>
<pdfrwt beam="1">  1       21 0.51987059E-02 0.59774941E+01</pdfrwt>
<pdfrwt beam="2">  1       21 0.17985568E-03 0.59774941E+01</pdfrwt>
<totfact> 0.31295185E+09</totfact>
</mgrwt>
</event>
<event>
 4    1  0.3900819E+006  0.6441147E+01  0.7546771E-02  0.2361316E+00
         21   -1    0    0  503  502  0.00000000000E+00  0.00000000000E+00  0.13615005807E+04  0.13615005807E+04  0.00000000000E+00 0. -1.
         21   -1    0    0  501  503 -0.00000000000E+00 -0.00000000000E+00 -0.31132536742E-01  0.31132536742E-01  0.00000000000E+00 0.  1.
          5    1    1    2  501    0  0.41944926948E+01 -0.13433574896E+01  0.58161455505E+03  0.58165022051E+03  0.47000000000E+01 0.  1.
         -5    1    1    2    0  502 -0.41944926948E+01  0.13433574896E+01  0.77985489311E+03  0.77988149272E+03  0.47000000000E+01 0. -1.
<mgrwt>
<rscale>  2 0.64411473E+01</rscale>
<asrwt>0</asrwt>
<pdfrwt beam="1">  1       21 0.20941395E+00 0.64411473E+01</pdfrwt>
<pdfrwt beam="2">  1       21 0.47907115E-05 0.64411473E+01</pdfrwt>
<totfact> 0.60741244E+08</totfact>
</mgrwt>
</event>
<event>
 4    1  0.3900819E+006  0.1028073E+02  0.7546771E-02  0.2059354E+00
         21   -1    0    0  503  502  0.00000000000E+00  0.00000000000E+00  0.12596660932E+02  0.12596660932E+02  0.00000000000E+00 0. -1.
         21   -1    0    0  501  503 -0.00000000000E+00 -0.00000000000E+00 -0.11960000966E+02  0.11960000966E+02  0.00000000000E+00 0.  1.
          5    1    1    2  501    0  0.75868929430E+01 -0.51031874912E+01 -0.63893411825E+01  0.12104426787E+02  0.47000000000E+01 0. -1.
         -5    1    1    2    0  502 -0.75868929430E+01  0.51031874912E+01  0.70260011489E+01  0.12452235110E+02  0.47000000000E+01 0.  1.
<mgrwt>
<rscale>  2 0.10280733E+02</rscale>
<asrwt>0</asrwt>
<pdfrwt beam="1">  1       21 0.19379478E-02 0.10280733E+02</pdfrwt>
<pdfrwt beam="2">  1       21 0.18400001E-02 0.10280733E+02</pdfrwt>
<totfact> 0.73857716E+08</totfact>
</mgrwt>
</event>
<event>
 4    1  0.3900819E+006  0.6587628E+01  0.7546771E-02  0.2344690E+00
         21   -1    0    0  503  502  0.00000000000E+00  0.00000000000E+00  0.94228045010E+02  0.94228045010E+02  0.00000000000E+00 0.  1.
         21   -1    0    0  501  503 -0.00000000000E+00 -0.00000000000E+00 -0.46583276034E+00  0.46583276034E+00  0.00000000000E+00 0. -1.
          5    1    1    2  501    0 -0.28446387846E+01 -0.36352263901E+01  0.51922578036E+02  0.52338809221E+02  0.47000000000E+01 0.  1.
         -5    1    1    2    0  502  0.28446387846E+01  0.36352263901E+01  0.41839634213E+02  0.42355068549E+02  0.47000000000E+01 0.  1.
<mgrwt>
<rscale>  2 0.65876279E+01</rscale>
<asrwt>0</asrwt>
<pdfrwt beam="1">  1       21 0.14496607E-01 0.65876279E+01</pdfrwt>
<pdfrwt beam="2">  1       21 0.71666653E-04 0.65876279E+01</pdfrwt>
<totfact> 0.24491848E+09</totfact>
</mgrwt>
</event>
<event>
 4    1  0.3900819E+006  0.4795822E+01  0.7546771E-02  0.2604701E+00
         21   -1    0    0  503  502  0.00000000000E+00  0.00000000000E+00  0.79005427875E+01  0.79005427875E+01  0.00000000000E+00 0.  1.
         21   -1    0    0  501  503 -0.00000000000E+00 -0.00000000000E+00 -0.21076205914E+02  0.21076205914E+02  0.00000000000E+00 0.  1.
          5    1    1    2  501    0  0.90653999191E+00 -0.29680650237E+00 -0.20038424916E+02  0.20604329205E+02  0.47000000000E+01 0.  1.
         -5    1    1    2    0  502 -0.90653999191E+00  0.29680650237E+00  0.68627617894E+01  0.83724194970E+01  0.47000000000E+01 0.  1.
<mgrwt>
<rscale>  2 0.47958220E+01</rscale>
<asrwt>0</asrwt>
<pdfrwt beam="1">  1       21 0.12154681E-02 0.47958220E+01</pdfrwt>
<pdfrwt beam="2">  1       21 0.32424932E-02 0.47958220E+01</pdfrwt>
<totfact> 0.36825627E+08</totfact>
</mgrwt>
</event>
<event>
 4    1  0.3900819E+006  0.5534663E+01  0.7546771E-02  0.2480232E+00
         21   -1    0    0  503  502  0.00000000000E+00  0.00000000000E+00  0.56611398264E+03  0.56611398264E+03  0.00000000000E+00 0.  1.
         21   -1    0    0  501  503 -0.00000000000E+00 -0.00000000000E+00 -0.25398155498E+00  0.25398155498E+00  0.00000000000E+00 0.  1.
          5    1    1    2  501    0  0.28890224925E+01  0.44276935282E+00  0.31716508493E+02  0.32195797966E+02  0.47000000000E+01 0.  1.
         -5    1    1    2    0  502 -0.28890224925E+01 -0.44276935282E+00  0.53414349259E+03  0.53417216622E+03  0.47000000000E+01 0.  1.
<mgrwt>
<rscale>  2 0.55346631E+01</rscale>
<asrwt>0</asrwt>
<pdfrwt beam="1">  1       21 0.87093449E-01 0.55346631E+01</pdfrwt>
<pdfrwt beam="2">  1       21 0.39074539E-04 0.55346631E+01</pdfrwt>
<totfact> 0.21525010E+08</totfact>
</mgrwt>
</event>
<event>
 4    1  0.3900819E+006  0.5288795E+01  0.7546771E-02  0.2518338E+00
         21   -1    0    0  501  502  0.00000000000E+00  0.00000000000E+00  0.12723216240E+00  0.12723216240E+00  0.00000000000E+00 0. -1.
         21   -1    0    0  502  503 -0.00000000000E+00 -0.00000000000E+00 -0.24027607409E+03  0.24027607409E+03  0.00000000000E+00 0. -1.
          5    1    1    2  501    0 -0.23613951369E+01  0.55241730382E+00 -0.85023372268E+02  0.85187705590E+02  0.47000000000E+01 0. -1.
         -5    1    1    2    0  503  0.23613951369E+01 -0.55241730382E+00 -0.15512546966E+03  0.15521560066E+03  0.47000000000E+01 0. -1.
<mgrwt>
<rscale>  2 0.52887949E+01</rscale>
<asrwt>0</asrwt>
<pdfrwt beam="1">  1       21 0.19574355E-04 0.52887949E+01</pdfrwt>
<pdfrwt beam="2">  1       21 0.36965217E-01 0.52887949E+01</pdfrwt>
<totfact> 0.24916703E+09</totfact>
</mgrwt>
</event>
<event>
 4    1  0.3900819E+006  0.4858245E+01  0.7546771E-02  0.2592932E+00
         21   -1    0    0  501  502  0.00000000000E+00  0.00000000000E+00  0.34940979724E+02  0.34940979724E+02  0.00000000000E+00 0. -1.
         21   -1    0    0  502  503 -0.00000000000E+00 -0.00000000000E+00 -0.79182073097E+00  0.79182073097E+00  0.00000000000E+00 0. -1.
          5    1    1    2  501    0 -0.12041187350E+01  0.25028952135E+00  0.23922468758E+02  0.24410797985E+02  0.47000000000E+01 0. -1.
         -5    1    1    2    0  503  0.12041187350E+01 -0.25028952135E+00  0.10226690235E+02  0.11322002470E+02  0.47000000000E+01 0. -1.
<mgrwt>
<rscale>  2 0.48582452E+01</rscale>
<asrwt>0</asrwt>
<pdfrwt beam="1">  1       21 0.53755342E-02 0.48582452E+01</pdfrwt>
<pdfrwt beam="2">  1       21 0.12181860E-03 0.48582452E+01</pdfrwt>
<totfact> 0.41190971E+09</totfact>
</mgrwt>
</event>
<event>
 4    1  0.3900819E+006  0.5486900E+01  0.7546771E-02  0.2487407E+00
         21   -1    0    0  503  502  0.00000000000E+00  0.00000000000E+00  0.24578376527E+01  0.24578376527E+01  0.00000000000E+00 0.  1.
         21   -1    0    0  501  503 -0.00000000000E+00 -0.00000000000E+00 -0.13001735139E+02  0.13001735139E+02  0.00000000000E+00 0.  1.
          5    1    1    2  501    0 -0.27610710683E+01 -0.62654864806E+00 -0.71318299331E+01  0.89982817719E+01  0.47000000000E+01 0.  1.
         -5    1    1    2    0  502  0.27610710683E+01  0.62654864806E+00 -0.34120675529E+01  0.64612910195E+01  0.47000000000E+01 0.  1.
<mgrwt>
<rscale>  2 0.54869005E+01</rscale>
<asrwt>0</asrwt>
<pdfrwt beam="1">  1       21 0.37812887E-03 0.54869005E+01</pdfrwt>
<pdfrwt beam="2">  1       21 0.20002670E-02 0.54869005E+01</pdfrwt>
<totfact> 0.42068251E+09</totfact>
</mgrwt>
</event>
<event>
 4    1  0.3900819E+006  0.1024929E+02  0.7546771E-02  0.2061072E+00
         21   -1    0    0  501  502  0.00000000000E+00  0.00000000000E+00  0.13175983370E+01  0.13175983370E+01  0.00000000000E+00 0. -1.
         21   -1    0    0  502  503 -0.00000000000E+00 -0.00000000000E+00 -0.83087379487E+02  0.83087379487E+02  0.00000000000E+00 0.  1.
          5    1    1    2  501    0  0.81880928783E+01 -0.39891125180E+01 -0.32397418149E+02  0.33980002742E+02  0.47000000000E+01 0. -1.
         -5    1    1    2    0  503 -0.81880928783E+01  0.39891125180E+01 -0.49372363002E+02  0.50424975082E+02  0.47000000000E+01 0.  1.
<mgrwt>
<rscale>  2 0.10249287E+02</rscale>
<asrwt>0</asrwt>
<pdfrwt beam="1">  1       21 0.20270747E-03 0.10249287E+02</pdfrwt>
<pdfrwt beam="2">  1       21 0.12782671E-01 0.10249287E+02</pdfrwt>
<totfact> 0.96345814E+08</totfact>
</mgrwt>
</event>
<event>
 4    1  0.3900819E+006  0.4945938E+01  0.7546771E-02  0.2576834E+00
         21   -1    0    0  503  502  0.00000000000E+00  0.00000000000E+00  0.13507822973E+04  0.13507822973E+04  0.00000000000E+00 0.  1.
         21   -1    0    0  501  503 -0.00000000000E+00 -0.00000000000E+00 -0.18120432572E-01  0.18120432572E-01  0.00000000000E+00 0.  1.
          5    1    1    2  501    0 -0.83718371244E+00  0.12928382431E+01  0.65897045077E+03  0.65898901151E+03  0.47000000000E+01 0.  1.
         -5    1    1    2    0  502  0.83718371244E+00 -0.12928382431E+01  0.69179372615E+03  0.69181140627E+03  0.47000000000E+01 0.  1.
<mgrwt>
<rscale>  2 0.49459385E+01</rscale>
<asrwt>0</asrwt>
<pdfrwt beam="1">  1       21 0.20773204E+00 0.49459385E+01</pdfrwt>
<pdfrwt beam="2">  1       21 0.27888407E-05 0.49459385E+01</pdfrwt>
<totfact> 0.11114592E+09</totfact>
</mgrwt>
</event>
<event>
 4    1  0.3900819E+006  0.5868973E+01  0.7546771E-02  0.2432795E+00
         21   -1    0    0  503  502  0.00000000000E+00  0.00000000000E+00  0.28239439083E+01  0.28239439083E+01  0.00000000000E+00 0.  1.
         21   -1    0    0  501  503 -0.00000000000E+00 -0.00000000000E+00 -0.77767540542E+02  0.77767540542E+02  0.00000000000E+00 0.  1.
          5    1    1    2  501    0  0.12055876914E+01  0.33017266725E+01 -0.74472755231E+02  0.74703655281E+02  0.47000000000E+01 0.  1.
         -5    1    1    2    0  502 -0.12055876914E+01 -0.33017266725E+01 -0.47084140324E+00  0.58878291694E+01  0.47000000000E+01 0.  1.
<mgrwt>
<rscale>  2 0.58689727E+01</rscale>
<asrwt>0</asrwt>
<pdfrwt beam="1">  1       21 0.43445289E-03 0.58689727E+01</pdfrwt>
<pdfrwt beam="2">  1       21 0.11964238E-01 0.58689727E+01</pdfrwt>
<totfact> 0.26067145E+08</totfact>
</mgrwt>
</event>
<event>
 4    1  0.3900819E+006  0.5920466E+01  0.7546771E-02  0.2425891E+00
         21   -1    0    0  501  502  0.00000000000E+00  0.00000000000E+00  0.62002283467E+03  0.62002283467E+03  0.00000000000E+00 0. -1.
         21   -1    0    0  502  503 -0.00000000000E+00 -0.00000000000E+00 -0.92777056266E-01  0.92777056266E-01  0.00000000000E+00 0.  1.
          5    1    1    2  501    0  0.35107848260E+01 -0.79768638154E+00  0.50375852618E+03  0.50379331537E+03  0.47000000000E+01 0. -1.
         -5    1    1    2    0  503 -0.35107848260E+01  0.79768638154E+00  0.11617153144E+03  0.11632229636E+03  0.47000000000E+01 0.  1.
<mgrwt>
<rscale>  2 0.59204657E+01</rscale>
<asrwt>0</asrwt>
<pdfrwt beam="1">  1       21 0.95384810E-01 0.59204657E+01</pdfrwt>
<pdfrwt beam="2">  1       21 0.14273890E-04 0.59204657E+01</pdfrwt>
<totfact> 0.71914157E+08</totfact>
</mgrwt>
</event>
<event>
 4    1  0.3900819E+006  0.5599477E+01  0.7546771E-02  0.2470662E+00
         21   -1    0    0  503  502  0.00000000000E+00  0.00000000000E+00  0.43274568191E+00  0.43274568191E+00  0.00000000000E+00 0.  1.
         21   -1    0    0  501  503 -0.00000000000E+00 -0.00000000000E+00 -0.11281246466E+03  0.11281246466E+03  0.00000000000E+00 0. -1.
          5    1    1    2  501    0 -0.18822956802E+01  0.23918826808E+01 -0.90057022529E+02  0.90230933978E+02  0.47000000000E+01 0. -1.
         -5    1    1    2    0  502  0.18822956802E+01 -0.23918826808E+01 -0.22322696448E+02  0.23014276363E+02  0.47000000000E+01 0.  1.
<mgrwt>
<rscale>  2 0.55994767E+01</rscale>
<asrwt>0</asrwt>
<pdfrwt beam="1">  1       21 0.66576165E-04 0.55994767E+01</pdfrwt>
<pdfrwt beam="2">  1       21 0.17355788E-01 0.55994767E+01</pdfrwt>
<totfact> 0.17795471E+09</totfact>
</mgrwt>
</event>
<event>
 4    1  0.3900819E+006  0.4861389E+01  0.7546771E-02  0.2592347E+00
         21   -1    0    0  501  502  0.00000000000E+00  0.00000000000E+00  0.62295915416E+00  0.62295915416E+00  0.00000000000E+00 0. -1.
         21   -1    0    0  502  503 -0.00000000000E+00 -0.00000000000E+00 -0.12473074353E+03  0.12473074353E+03  0.00000000000E+00 0.  1.
          5    1    1    2  501    0  0.68185693355E+00  0.10383529717E+01 -0.97703492057E+01  0.10912966113E+02  0.47000000000E+01 0. -1.
         -5    1    1    2    0  503 -0.68185693355E+00 -0.10383529717E+01 -0.11433743517E+03  0.11444073657E+03  0.47000000000E+01 0.  1.
<mgrwt>
<rscale>  2 0.48613893E+01</rscale>
<asrwt>0</asrwt>
<pdfrwt beam="1">  1       21 0.95839914E-04 0.48613893E+01</pdfrwt>
<pdfrwt beam="2">  1       21 0.19189336E-01 0.48613893E+01</pdfrwt>
<totfact> 0.82516294E+08</totfact>
</mgrwt>
</event>
<event>
 4    1  0.3900819E+006  0.8008800E+01  0.7546771E-02  0.2209901E+00
         21   -1    0    0  503  502  0.00000000000E+00  0.00000000000E+00  0.51678329567E+01  0.51678329567E+01  0.00000000000E+00 0.  1.
         21   -1    0    0  501  503 -0.00000000000E+00 -0.00000000000E+00 -0.28467207571E+02  0.28467207571E+02  0.00000000000E+00 0. -1.
          5    1    1    2  501    0 -0.48242840833E+01  0.43332618111E+01 -0.24279689419E+02  0.25566466184E+02  0.47000000000E+01 0. -1.
         -5    1    1    2    0  502  0.48242840833E+01 -0.43332618111E+01  0.98031480409E+00  0.80685743446E+01  0.47000000000E+01 0.  1.
<mgrwt>
<rscale>  2 0.80087998E+01</rscale>
<asrwt>0</asrwt>
<pdfrwt beam="1">  1       21 0.79505120E-03 0.80087998E+01</pdfrwt>
<pdfrwt beam="2">  1       21 0.43795705E-02 0.80087998E+01</pdfrwt>
<totfact> 0.63747880E+08</totfact>
</mgrwt>
</event>
<event>
 4    1  0.3900819E+006  0.1542569E+02  0.7546771E-02  0.1855349E+00
         21   -1    0    0  503  502  0.00000000000E+00  0.00000000000E+00  0.44958944599E+01  0.44958944599E+01  0.00000000000E+00 0.  1.
         21   -1    0    0  501  503 -0.00000000000E+00 -0.00000000000E+00 -0.53020884168E+02  0.53020884168E+02  0.00000000000E+00 0. -1.
          5    1    1    2  501    0 -0.27822403595E+01  0.14426404202E+02 -0.23049191438E+02  0.27734765648E+02  0.47000000000E+01 0.  1.
         -5    1    1    2    0  502  0.27822403595E+01 -0.14426404202E+02 -0.25475798270E+02  0.29782012980E+02  0.47000000000E+01 0. -1.
<mgrwt>
<rscale>  2 0.15425693E+02</rscale>
<asrwt>0</asrwt>
<pdfrwt beam="1">  1       21 0.69167604E-03 0.15425693E+02</pdfrwt>
<pdfrwt beam="2">  1       21 0.81570594E-02 0.15425693E+02</pdfrwt>
<totfact> 0.41669757E+08</totfact>
</mgrwt>
</event>
<event>
 4    1  0.3900819E+006  0.7284051E+01  0.7546771E-02  0.2273276E+00
         21   -1    0    0  501  502  0.00000000000E+00  0.00000000000E+00  0.51270805777E+03  0.51270805777E+03  0.00000000000E+00 0.  1.
         21   -1    0    0  502  503 -0.00000000000E+00 -0.00000000000E+00 -0.42563146607E+00  0.42563146607E+00  0.00000000000E+00 0.  1.
          5    1    1    2  501    0  0.40017125866E+01 -0.38670003139E+01  0.47934965513E+03  0.47940499504E+03  0.47000000000E+01 0.  1.
         -5    1    1    2    0  503 -0.40017125866E+01  0.38670003139E+01  0.32932771177E+02  0.33728694200E+02  0.47000000000E+01 0.  1.
<mgrwt>
<rscale>  2 0.72840507E+01</rscale>
<asrwt>0</asrwt>
<pdfrwt beam="1">  1       21 0.78877669E-01 0.72840507E+01</pdfrwt>
<pdfrwt beam="2">  1       21 0.65482174E-04 0.72840507E+01</pdfrwt>
<totfact> 0.15437255E+08</totfact>
</mgrwt>
</event>
<event>
 4    1  0.3900819E+006  0.9363317E+01  0.7546771E-02  0.2113142E+00
         21   -1    0    0  501  502  0.00000000000E+00  0.00000000000E+00  0.26652306456E+02  0.26652306456E+02  0.00000000000E+00 0.  1.
         21   -1    0    0  502  503 -0.00000000000E+00 -0.00000000000E+00 -0.22943550539E+03  0.22943550539E+03  0.00000000000E+00 0. -1.
          5    1    1    2  501    0 -0.35952503063E+01  0.72564369554E+01  0.25731097804E+02  0.27381765762E+02  0.47000000000E+01 0.  1.
         -5    1    1    2    0  503  0.35952503063E+01 -0.72564369554E+01 -0.22851429674E+03  0.22870604608E+03  0.47000000000E+01 0. -1.
<mgrwt>
<rscale>  2 0.93633168E+01</rscale>
<asrwt>0</asrwt>
<pdfrwt beam="1">  1       21 0.41003548E-02 0.93633168E+01</pdfrwt>
<pdfrwt beam="2">  1       21 0.35297771E-01 0.93633168E+01</pdfrwt>
<totfact> 0.21482009E+06</totfact>
</mgrwt>
</event>
<event>
 4    1  0.3900819E+006  0.5699912E+01  0.7546771E-02  0.2456197E+00
         21   -1    0    0  501  502  0.00000000000E+00  0.00000000000E+00  0.60649635213E+01  0.60649635213E+01  0.00000000000E+00 0. -1.
         21   -1    0    0  502  503 -0.00000000000E+00 -0.00000000000E+00 -0.57515424310E+01  0.57515424310E+01  0.00000000000E+00 0. -1.
          5    1    1    2  501    0 -0.24786604764E+01 -0.20628227868E+01  0.17044782204E+01  0.59493059772E+01  0.47000000000E+01 0. -1.
         -5    1    1    2    0  503  0.24786604764E+01  0.20628227868E+01 -0.13910571301E+01  0.58671999750E+01  0.47000000000E+01 0. -1.
<mgrwt>
<rscale>  2 0.56999119E+01</rscale>
<asrwt>0</asrwt>
<pdfrwt beam="1">  1       21 0.93307131E-03 0.56999119E+01</pdfrwt>
<pdfrwt beam="2">  1       21 0.88485269E-03 0.56999119E+01</pdfrwt>
<totfact> 0.39440173E+09</totfact>
</mgrwt>
</event>
<event>
 4    1  0.3900819E+006  0.6852689E+01  0.7546771E-02  0.2316106E+00
         21   -1    0    0  501  502  0.00000000000E+00  0.00000000000E+00  0.18244899220E+01  0.18244899220E+01  0.00000000000E+00 0.  1.
         21   -1    0    0  502  503 -0.00000000000E+00 -0.00000000000E+00 -0.36826097333E+02  0.36826097333E+02  0.00000000000E+00 0. -1.
          5    1    1    2  501    0 -0.13590075153E+01 -0.47981714774E+01 -0.68967965436E+01  0.97224047188E+01  0.47000000000E+01 0.  1.
         -5    1    1    2    0  503  0.13590075153E+01  0.47981714774E+01 -0.28104810868E+02  0.28928182536E+02  0.47000000000E+01 0. -1.
<mgrwt>
<rscale>  2 0.68526893E+01</rscale>
<asrwt>0</asrwt>
<pdfrwt beam="1">  1       21 0.28069080E-03 0.68526893E+01</pdfrwt>
<pdfrwt beam="2">  1       21 0.56655525E-02 0.68526893E+01</pdfrwt>
<totfact> 0.16731827E+09</totfact>
</mgrwt>
</event>
<event>
 4    1  0.3900819E+006  0.8322363E+01  0.7546771E-02  0.2185274E+00
         21   -1    0    0  503  502  0.00000000000E+00  0.00000000000E+00  0.35187587708E+01  0.35187587708E+01  0.00000000000E+00 0.  1.
         21   -1    0    0  501  503 -0.00000000000E+00 -0.00000000000E+00 -0.20640520908E+02  0.20640520908E+02  0.00000000000E+00 0. -1.
          5    1    1    2  501    0 -0.41900671774E+01  0.54419721678E+01 -0.11161873982E+02  0.13922972198E+02  0.47000000000E+01 0.  1.
         -5    1    1    2    0  502  0.41900671774E+01 -0.54419721678E+01 -0.59598881549E+01  0.10236307481E+02  0.47000000000E+01 0. -1.
<mgrwt>
<rscale>  2 0.83223629E+01</rscale>
<asrwt>0</asrwt>
<pdfrwt beam="1">  1       21 0.54134751E-03 0.83223629E+01</pdfrwt>
<pdfrwt beam="2">  1       21 0.31754647E-02 0.83223629E+01</pdfrwt>
<totfact> 0.18256616E+09</totfact>
</mgrwt>
</event>
<event>
 4    1  0.3900819E+006  0.8832641E+01  0.7546771E-02  0.2148224E+00
         21   -1    0    0  503  502  0.00000000000E+00  0.00000000000E+00  0.40544690582E+00  0.40544690582E+00  0.00000000000E+00 0.  1.
         21   -1    0    0  501  503 -0.00000000000E+00 -0.00000000000E+00 -0.25509647129E+03  0.25509647129E+03  0.00000000000E+00 0. -1.
          5    1    1    2  501    0 -0.37246574784E+01 -0.64847881388E+01 -0.19066958698E+03  0.19087406044E+03  0.47000000000E+01 0. -1.
         -5    1    1    2    0  502  0.37246574784E+01  0.64847881388E+01 -0.64021437405E+02  0.64627857754E+02  0.47000000000E+01 0. -1.
<mgrwt>
<rscale>  2 0.88326412E+01</rscale>
<asrwt>0</asrwt>
<pdfrwt beam="1">  1       21 0.62376416E-04 0.88326412E+01</pdfrwt>
<pdfrwt beam="2">  1       21 0.39245631E-01 0.88326412E+01</pdfrwt>
<totfact> 0.67668158E+08</totfact>
</mgrwt>
</event>
<event>
 4    1  0.3900819E+006  0.6480951E+01  0.7546771E-02  0.2356736E+00
         21   -1    0    0  501  502  0.00000000000E+00  0.00000000000E+00  0.17681135494E+02  0.17681135494E+02  0.00000000000E+00 0. -1.
         21   -1    0    0  502  503 -0.00000000000E+00 -0.00000000000E+00 -0.26892850837E+01  0.26892850837E+01  0.00000000000E+00 0. -1.
          5    1    1    2  501    0  0.34686524907E+01 -0.28073443213E+01  0.10974657064E+02  0.12745423881E+02  0.47000000000E+01 0. -1.
         -5    1    1    2    0  503 -0.34686524907E+01  0.28073443213E+01  0.40171933464E+01  0.76249966965E+01  0.47000000000E+01 0. -1.
<mgrwt>
<rscale>  2 0.64809515E+01</rscale>
<asrwt>0</asrwt>
<pdfrwt beam="1">  1       21 0.27201746E-02 0.64809515E+01</pdfrwt>
<pdfrwt beam="2">  1       21 0.41373618E-03 0.64809515E+01</pdfrwt>
<totfact> 0.27686856E+09</totfact>
</mgrwt>
</event>
<event>
 4    1  0.3900819E+006  0.5043121E+01  0.7546771E-02  0.2559561E+00
         21   -1    0    0  503  502  0.00000000000E+00  0.00000000000E+00  0.29304200270E+02  0.29304200270E+02  0.00000000000E+00 0.  1.
         21   -1    0    0  501  503 -0.00000000000E+00 -0.00000000000E+00 -0.89889629057E+00  0.89889629057E+00  0.00000000000E+00 0.  1.
          5    1    1    2  501    0 -0.38110988671E+00 -0.17882466259E+01  0.11398301943E+02  0.12464122830E+02  0.47000000000E+01 0.  1.
         -5    1    1    2    0  502  0.38110988671E+00  0.17882466259E+01  0.17007002036E+02  0.17738973730E+02  0.47000000000E+01 0.  1.
<mgrwt>
<rscale>  2 0.50431211E+01</rscale>
<asrwt>0</asrwt>
<pdfrwt beam="1">  1       21 0.45083378E-02 0.50431211E+01</pdfrwt>
<pdfrwt beam="2">  1       21 0.13829176E-03 0.50431211E+01</pdfrwt>
<totfact> 0.46757891E+09</totfact>
</mgrwt>
</event>
<event>
 4    1  0.3900819E+006  0.6650110E+01  0.7546771E-02  0.2337783E+00
         21   -1    0    0  501  502  0.00000000000E+00  0.00000000000E+00  0.42962158115E+01  0.42962158115E+01  0.00000000000E+00 0. -1.
         21   -1    0    0  502  503 -0.00000000000E+00 -0.00000000000E+00 -0.18660905633E+02  0.18660905633E+02  0.00000000000E+00 0. -1.
          5    1    1    2  501    0  0.41827431726E+01 -0.21537471262E+01  0.50384721224E+00  0.66691700492E+01  0.47000000000E+01 0. -1.
         -5    1    1    2    0  503 -0.41827431726E+01  0.21537471262E+01 -0.14868537034E+02  0.16287951395E+02  0.47000000000E+01 0. -1.
<mgrwt>
<rscale>  2 0.66501103E+01</rscale>
<asrwt>0</asrwt>
<pdfrwt beam="1">  1       21 0.66095625E-03 0.66501103E+01</pdfrwt>
<pdfrwt beam="2">  1       21 0.28709087E-02 0.66501103E+01</pdfrwt>
<totfact> 0.13573773E+09</totfact>
</mgrwt>
</event>
<event>
 4    1  0.3900819E+006  0.5949481E+01  0.7546771E-02  0.2422045E+00
         21   -1    0    0  503  502  0.00000000000E+00  0.00000000000E+00  0.39940940711E+01  0.39940940711E+01  0.00000000000E+00 0.  1.
         21   -1    0    0  501  503 -0.00000000000E+00 -0.00000000000E+00 -0.17016382062E+02  0.17016382062E+02  0.00000000000E+00 0.  1.
          5    1    1    2  501    0 -0.29116839857E+01 -0.21973664603E+01 -0.13783303622E+02  0.15012520832E+02  0.47000000000E+01 0.  1.
         -5    1    1    2    0  502  0.29116839857E+01  0.21973664603E+01  0.76101563195E+00  0.59979553004E+01  0.47000000000E+01 0.  1.
<mgrwt>
<rscale>  2 0.59494809E+01</rscale>
<asrwt>0</asrwt>
<pdfrwt beam="1">  1       21 0.61447601E-03 0.59494809E+01</pdfrwt>
<pdfrwt beam="2">  1       21 0.26179049E-02 0.59494809E+01</pdfrwt>
<totfact> 0.15696509E+09</totfact>
</mgrwt>
</event>
<event>
 4    1  0.3900819E+006  0.1188820E+02  0.7546771E-02  0.1981170E+00
         21   -1    0    0  503  502  0.00000000000E+00  0.00000000000E+00  0.53715748680E+00  0.53715748680E+00  0.00000000000E+00 0. -1.
         21   -1    0    0  501  503 -0.00000000000E+00 -0.00000000000E+00 -0.26771664693E+03  0.26771664693E+03  0.00000000000E+00 0.  1.
          5    1    1    2  501    0 -0.96766320262E+01 -0.50598443142E+01 -0.15119207537E+03  0.15165873824E+03  0.47000000000E+01 0. -1.
         -5    1    1    2    0  502  0.96766320262E+01  0.50598443142E+01 -0.11598741408E+03  0.11659506618E+03  0.47000000000E+01 0.  1.
<mgrwt>
<rscale>  2 0.11888197E+02</rscale>
<asrwt>0</asrwt>
<pdfrwt beam="1">  1       21 0.82639728E-04 0.11888197E+02</pdfrwt>
<pdfrwt beam="2">  1       21 0.41187119E-01 0.11888197E+02</pdfrwt>
<totfact> 0.48912548E+08</totfact>
</mgrwt>
</event>
<event>
 4    1  0.3900819E+006  0.4970659E+01  0.7546771E-02  0.2572385E+00
         21   -1    0    0  503  502  0.00000000000E+00  0.00000000000E+00  0.23594668024E+01  0.23594668024E+01  0.00000000000E+00 0.  1.
         21   -1    0    0  501  503 -0.00000000000E+00 -0.00000000000E+00 -0.13086057224E+02  0.13086057224E+02  0.00000000000E+00 0. -1.
          5    1    1    2  501    0  0.73079613439E+00 -0.14433946776E+01 -0.88151852367E+01  0.10120026776E+02  0.47000000000E+01 0. -1.
         -5    1    1    2    0  502 -0.73079613439E+00  0.14433946776E+01 -0.19114051850E+01  0.53254972506E+01  0.47000000000E+01 0.  1.
<mgrwt>
<rscale>  2 0.49706590E+01</rscale>
<asrwt>0</asrwt>
<pdfrwt beam="1">  1       21 0.36299489E-03 0.49706590E+01</pdfrwt>
<pdfrwt beam="2">  1       21 0.20132396E-02 0.49706590E+01</pdfrwt>
<totfact> 0.39865550E+09</totfact>
</mgrwt>
</event>
<event>
 4    1  0.3900819E+006  0.7826423E+01  0.7546771E-02  0.2224951E+00
         21   -1    0    0  503  502  0.00000000000E+00  0.00000000000E+00  0.10629911516E+02  0.10629911516E+02  0.00000000000E+00 0. -1.
         21   -1    0    0  501  503 -0.00000000000E+00 -0.00000000000E+00 -0.16728894674E+02  0.16728894674E+02  0.00000000000E+00 0.  1.
          5    1    1    2  501    0 -0.44837739121E+01 -0.43656226981E+01 -0.14125139426E+02  0.16148450509E+02  0.47000000000E+01 0.  1.
         -5    1    1    2    0  502  0.44837739121E+01  0.43656226981E+01  0.80261562683E+01  0.11210355680E+02  0.47000000000E+01 0. -1.
<mgrwt>
<rscale>  2 0.78264226E+01</rscale>
<asrwt>0</asrwt>
<pdfrwt beam="1">  1       21 0.16353710E-02 0.78264226E+01</pdfrwt>
<pdfrwt beam="2">  1       21 0.25736761E-02 0.78264226E+01</pdfrwt>
<totfact> 0.49043567E+08</totfact>
</mgrwt>
</event>
<event>
 4    1  0.3900819E+006  0.7935024E+01  0.7546771E-02  0.2215922E+00
         21   -1    0    0  503  502  0.00000000000E+00  0.00000000000E+00  0.52720168434E+00  0.52720168434E+00  0.00000000000E+00 0. -1.
         21   -1    0    0  501  503 -0.00000000000E+00 -0.00000000000E+00 -0.16000495958E+03  0.16000495958E+03  0.00000000000E+00 0.  1.
          5    1    1    2  501    0 -0.39263863055E+01  0.50456009938E+01 -0.12015784779E+03  0.12041957060E+03  0.47000000000E+01 0.  1.
         -5    1    1    2    0  502  0.39263863055E+01 -0.50456009938E+01 -0.39319910107E+02  0.40112590663E+02  0.47000000000E+01 0. -1.
<mgrwt>
<rscale>  2 0.79350236E+01</rscale>
<asrwt>0</asrwt>
<pdfrwt beam="1">  1       21 0.81107912E-04 0.79350236E+01</pdfrwt>
<pdfrwt beam="2">  1       21 0.24616160E-01 0.79350236E+01</pdfrwt>
<totfact> 0.99614937E+08</totfact>
</mgrwt>
</event>
<event>
 4    1  0.3900819E+006  0.6312330E+01  0.7546771E-02  0.2376463E+00
         21   -1    0    0  501  502  0.00000000000E+00  0.00000000000E+00  0.21368674112E+02  0.21368674112E+02  0.00000000000E+00 0. -1.
         21   -1    0    0  502  503 -0.00000000000E+00 -0.00000000000E+00 -0.18692939131E+01  0.18692939131E+01  0.00000000000E+00 0. -1.
          5    1    1    2  501    0 -0.29424626403E+01  0.30161937702E+01  0.10327607320E+02  0.12103924330E+02  0.47000000000E+01 0. -1.
         -5    1    1    2    0  503  0.29424626403E+01 -0.30161937702E+01  0.91717728798E+01  0.11134043695E+02  0.47000000000E+01 0. -1.
<mgrwt>
<rscale>  2 0.63123301E+01</rscale>
<asrwt>0</asrwt>
<pdfrwt beam="1">  1       21 0.32874881E-02 0.63123301E+01</pdfrwt>
<pdfrwt beam="2">  1       21 0.28758369E-03 0.63123301E+01</pdfrwt>
<totfact> 0.33944964E+09</totfact>
</mgrwt>
</event>
<event>
 4    1  0.3900819E+006  0.9598783E+01  0.7546771E-02  0.2098567E+00
         21   -1    0    0  501  502  0.00000000000E+00  0.00000000000E+00  0.92824711867E+02  0.92824711867E+02  0.00000000000E+00 0. -1.
         21   -1    0    0  502  503 -0.00000000000E+00 -0.00000000000E+00 -0.13274089319E+01  0.13274089319E+01  0.00000000000E+00 0.  1.
          5    1    1    2  501    0 -0.48030453973E+01  0.68540051810E+01  0.69391755006E+02  0.70052496708E+02  0.47000000000E+01 0. -1.
         -5    1    1    2    0  503  0.48030453973E+01 -0.68540051810E+01  0.22105547929E+02  0.24099624091E+02  0.47000000000E+01 0.  1.
<mgrwt>
<rscale>  2 0.95987828E+01</rscale>
<asrwt>0</asrwt>
<pdfrwt beam="1">  1       21 0.14280720E-01 0.95987828E+01</pdfrwt>
<pdfrwt beam="2">  1       21 0.20421683E-03 0.95987828E+01</pdfrwt>
<totfact> 0.76855160E+08</totfact>
</mgrwt>
</event>
<event>
 4    1  0.3900819E+006  0.5185785E+01  0.7546771E-02  0.2535215E+00
         21   -1    0    0  503  502  0.00000000000E+00  0.00000000000E+00  0.90003184928E+01  0.90003184928E+01  0.00000000000E+00 0.  1.
         21   -1    0    0  501  503 -0.00000000000E+00 -0.00000000000E+00 -0.29968931341E+01  0.29968931341E+01  0.00000000000E+00 0.  1.
          5    1    1    2  501    0  0.21187017421E+01 -0.55987948244E+00  0.33296838521E+01  0.61627231531E+01  0.47000000000E+01 0.  1.
         -5    1    1    2    0  502 -0.21187017421E+01  0.55987948244E+00  0.26737415066E+01  0.58344884738E+01  0.47000000000E+01 0.  1.
<mgrwt>
<rscale>  2 0.51857846E+01</rscale>
<asrwt>0</asrwt>
<pdfrwt beam="1">  1       21 0.13846644E-02 0.51857846E+01</pdfrwt>
<pdfrwt beam="2">  1       21 0.46106049E-03 0.51857846E+01</pdfrwt>
<totfact> 0.50979400E+09</totfact>
</mgrwt>
</event>
<event>
 4    1  0.3900819E+006  0.6511273E+01  0.7546771E-02  0.2353279E+00
         21   -1    0    0  503  502  0.00000000000E+00  0.00000000000E+00  0.14341965270E+02  0.14341965270E+02  0.00000000000E+00 0.  1.
         21   -1    0    0  501  503 -0.00000000000E+00 -0.00000000000E+00 -0.47598157772E+01  0.47598157772E+01  0.00000000000E+00 0. -1.
          5    1    1    2  501    0 -0.26176004910E+01  0.36680845129E+01 -0.10882784366E+01  0.66015927078E+01  0.47000000000E+01 0. -1.
         -5    1    1    2    0  502  0.26176004910E+01 -0.36680845129E+01  0.10670427929E+02  0.12500188339E+02  0.47000000000E+01 0.  1.
<mgrwt>
<rscale>  2 0.65112730E+01</rscale>
<asrwt>0</asrwt>
<pdfrwt beam="1">  1       21 0.22064562E-02 0.65112730E+01</pdfrwt>
<pdfrwt beam="2">  1       21 0.73227935E-03 0.65112730E+01</pdfrwt>
<totfact> 0.16951865E+09</totfact>
</mgrwt>
</event>
<event>
 4    1  0.3900819E+006  0.5552169E+01  0.7546771E-02  0.2477629E+00
         21   -1    0    0  501  502  0.00000000000E+00  0.00000000000E+00  0.10579391614E+01  0.10579391614E+01  0.00000000000E+00 0. -1.
         21   -1    0    0  502  503 -0.00000000000E+00 -0.00000000000E+00 -0.31221046147E+02  0.31221046147E+02  0.00000000000E+00 0. -1.
          5    1    1    2  501    0  0.10024504000E+01 -0.27805880912E+01 -0.10913036878E+02  0.12244221120E+02  0.47000000000E+01 0. -1.
         -5    1    1    2    0  503 -0.10024504000E+01  0.27805880912E+01 -0.19250070108E+02  0.20034764188E+02  0.47000000000E+01 0. -1.
<mgrwt>
<rscale>  2 0.55521687E+01</rscale>
<asrwt>0</asrwt>
<pdfrwt beam="1">  1       21 0.16275986E-03 0.55521687E+01</pdfrwt>
<pdfrwt beam="2">  1       21 0.48032383E-02 0.55521687E+01</pdfrwt>
<totfact> 0.37673340E+09</totfact>
</mgrwt>
</event>
<event>
 4    1  0.3900819E+006  0.5008521E+01  0.7546771E-02  0.2565644E+00
         21   -1    0    0  503  502  0.00000000000E+00  0.00000000000E+00  0.20390968207E+03  0.20390968207E+03  0.00000000000E+00 0.  1.
         21   -1    0    0  501  503 -0.00000000000E+00 -0.00000000000E+00 -0.21573206578E+00  0.21573206578E+00  0.00000000000E+00 0. -1.
          5    1    1    2  501    0 -0.62882388322E+00 -0.16124101846E+01  0.34939564779E+02  0.35296720429E+02  0.47000000000E+01 0. -1.
         -5    1    1    2    0  502  0.62882388322E+00  0.16124101846E+01  0.16875438522E+03  0.16882869371E+03  0.47000000000E+01 0.  1.
<mgrwt>
<rscale>  2 0.50085213E+01</rscale>
<asrwt>0</asrwt>
<pdfrwt beam="1">  1       21 0.31370566E-01 0.50085213E+01</pdfrwt>
<pdfrwt beam="2">  1       21 0.33189712E-04 0.50085213E+01</pdfrwt>
<totfact> 0.15556701E+09</totfact>
</mgrwt>
</event>
<event>
 4    1  0.3900819E+006  0.6338184E+01  0.7546771E-02  0.2373382E+00
         21   -1    0    0  501  502  0.00000000000E+00  0.00000000000E+00  0.19695268301E+01  0.19695268301E+01  0.00000000000E+00 0.  1.
         21   -1    0    0  502  503 -0.00000000000E+00 -0.00000000000E+00 -0.20422990906E+02  0.20422990906E+02  0.00000000000E+00 0.  1.
          5    1    1    2  501    0  0.38979963868E+01  0.16994699486E+01 -0.88278451532E+01  0.10867539923E+02  0.47000000000E+01 0.  1.
         -5    1    1    2    0  503 -0.38979963868E+01 -0.16994699486E+01 -0.96256189224E+01  0.11524977812E+02  0.47000000000E+01 0.  1.
<mgrwt>
<rscale>  2 0.63381838E+01</rscale>
<asrwt>0</asrwt>
<pdfrwt beam="1">  1       21 0.30300411E-03 0.63381838E+01</pdfrwt>
<pdfrwt beam="2">  1       21 0.31419988E-02 0.63381838E+01</pdfrwt>
<totfact> 0.33870815E+09</totfact>
</mgrwt>
</event>
<event>
 4    1  0.3900819E+006  0.1065260E+02  0.7546771E-02  0.2039645E+00
         21   -1    0    0  501  502  0.00000000000E+00  0.00000000000E+00  0.89459244790E+01  0.89459244790E+01  0.00000000000E+00 0. -1.
         21   -1    0    0  502  503 -0.00000000000E+00 -0.00000000000E+00 -0.23776845231E+02  0.23776845231E+02  0.00000000000E+00 0.  1.
          5    1    1    2  501    0  0.78864531465E+01 -0.54029456387E+01  0.37595317199E+01  0.11296550073E+02  0.47000000000E+01 0. -1.
         -5    1    1    2    0  503 -0.78864531465E+01  0.54029456387E+01 -0.18590452472E+02  0.21426219637E+02  0.47000000000E+01 0.  1.
<mgrwt>
<rscale>  2 0.10652604E+02</rscale>
<asrwt>0</asrwt>
<pdfrwt beam="1">  1       21 0.13762961E-02 0.10652604E+02</pdfrwt>
<pdfrwt beam="2">  1       21 0.36579761E-02 0.10652604E+02</pdfrwt>
<totfact> 0.44604139E+08</totfact>
</mgrwt>
</event>
<event>
 4    1  0.3900819E+006  0.8330306E+01  0.7546771E-02  0.2184670E+00
         21   -1    0    0  501  502  0.00000000000E+00  0.00000000000E+00  0.55253448724E+01  0.55253448724E+01  0.00000000000E+00 0.  1.
         21   -1    0    0  502  503 -0.00000000000E+00 -0.00000000000E+00 -0.21910352659E+02  0.21910352659E+02  0.00000000000E+00 0. -1.
          5    1    1    2  501    0  0.68690284690E+01  0.34705298502E+00  0.76926079650E+00  0.83657492226E+01  0.47000000000E+01 0.  1.
         -5    1    1    2    0  503 -0.68690284690E+01 -0.34705298502E+00 -0.17154268584E+02  0.19069948309E+02  0.47000000000E+01 0. -1.
<mgrwt>
<rscale>  2 0.83303060E+01</rscale>
<asrwt>0</asrwt>
<pdfrwt beam="1">  1       21 0.85005306E-03 0.83303060E+01</pdfrwt>
<pdfrwt beam="2">  1       21 0.33708235E-02 0.83303060E+01</pdfrwt>
<totfact> 0.87891848E+08</totfact>
</mgrwt>
</event>
<event>
 4    1  0.3900819E+006  0.8562578E+01  0.7546771E-02  0.2167393E+00
         21   -1    0    0  503  502  0.00000000000E+00  0.00000000000E+00  0.19086226339E+02  0.19086226339E+02  0.00000000000E+00 0.  1.
         21   -1    0    0  501  503 -0.00000000000E+00 -0.00000000000E+00 -0.70779101561E+01  0.70779101561E+01  0.00000000000E+00 0.  1.
          5    1    1    2  501    0  0.59890216221E+01 -0.39191022289E+01 -0.28421626721E+01  0.90219527224E+01  0.47000000000E+01 0.  1.
         -5    1    1    2    0  502 -0.59890216221E+01  0.39191022289E+01  0.14850478855E+02  0.17142183772E+02  0.47000000000E+01 0.  1.
<mgrwt>
<rscale>  2 0.85625780E+01</rscale>
<asrwt>0</asrwt>
<pdfrwt beam="1">  1       21 0.29363425E-02 0.85625780E+01</pdfrwt>
<pdfrwt beam="2">  1       21 0.10889093E-02 0.85625780E+01</pdfrwt>
<totfact> 0.76934634E+08</totfact>
</mgrwt>
</event>
<event>
 4    1  0.3900819E+006  0.4782420E+01  0.7546771E-02  0.2607263E+00
         21   -1    0    0  501  502  0.00000000000E+00  0.00000000000E+00  0.55470673636E+02  0.55470673636E+02  0.00000000000E+00 0.  1.
         21   -1    0    0  502  503 -0.00000000000E+00 -0.00000000000E+00 -0.41508852439E+00  0.41508852439E+00  0.00000000000E+00 0. -1.
          5    1    1    2  501    0 -0.50926335071E+00 -0.72263044491E+00  0.29810764571E+02  0.30191939789E+02  0.47000000000E+01 0.  1.
         -5    1    1    2    0  503  0.50926335071E+00  0.72263044491E+00  0.25244820541E+02  0.25693822371E+02  0.47000000000E+01 0. -1.
<mgrwt>
<rscale>  2 0.47824203E+01</rscale>
<asrwt>0</asrwt>
<pdfrwt beam="1">  1       21 0.85339439E-02 0.47824203E+01</pdfrwt>
<pdfrwt beam="2">  1       21 0.63859817E-04 0.47824203E+01</pdfrwt>
<totfact> 0.48149714E+09</totfact>
</mgrwt>
</event>
<event>
 4    1  0.3900819E+006  0.6876862E+01  0.7546771E-02  0.2313590E+00
         21   -1    0    0  503  502  0.00000000000E+00  0.00000000000E+00  0.17678769867E+03  0.17678769867E+03  0.00000000000E+00 0. -1.
         21   -1    0    0  501  503 -0.00000000000E+00 -0.00000000000E+00 -0.34795914217E+00  0.34795914217E+00  0.00000000000E+00 0. -1.
          5    1    1    2  501    0 -0.45485529308E+01  0.21241227609E+01  0.45631442255E+02  0.46146719857E+02  0.47000000000E+01 0. -1.
         -5    1    1    2    0  502  0.45485529308E+01 -0.21241227609E+01  0.13080829727E+03  0.13098893795E+03  0.47000000000E+01 0. -1.
<mgrwt>
<rscale>  2 0.68768620E+01</rscale>
<asrwt>0</asrwt>
<pdfrwt beam="1">  1       21 0.27198036E-01 0.68768620E+01</pdfrwt>
<pdfrwt beam="2">  1       21 0.53532317E-04 0.68768620E+01</pdfrwt>
<totfact> 0.13426188E+09</totfact>
</mgrwt>
</event>
<event>
 4    1  0.3900819E+006  0.6987483E+01  0.7546771E-02  0.2302257E+00
         21   -1    0    0  503  502  0.00000000000E+00  0.00000000000E+00  0.10255766631E+02  0.10255766631E+02  0.00000000000E+00 0.  1.
         21   -1    0    0  501  503 -0.00000000000E+00 -0.00000000000E+00 -0.10499988878E+02  0.10499988878E+02  0.00000000000E+00 0.  1.
          5    1    1    2  501    0 -0.19690434531E+01 -0.47809823744E+01 -0.77947026905E+01  0.10468157174E+02  0.47000000000E+01 0.  1.
         -5    1    1    2    0  502  0.19690434531E+01  0.47809823744E+01  0.75504804429E+01  0.10287598335E+02  0.47000000000E+01 0.  1.
<mgrwt>
<rscale>  2 0.69874834E+01</rscale>
<asrwt>0</asrwt>
<pdfrwt beam="1">  1       21 0.15778102E-02 0.69874834E+01</pdfrwt>
<pdfrwt beam="2">  1       21 0.16153829E-02 0.69874834E+01</pdfrwt>
<totfact> 0.94083593E+08</totfact>
</mgrwt>
</event>
<event>
 4    1  0.3900819E+006  0.5222058E+01  0.7546771E-02  0.2529207E+00
         21   -1    0    0  503  502  0.00000000000E+00  0.00000000000E+00  0.19606754874E+00  0.19606754874E+00  0.00000000000E+00 0.  1.
         21   -1    0    0  501  503 -0.00000000000E+00 -0.00000000000E+00 -0.13923534467E+03  0.13923534467E+03  0.00000000000E+00 0.  1.
          5    1    1    2  501    0  0.18705399215E+01  0.12965239133E+01 -0.67222517591E+02  0.67425045533E+02  0.47000000000E+01 0.  1.
         -5    1    1    2    0  502 -0.18705399215E+01 -0.12965239133E+01 -0.71816759533E+02  0.72006366689E+02  0.47000000000E+01 0.  1.
<mgrwt>
<rscale>  2 0.52220584E+01</rscale>
<asrwt>0</asrwt>
<pdfrwt beam="1">  1       21 0.30164264E-04 0.52220584E+01</pdfrwt>
<pdfrwt beam="2">  1       21 0.21420804E-01 0.52220584E+01</pdfrwt>
<totfact> 0.34243518E+09</totfact>
</mgrwt>
</event>
<event>
 4    1  0.3900819E+006  0.5238689E+01  0.7546771E-02  0.2526476E+00
         21   -1    0    0  503  502  0.00000000000E+00  0.00000000000E+00  0.24629278051E+00  0.24629278051E+00  0.00000000000E+00 0.  1.
         21   -1    0    0  501  503 -0.00000000000E+00 -0.00000000000E+00 -0.16124730245E+03  0.16124730245E+03  0.00000000000E+00 0.  1.
          5    1    1    2  501    0 -0.15858721566E+01  0.16848962400E+01 -0.12538317805E+03  0.12549257031E+03  0.47000000000E+01 0.  1.
         -5    1    1    2    0  502  0.15858721566E+01 -0.16848962400E+01 -0.35617831616E+02  0.36001024914E+02  0.47000000000E+01 0.  1.
<mgrwt>
<rscale>  2 0.52386893E+01</rscale>
<asrwt>0</asrwt>
<pdfrwt beam="1">  1       21 0.37891340E-04 0.52386893E+01</pdfrwt>
<pdfrwt beam="2">  1       21 0.24807184E-01 0.52386893E+01</pdfrwt>
<totfact> 0.20007145E+09</totfact>
</mgrwt>
</event>
<event>
 4    1  0.3900819E+006  0.8045160E+01  0.7546771E-02  0.2206966E+00
         21   -1    0    0  503  502  0.00000000000E+00  0.00000000000E+00  0.29373106477E+00  0.29373106477E+00  0.00000000000E+00 0.  1.
         21   -1    0    0  501  503 -0.00000000000E+00 -0.00000000000E+00 -0.23585330626E+03  0.23585330626E+03  0.00000000000E+00 0. -1.
          5    1    1    2  501    0 -0.23014499793E+01 -0.61104765263E+01 -0.14804879143E+03  0.14826722240E+03  0.47000000000E+01 0.  1.
         -5    1    1    2    0  502  0.23014499793E+01  0.61104765263E+01 -0.87510783773E+02  0.87879814929E+02  0.47000000000E+01 0. -1.
<mgrwt>
<rscale>  2 0.80451597E+01</rscale>
<asrwt>0</asrwt>
<pdfrwt beam="1">  1       21 0.45189585E-04 0.80451597E+01</pdfrwt>
<pdfrwt beam="2">  1       21 0.36284971E-01 0.80451597E+01</pdfrwt>
<totfact> 0.11406357E+09</totfact>
</mgrwt>
</event>
<event>
 4    1  0.3900819E+006  0.1904544E+02  0.7546771E-02  0.1765005E+00
         21   -1    0    0  501  502  0.00000000000E+00  0.00000000000E+00  0.51002732652E+02  0.51002732652E+02  0.00000000000E+00 0.  1.
         21   -1    0    0  502  503 -0.00000000000E+00 -0.00000000000E+00 -0.71481396214E+01  0.71481396214E+01  0.00000000000E+00 0.  1.
          5    1    1    2  501    0  0.15360566695E+02 -0.10231907433E+02  0.23996081436E+02  0.30635614294E+02  0.47000000000E+01 0.  1.
         -5    1    1    2    0  503 -0.15360566695E+02  0.10231907433E+02  0.19858511595E+02  0.27515257979E+02  0.47000000000E+01 0.  1.
<mgrwt>
<rscale>  2 0.19045444E+02</rscale>
<asrwt>0</asrwt>
<pdfrwt beam="1">  1       21 0.78465740E-02 0.19045444E+02</pdfrwt>
<pdfrwt beam="2">  1       21 0.10997138E-02 0.19045444E+02</pdfrwt>
<totfact> 0.24194783E+08</totfact>
</mgrwt>
</event>
<event>
 4    1  0.3900819E+006  0.4735822E+01  0.7546771E-02  0.2616267E+00
         21   -1    0    0  503  502  0.00000000000E+00  0.00000000000E+00  0.15691005818E+04  0.15691005818E+04  0.00000000000E+00 0. -1.
         21   -1    0    0  501  503 -0.00000000000E+00 -0.00000000000E+00 -0.35799846599E-01  0.35799846599E-01  0.00000000000E+00 0. -1.
          5    1    1    2  501    0  0.55634944327E+00 -0.16878197134E+00  0.17643524551E+03  0.17649879283E+03  0.47000000000E+01 0. -1.
         -5    1    1    2    0  502 -0.55634944327E+00  0.16878197134E+00  0.13926295364E+04  0.13926375888E+04  0.47000000000E+01 0. -1.
<mgrwt>
<rscale>  2 0.47358222E+01</rscale>
<asrwt>0</asrwt>
<pdfrwt beam="1">  1       21 0.24134502E+00 0.47358222E+01</pdfrwt>
<pdfrwt beam="2">  1       21 0.55089254E-05 0.47358222E+01</pdfrwt>
<totfact> 0.30652104E+08</totfact>
</mgrwt>
</event>
<event>
 4    1  0.3900819E+006  0.4265210E+02  0.7546771E-02  0.1489555E+00
         21   -1    0    0  501  502  0.00000000000E+00  0.00000000000E+00  0.13009240077E+03  0.13009240077E+03  0.00000000000E+00 0. -1.
         21   -1    0    0  502  503 -0.00000000000E+00 -0.00000000000E+00 -0.17989101944E+02  0.17989101944E+02  0.00000000000E+00 0.  1.
          5    1    1    2  501    0 -0.39512288299E+02  0.15358729775E+02  0.90987980245E+02  0.10048887529E+03  0.47000000000E+01 0. -1.
         -5    1    1    2    0  503  0.39512288299E+02 -0.15358729775E+02  0.21115318584E+02  0.47592627432E+02  0.47000000000E+01 0.  1.
<mgrwt>
<rscale>  2 0.42652099E+02</rscale>
<asrwt>0</asrwt>
<pdfrwt beam="1">  1       21 0.20014215E-01 0.42652099E+02</pdfrwt>
<pdfrwt beam="2">  1       21 0.27675542E-02 0.42652099E+02</pdfrwt>
<totfact> 0.14444045E+07</totfact>
</mgrwt>
</event>
<event>
 4    1  0.3900819E+006  0.7044324E+01  0.7546771E-02  0.2296548E+00
         21   -1    0    0  501  502  0.00000000000E+00  0.00000000000E+00  0.24171366112E+00  0.24171366112E+00  0.00000000000E+00 0. -1.
         21   -1    0    0  502  503 -0.00000000000E+00 -0.00000000000E+00 -0.42112940859E+03  0.42112940859E+03  0.00000000000E+00 0.  1.
          5    1    1    2  501    0 -0.40251009533E+01  0.33661652001E+01 -0.59613842286E+02  0.60028599000E+02  0.47000000000E+01 0. -1.
         -5    1    1    2    0  503  0.40251009533E+01 -0.33661652001E+01 -0.36127385264E+03  0.36134252325E+03  0.47000000000E+01 0.  1.
<mgrwt>
<rscale>  2 0.70443244E+01</rscale>
<asrwt>0</asrwt>
<pdfrwt beam="1">  1       21 0.37187317E-04 0.70443244E+01</pdfrwt>
<pdfrwt beam="2">  1       21 0.64788095E-01 0.70443244E+01</pdfrwt>
<totfact> 0.47491420E+08</totfact>
</mgrwt>
</event>
<event>
 4    1  0.3900819E+006  0.6964992E+01  0.7546771E-02  0.2304538E+00
         21   -1    0    0  501  502  0.00000000000E+00  0.00000000000E+00  0.55470881545E+01  0.55470881545E+01  0.00000000000E+00 0. -1.
         21   -1    0    0  502  503 -0.00000000000E+00 -0.00000000000E+00 -0.26088099214E+02  0.26088099214E+02  0.00000000000E+00 0.  1.
          5    1    1    2  501    0 -0.40664220236E+01  0.31440938906E+01  0.26261893046E+01  0.74436539906E+01  0.47000000000E+01 0. -1.
         -5    1    1    2    0  503  0.40664220236E+01 -0.31440938906E+01 -0.23167200364E+02  0.24191533378E+02  0.47000000000E+01 0.  1.
<mgrwt>
<rscale>  2 0.69649921E+01</rscale>
<asrwt>0</asrwt>
<pdfrwt beam="1">  1       21 0.85339816E-03 0.69649921E+01</pdfrwt>
<pdfrwt beam="2">  1       21 0.40135538E-02 0.69649921E+01</pdfrwt>
<totfact> 0.59748168E+08</totfact>
</mgrwt>
</event>
<event>
 4    1  0.3900819E+006  0.7397715E+01  0.7546771E-02  0.2262673E+00
         21   -1    0    0  503  502  0.00000000000E+00  0.00000000000E+00  0.30284819207E+03  0.30284819207E+03  0.00000000000E+00 0. -1.
         21   -1    0    0  501  503 -0.00000000000E+00 -0.00000000000E+00 -0.61791040518E+00  0.61791040518E+00  0.00000000000E+00 0. -1.
          5    1    1    2  501    0 -0.15293025335E+01  0.55043093620E+01  0.23482960110E+02  0.24620633691E+02  0.47000000000E+01 0. -1.
         -5    1    1    2    0  502  0.15293025335E+01 -0.55043093620E+01  0.27874732155E+03  0.27884546878E+03  0.47000000000E+01 0. -1.
<mgrwt>
<rscale>  2 0.73977150E+01</rscale>
<asrwt>0</asrwt>
<pdfrwt beam="1">  1       21 0.46591911E-01 0.73977150E+01</pdfrwt>
<pdfrwt beam="2">  1       21 0.95063381E-04 0.73977150E+01</pdfrwt>
<totfact> 0.25337909E+08</totfact>
</mgrwt>
</event>
<event>
 4    1  0.3900819E+006  0.6563934E+01  0.7546771E-02  0.2347338E+00
         21   -1    0    0  503  502  0.00000000000E+00  0.00000000000E+00  0.10644663675E+02  0.10644663675E+02  0.00000000000E+00 0. -1.
         21   -1    0    0  501  503 -0.00000000000E+00 -0.00000000000E+00 -0.60836347097E+01  0.60836347097E+01  0.00000000000E+00 0.  1.
          5    1    1    2  501    0  0.43530970002E+01 -0.14303054723E+01 -0.25582438444E+01  0.70448448389E+01  0.47000000000E+01 0.  1.
         -5    1    1    2    0  502 -0.43530970002E+01  0.14303054723E+01  0.71192728100E+01  0.96834535462E+01  0.47000000000E+01 0.  1.
<mgrwt>
<rscale>  2 0.65639338E+01</rscale>
<asrwt>0</asrwt>
<pdfrwt beam="1">  1       21 0.16376406E-02 0.65639338E+01</pdfrwt>
<pdfrwt beam="2">  1       21 0.93594380E-03 0.65639338E+01</pdfrwt>
<totfact> 0.18547644E+09</totfact>
</mgrwt>
</event>
<event>
 4    1  0.3900819E+006  0.5411674E+01  0.7546771E-02  0.2498925E+00
         21   -1    0    0  503  502  0.00000000000E+00  0.00000000000E+00  0.18085352691E+04  0.18085352691E+04  0.00000000000E+00 0. -1.
         21   -1    0    0  501  503 -0.00000000000E+00 -0.00000000000E+00 -0.18420481436E-01  0.18420481436E-01  0.00000000000E+00 0. -1.
          5    1    1    2  501    0  0.26824412088E+01  0.26971024718E-01  0.58982749075E+03  0.58985231631E+03  0.47000000000E+01 0. -1.
         -5    1    1    2    0  502 -0.26824412088E+01 -0.26971024718E-01  0.12186893578E+04  0.12187013732E+04  0.47000000000E+01 0. -1.
<mgrwt>
<rscale>  2 0.54116743E+01</rscale>
<asrwt>0</asrwt>
<pdfrwt beam="1">  1       21 0.27809405E+00 0.54116743E+01</pdfrwt>
<pdfrwt beam="2">  1       21 0.28353687E-05 0.54116743E+01</pdfrwt>
<totfact> 0.58749902E+08</totfact>
</mgrwt>
</event>
<event>
 4    1  0.3900819E+006  0.5655311E+01  0.7546771E-02  0.2462567E+00
         21   -1    0    0  501  502  0.00000000000E+00  0.00000000000E+00  0.17306538373E+03  0.17306538373E+03  0.00000000000E+00 0.  1.
         21   -1    0    0  502  503 -0.00000000000E+00 -0.00000000000E+00 -0.19086762013E+00  0.19086762013E+00  0.00000000000E+00 0.  1.
          5    1    1    2  501    0 -0.31339614807E+01  0.26614099726E+00  0.10188229739E+03  0.10203913498E+03  0.47000000000E+01 0.  1.
         -5    1    1    2    0  503  0.31339614807E+01 -0.26614099726E+00  0.70992218721E+02  0.71217116373E+02  0.47000000000E+01 0.  1.
<mgrwt>
<rscale>  2 0.56553113E+01</rscale>
<asrwt>0</asrwt>
<pdfrwt beam="1">  1       21 0.26625318E-01 0.56553113E+01</pdfrwt>
<pdfrwt beam="2">  1       21 0.29364388E-04 0.56553113E+01</pdfrwt>
<totfact> 0.26717854E+09</totfact>
</mgrwt>
</event>
<event>
 4    1  0.3900819E+006  0.6659595E+01  0.7546771E-02  0.2336744E+00
         21   -1    0    0  503  502  0.00000000000E+00  0.00000000000E+00  0.21448394884E+00  0.21448394884E+00  0.00000000000E+00 0.  1.
         21   -1    0    0  501  503 -0.00000000000E+00 -0.00000000000E+00 -0.21745008974E+03  0.21745008974E+03  0.00000000000E+00 0. -1.
          5    1    1    2  501    0  0.42331466737E+01  0.20834277316E+01 -0.13273000371E+03  0.13289696794E+03  0.47000000000E+01 0. -1.
         -5    1    1    2    0  502 -0.42331466737E+01 -0.20834277316E+01 -0.84505602079E+02  0.84767605751E+02  0.47000000000E+01 0.  1.
<mgrwt>
<rscale>  2 0.66595947E+01</rscale>
<asrwt>0</asrwt>
<pdfrwt beam="1">  1       21 0.32997512E-04 0.66595947E+01</pdfrwt>
<pdfrwt beam="2">  1       21 0.33453879E-01 0.66595947E+01</pdfrwt>
<totfact> 0.17679869E+09</totfact>
</mgrwt>
</event>
<event>
 4    1  0.3900819E+006  0.5011713E+01  0.7546771E-02  0.2565080E+00
         21   -1    0    0  501  502  0.00000000000E+00  0.00000000000E+00  0.21205403378E+01  0.21205403378E+01  0.00000000000E+00 0. -1.
         21   -1    0    0  502  503 -0.00000000000E+00 -0.00000000000E+00 -0.11948251539E+02  0.11948251539E+02  0.00000000000E+00 0.  1.
          5    1    1    2  501    0  0.85604371588E+00 -0.15147462564E+01 -0.42591423909E+01  0.65770480438E+01  0.47000000000E+01 0. -1.
         -5    1    1    2    0  503 -0.85604371588E+00  0.15147462564E+01 -0.55685688103E+01  0.74917438330E+01  0.47000000000E+01 0.  1.
<mgrwt>
<rscale>  2 0.50117130E+01</rscale>
<asrwt>0</asrwt>
<pdfrwt beam="1">  1       21 0.32623697E-03 0.50117130E+01</pdfrwt>
<pdfrwt beam="2">  1       21 0.18381926E-02 0.50117130E+01</pdfrwt>
<totfact> 0.52903025E+09</totfact>
</mgrwt>
</event>
<event>
 4    1  0.3900819E+006  0.4764128E+01  0.7546771E-02  0.2610779E+00
         21   -1    0    0  503  502  0.00000000000E+00  0.00000000000E+00  0.15370548209E+00  0.15370548209E+00  0.00000000000E+00 0. -1.
         21   -1    0    0  501  503 -0.00000000000E+00 -0.00000000000E+00 -0.65270598713E+03  0.65270598713E+03  0.00000000000E+00 0. -1.
          5    1    1    2  501    0  0.75437963606E+00 -0.19448624103E+00 -0.61341660166E+03  0.61343510179E+03  0.47000000000E+01 0. -1.
         -5    1    1    2    0  502 -0.75437963606E+00  0.19448624103E+00 -0.39135679989E+02  0.39424590825E+02  0.47000000000E+01 0. -1.
<mgrwt>
<rscale>  2 0.47641278E+01</rscale>
<asrwt>0</asrwt>
<pdfrwt beam="1">  1       21 0.23646429E-04 0.47641278E+01</pdfrwt>
<pdfrwt beam="2">  1       21 0.10041872E+00 0.47641278E+01</pdfrwt>
<totfact> 0.28367387E+08</totfact>
</mgrwt>
</event>
<event>
 4    1  0.3900819E+006  0.5989346E+01  0.7546771E-02  0.2416812E+00
         21   -1    0    0  501  502  0.00000000000E+00  0.00000000000E+00  0.15801577408E+04  0.15801577408E+04  0.00000000000E+00 0.  1.
         21   -1    0    0  502  503 -0.00000000000E+00 -0.00000000000E+00 -0.22931180122E-01  0.22931180122E-01  0.00000000000E+00 0.  1.
          5    1    1    2  501    0 -0.36698397953E+01  0.56083715434E+00  0.71102888351E+03  0.71105410866E+03  0.47000000000E+01 0.  1.
         -5    1    1    2    0  503  0.36698397953E+01 -0.56083715434E+00  0.86910592615E+03  0.86912656336E+03  0.47000000000E+01 0.  1.
<mgrwt>
<rscale>  2 0.59893457E+01</rscale>
<asrwt>0</asrwt>
<pdfrwt beam="1">  1       21 0.24301401E+00 0.59893457E+01</pdfrwt>
<pdfrwt beam="2">  1       21 0.35291395E-05 0.59893457E+01</pdfrwt>
<totfact> 0.63041102E+08</totfact>
</mgrwt>
</event>
<event>
 4    1  0.3900819E+006  0.5105225E+01  0.7546771E-02  0.2548819E+00
         21   -1    0    0  501  502  0.00000000000E+00  0.00000000000E+00  0.13423298674E+02  0.13423298674E+02  0.00000000000E+00 0.  1.
         21   -1    0    0  502  503 -0.00000000000E+00 -0.00000000000E+00 -0.19477388375E+01  0.19477388375E+01  0.00000000000E+00 0.  1.
          5    1    1    2  501    0  0.17847037324E+01  0.88777863747E+00  0.53079926885E+01  0.73646523817E+01  0.47000000000E+01 0.  1.
         -5    1    1    2    0  503 -0.17847037324E+01 -0.88777863747E+00  0.61675671478E+01  0.80063851297E+01  0.47000000000E+01 0.  1.
<mgrwt>
<rscale>  2 0.51052246E+01</rscale>
<asrwt>0</asrwt>
<pdfrwt beam="1">  1       21 0.20651228E-02 0.51052246E+01</pdfrwt>
<pdfrwt beam="2">  1       21 0.29965214E-03 0.51052246E+01</pdfrwt>
<totfact> 0.51341864E+09</totfact>
</mgrwt>
</event>
<event>
 4    1  0.3900819E+006  0.6352231E+01  0.7546771E-02  0.2371717E+00
         21   -1    0    0  503  502  0.00000000000E+00  0.00000000000E+00  0.61485027178E+03  0.61485027178E+03  0.00000000000E+00 0. -1.
         21   -1    0    0  501  503 -0.00000000000E+00 -0.00000000000E+00 -0.61338769852E+00  0.61338769852E+00  0.00000000000E+00 0.  1.
          5    1    1    2  501    0 -0.34453487072E+01 -0.25279267710E+01  0.16314504905E+02  0.17507538712E+02  0.47000000000E+01 0.  1.
         -5    1    1    2    0  502  0.34453487072E+01  0.25279267710E+01  0.59792237918E+03  0.59795612077E+03  0.47000000000E+01 0. -1.
<mgrwt>
<rscale>  2 0.63522312E+01</rscale>
<asrwt>0</asrwt>
<pdfrwt beam="1">  1       21 0.94591857E-01 0.63522312E+01</pdfrwt>
<pdfrwt beam="2">  1       21 0.94367830E-04 0.63522312E+01</pdfrwt>
<totfact> 0.61044258E+07</totfact>
</mgrwt>
</event>
<event>
 4    1  0.3900819E+006  0.5207070E+01  0.7546771E-02  0.2531681E+00
         21   -1    0    0  501  502  0.00000000000E+00  0.00000000000E+00  0.68773861527E+01  0.68773861527E+01  0.00000000000E+00 0.  1.
         21   -1    0    0  502  503 -0.00000000000E+00 -0.00000000000E+00 -0.11289975540E+02  0.11289975540E+02  0.00000000000E+00 0.  1.
          5    1    1    2  501    0 -0.94026746869E+00 -0.20345707792E+01  0.51217253507E+01  0.73038107681E+01  0.47000000000E+01 0.  1.
         -5    1    1    2    0  503  0.94026746869E+00  0.20345707792E+01 -0.95343147377E+01  0.10863550924E+02  0.47000000000E+01 0.  1.
<mgrwt>
<rscale>  2 0.52070703E+01</rscale>
<asrwt>0</asrwt>
<pdfrwt beam="1">  1       21 0.10580594E-02 0.52070703E+01</pdfrwt>
<pdfrwt beam="2">  1       21 0.17369193E-02 0.52070703E+01</pdfrwt>
<totfact> 0.11741613E+09</totfact>
</mgrwt>
</event>
<event>
 4    1  0.3900819E+006  0.7484307E+01  0.7546771E-02  0.2254772E+00
         21   -1    0    0  501  502  0.00000000000E+00  0.00000000000E+00  0.12263607985E+03  0.12263607985E+03  0.00000000000E+00 0. -1.
         21   -1    0    0  502  503 -0.00000000000E+00 -0.00000000000E+00 -0.10480978364E+01  0.10480978364E+01  0.00000000000E+00 0.  1.
          5    1    1    2  501    0  0.48669736199E+01  0.31995968304E+01  0.10724576251E+03  0.10750659714E+03  0.47000000000E+01 0. -1.
         -5    1    1    2    0  503 -0.48669736199E+01 -0.31995968304E+01  0.14342219510E+02  0.16177580554E+02  0.47000000000E+01 0.  1.
<mgrwt>
<rscale>  2 0.74843071E+01</rscale>
<asrwt>0</asrwt>
<pdfrwt beam="1">  1       21 0.18867078E-01 0.74843071E+01</pdfrwt>
<pdfrwt beam="2">  1       21 0.16124592E-03 0.74843071E+01</pdfrwt>
<totfact> 0.58339882E+08</totfact>
</mgrwt>
</event>
<event>
 4    1  0.3900819E+006  0.4729154E+01  0.7546771E-02  0.2617568E+00
         21   -1    0    0  501  502  0.00000000000E+00  0.00000000000E+00  0.28175323777E+00  0.28175323777E+00  0.00000000000E+00 0. -1.
         21   -1    0    0  502  503 -0.00000000000E+00 -0.00000000000E+00 -0.15510411796E+03  0.15510411796E+03  0.00000000000E+00 0. -1.
          5    1    1    2  501    0  0.39882498547E+00  0.34034464578E+00 -0.23124430079E+02  0.23603054089E+02  0.47000000000E+01 0. -1.
         -5    1    1    2    0  503 -0.39882498547E+00 -0.34034464578E+00 -0.13169793464E+03  0.13178281711E+03  0.47000000000E+01 0. -1.
<mgrwt>
<rscale>  2 0.47291538E+01</rscale>
<asrwt>0</asrwt>
<pdfrwt beam="1">  1       21 0.43346621E-04 0.47291538E+01</pdfrwt>
<pdfrwt beam="2">  1       21 0.23862189E-01 0.47291538E+01</pdfrwt>
<totfact> 0.16218314E+09</totfact>
</mgrwt>
</event>
<event>
 4    1  0.3900819E+006  0.6537467E+01  0.7546771E-02  0.2350314E+00
         21   -1    0    0  503  502  0.00000000000E+00  0.00000000000E+00  0.18479004170E+03  0.18479004170E+03  0.00000000000E+00 0. -1.
         21   -1    0    0  501  503 -0.00000000000E+00 -0.00000000000E+00 -0.39606187016E+00  0.39606187016E+00  0.00000000000E+00 0.  1.
          5    1    1    2  501    0 -0.44683681225E+01  0.82593098947E+00  0.32472847765E+02  0.33124376487E+02  0.47000000000E+01 0.  1.
         -5    1    1    2    0  502  0.44683681225E+01 -0.82593098947E+00  0.15192113207E+03  0.15206172709E+03  0.47000000000E+01 0. -1.
<mgrwt>
<rscale>  2 0.65374671E+01</rscale>
<asrwt>0</asrwt>
<pdfrwt beam="1">  1       21 0.28429168E-01 0.65374671E+01</pdfrwt>
<pdfrwt beam="2">  1       21 0.60932743E-04 0.65374671E+01</pdfrwt>
<totfact> 0.10101217E+09</totfact>
</mgrwt>
</event>
<event>
 4    1  0.3900819E+006  0.5054040E+01  0.7546771E-02  0.2557656E+00
         21   -1    0    0  501  502  0.00000000000E+00  0.00000000000E+00  0.36862970115E+02  0.36862970115E+02  0.00000000000E+00 0.  1.
         21   -1    0    0  502  503 -0.00000000000E+00 -0.00000000000E+00 -0.10856097573E+01  0.10856097573E+01  0.00000000000E+00 0.  1.
          5    1    1    2  501    0 -0.46928394645E+00 -0.17980794368E+01  0.29300371942E+02  0.29733064306E+02  0.47000000000E+01 0.  1.
         -5    1    1    2    0  503  0.46928394645E+00  0.17980794368E+01  0.64769884157E+01  0.82155155663E+01  0.47000000000E+01 0.  1.
<mgrwt>
<rscale>  2 0.50540397E+01</rscale>
<asrwt>0</asrwt>
<pdfrwt beam="1">  1       21 0.56712252E-02 0.50540397E+01</pdfrwt>
<pdfrwt beam="2">  1       21 0.16701691E-03 0.50540397E+01</pdfrwt>
<totfact> 0.26014041E+09</totfact>
</mgrwt>
</event>
<event>
 4    1  0.3900819E+006  0.4723242E+01  0.7546771E-02  0.2618724E+00
         21   -1    0    0  503  502  0.00000000000E+00  0.00000000000E+00  0.23587330643E+01  0.23587330643E+01  0.00000000000E+00 0. -1.
         21   -1    0    0  501  503 -0.00000000000E+00 -0.00000000000E+00 -0.56374149107E+02  0.56374149107E+02  0.00000000000E+00 0. -1.
          5    1    1    2  501    0 -0.22375774379E+00  0.41103026716E+00 -0.53797680586E+02  0.54004624338E+02  0.47000000000E+01 0. -1.
         -5    1    1    2    0  502  0.22375774379E+00 -0.41103026716E+00 -0.21773545622E+00  0.47282578332E+01  0.47000000000E+01 0. -1.
<mgrwt>
<rscale>  2 0.47232418E+01</rscale>
<asrwt>0</asrwt>
<pdfrwt beam="1">  1       21 0.36288202E-03 0.47232418E+01</pdfrwt>
<pdfrwt beam="2">  1       21 0.86729458E-02 0.47232418E+01</pdfrwt>
<totfact> 0.45609670E+08</totfact>
</mgrwt>
</event>
<event>
 4    1  0.3900819E+006  0.6087284E+01  0.7546771E-02  0.2404200E+00
         21   -1    0    0  501  502  0.00000000000E+00  0.00000000000E+00  0.57583637716E+00  0.57583637716E+00  0.00000000000E+00 0. -1.
         21   -1    0    0  502  503 -0.00000000000E+00 -0.00000000000E+00 -0.21369878794E+03  0.21369878794E+03  0.00000000000E+00 0. -1.
          5    1    1    2  501    0  0.20753172826E+01  0.32646724588E+01 -0.16995991924E+02  0.18053220476E+02  0.47000000000E+01 0. -1.
         -5    1    1    2    0  503 -0.20753172826E+01 -0.32646724588E+01 -0.19612695964E+03  0.19622140384E+03  0.47000000000E+01 0. -1.
<mgrwt>
<rscale>  2 0.60872841E+01</rscale>
<asrwt>0</asrwt>
<pdfrwt beam="1">  1       21 0.88590023E-04 0.60872841E+01</pdfrwt>
<pdfrwt beam="2">  1       21 0.32876807E-01 0.60872841E+01</pdfrwt>
<totfact> 0.45398521E+08</totfact>
</mgrwt>
</event>
<event>
 4    1  0.3900819E+006  0.7013086E+01  0.7546771E-02  0.2299676E+00
         21   -1    0    0  501  502  0.00000000000E+00  0.00000000000E+00  0.35994145658E+02  0.35994145658E+02  0.00000000000E+00 0. -1.
         21   -1    0    0  502  503 -0.00000000000E+00 -0.00000000000E+00 -0.27207370165E+01  0.27207370165E+01  0.00000000000E+00 0. -1.
          5    1    1    2  501    0 -0.35315966675E+00 -0.51931355585E+01  0.30293967760E+02  0.31095142086E+02  0.47000000000E+01 0. -1.
         -5    1    1    2    0  503  0.35315966675E+00  0.51931355585E+01  0.29794408818E+01  0.76197405892E+01  0.47000000000E+01 0. -1.
<mgrwt>
<rscale>  2 0.70130862E+01</rscale>
<asrwt>0</asrwt>
<pdfrwt beam="1">  1       21 0.55375605E-02 0.70130862E+01</pdfrwt>
<pdfrwt beam="2">  1       21 0.41857495E-03 0.70130862E+01</pdfrwt>
<totfact> 0.10112279E+09</totfact>
</mgrwt>
</event>
<event>
 4    1  0.3900819E+006  0.6499131E+01  0.7546771E-02  0.2354660E+00
         21   -1    0    0  503  502  0.00000000000E+00  0.00000000000E+00  0.99345523565E+02  0.99345523565E+02  0.00000000000E+00 0.  1.
         21   -1    0    0  501  503 -0.00000000000E+00 -0.00000000000E+00 -0.11495723308E+01  0.11495723308E+01  0.00000000000E+00 0.  1.
          5    1    1    2  501    0 -0.15019044311E+01  0.42300095182E+01  0.92104809797E+01  0.11272606501E+02  0.47000000000E+01 0.  1.
         -5    1    1    2    0  502  0.15019044311E+01 -0.42300095182E+01  0.88985470254E+02  0.89222489395E+02  0.47000000000E+01 0.  1.
<mgrwt>
<rscale>  2 0.64991305E+01</rscale>
<asrwt>0</asrwt>
<pdfrwt beam="1">  1       21 0.15283920E-01 0.64991305E+01</pdfrwt>
<pdfrwt beam="2">  1       21 0.17685736E-03 0.64991305E+01</pdfrwt>
<totfact> 0.65643483E+08</totfact>
</mgrwt>
</event>
<event>
 4    1  0.3900819E+006  0.5602748E+01  0.7546771E-02  0.2470184E+00
         21   -1    0    0  501  502  0.00000000000E+00  0.00000000000E+00  0.57426585671E+01  0.57426585671E+01  0.00000000000E+00 0.  1.
         21   -1    0    0  502  503 -0.00000000000E+00 -0.00000000000E+00 -0.56321686788E+01  0.56321686788E+01  0.00000000000E+00 0. -1.
          5    1    1    2  501    0 -0.29887735145E+01 -0.60664095545E+00  0.10314269233E+01  0.56968958098E+01  0.47000000000E+01 0.  1.
         -5    1    1    2    0  503  0.29887735145E+01  0.60664095545E+00 -0.92093703495E+00  0.56779314360E+01  0.47000000000E+01 0.  1.
<mgrwt>
<rscale>  2 0.56027476E+01</rscale>
<asrwt>0</asrwt>
<pdfrwt beam="1">  1       21 0.88348593E-03 0.56027476E+01</pdfrwt>
<pdfrwt beam="2">  1       21 0.86648749E-03 0.56027476E+01</pdfrwt>
<totfact> 0.43147947E+09</totfact>
</mgrwt>
</event>
<event>
 4    1  0.3900819E+006  0.7563145E+01  0.7546771E-02  0.2247706E+00
         21   -1    0    0  503  502  0.00000000000E+00  0.00000000000E+00  0.17447034014E+03  0.17447034014E+03  0.00000000000E+00 0. -1.
         21   -1    0    0  501  503 -0.00000000000E+00 -0.00000000000E+00 -0.64612849529E+00  0.64612849529E+00  0.00000000000E+00 0.  1.
          5    1    1    2  501    0 -0.45217436803E+01  0.38294910978E+01  0.25459964083E+02  0.26559573398E+02  0.47000000000E+01 0. -1.
         -5    1    1    2    0  502  0.45217436803E+01 -0.38294910978E+01  0.14836424756E+03  0.14855689524E+03  0.47000000000E+01 0.  1.
<mgrwt>
<rscale>  2 0.75631454E+01</rscale>
<asrwt>0</asrwt>
<pdfrwt beam="1">  1       21 0.26841553E-01 0.75631454E+01</pdfrwt>
<pdfrwt beam="2">  1       21 0.99404523E-04 0.75631454E+01</pdfrwt>
<totfact> 0.63319793E+08</totfact>
</mgrwt>
</event>
<event>
 4    1  0.3900819E+006  0.5467963E+01  0.7546771E-02  0.2490282E+00
         21   -1    0    0  501  502  0.00000000000E+00  0.00000000000E+00  0.11696857774E+02  0.11696857774E+02  0.00000000000E+00 0. -1.
         21   -1    0    0  502  503 -0.00000000000E+00 -0.00000000000E+00 -0.26646805971E+01  0.26646805971E+01  0.00000000000E+00 0. -1.
          5    1    1    2  501    0 -0.27842629297E+01  0.23768798443E+00  0.59654511944E+01  0.80922940871E+01  0.47000000000E+01 0. -1.
         -5    1    1    2    0  503  0.27842629297E+01 -0.23768798443E+00  0.30667259823E+01  0.62692442838E+01  0.47000000000E+01 0. -1.
<mgrwt>
<rscale>  2 0.54679627E+01</rscale>
<asrwt>0</asrwt>
<pdfrwt beam="1">  1       21 0.17995166E-02 0.54679627E+01</pdfrwt>
<pdfrwt beam="2">  1       21 0.40995087E-03 0.54679627E+01</pdfrwt>
<totfact> 0.43628338E+09</totfact>
</mgrwt>
</event>
<event>
 4    1  0.3900819E+006  0.8021582E+01  0.7546771E-02  0.2208867E+00
         21   -1    0    0  503  502  0.00000000000E+00  0.00000000000E+00  0.12537093570E+02  0.12537093570E+02  0.00000000000E+00 0. -1.
         21   -1    0    0  501  503 -0.00000000000E+00 -0.00000000000E+00 -0.51464555090E+01  0.51464555090E+01  0.00000000000E+00 0.  1.
          5    1    1    2  501    0 -0.37469358684E+01 -0.53118962390E+01  0.41568769793E+01  0.90346774307E+01  0.47000000000E+01 0. -1.
         -5    1    1    2    0  502  0.37469358684E+01  0.53118962390E+01  0.32337610818E+01  0.86488716484E+01  0.47000000000E+01 0.  1.
<mgrwt>
<rscale>  2 0.80215815E+01</rscale>
<asrwt>0</asrwt>
<pdfrwt beam="1">  1       21 0.19287836E-02 0.80215815E+01</pdfrwt>
<pdfrwt beam="2">  1       21 0.79176239E-03 0.80215815E+01</pdfrwt>
<totfact> 0.21611025E+09</totfact>
</mgrwt>
</event>
<event>
 4    1  0.3900819E+006  0.6621798E+01  0.7546771E-02  0.2340899E+00
         21   -1    0    0  503  502  0.00000000000E+00  0.00000000000E+00  0.65290667495E+03  0.65290667495E+03  0.00000000000E+00 0.  1.
         21   -1    0    0  501  503 -0.00000000000E+00 -0.00000000000E+00 -0.19956621276E+00  0.19956621276E+00  0.00000000000E+00 0. -1.
          5    1    1    2  501    0 -0.67285374397E+00 -0.46157853677E+01  0.60362495660E+02  0.60724616829E+02  0.47000000000E+01 0. -1.
         -5    1    1    2    0  502  0.67285374397E+00  0.46157853677E+01  0.59234461308E+03  0.59238162434E+03  0.47000000000E+01 0.  1.
<mgrwt>
<rscale>  2 0.66217978E+01</rscale>
<asrwt>0</asrwt>
<pdfrwt beam="1">  1       21 0.10044547E+00 0.66217978E+01</pdfrwt>
<pdfrwt beam="2">  1       21 0.30703017E-04 0.66217978E+01</pdfrwt>
<totfact> 0.24996641E+08</totfact>
</mgrwt>
</event>
<event>
 4    1  0.3900819E+006  0.6562537E+01  0.7546771E-02  0.2347494E+00
         21   -1    0    0  501  502  0.00000000000E+00  0.00000000000E+00  0.40377207629E+03  0.40377207629E+03  0.00000000000E+00 0.  1.
         21   -1    0    0  502  503 -0.00000000000E+00 -0.00000000000E+00 -0.19360494278E+00  0.19360494278E+00  0.00000000000E+00 0. -1.
          5    1    1    2  501    0 -0.45614503536E+01 -0.41239054571E+00  0.33714442777E+03  0.33720829182E+03  0.47000000000E+01 0.  1.
         -5    1    1    2    0  503  0.45614503536E+01  0.41239054571E+00  0.66434043578E+02  0.66757389414E+02  0.47000000000E+01 0. -1.
<mgrwt>
<rscale>  2 0.65625373E+01</rscale>
<asrwt>0</asrwt>
<pdfrwt beam="1">  1       21 0.62118107E-01 0.65625373E+01</pdfrwt>
<pdfrwt beam="2">  1       21 0.29785699E-04 0.65625373E+01</pdfrwt>
<totfact> 0.66215020E+08</totfact>
</mgrwt>
</event>
<event>
 4    1  0.3900819E+006  0.5670625E+01  0.7546771E-02  0.2460371E+00
         21   -1    0    0  503  502  0.00000000000E+00  0.00000000000E+00  0.36883054381E+02  0.36883054381E+02  0.00000000000E+00 0.  1.
         21   -1    0    0  501  503 -0.00000000000E+00 -0.00000000000E+00 -0.88772952732E+00  0.88772952732E+00  0.00000000000E+00 0. -1.
          5    1    1    2  501    0 -0.29490771602E+01  0.11700135827E+01  0.15470745896E+02  0.16477256035E+02  0.47000000000E+01 0. -1.
         -5    1    1    2    0  502  0.29490771602E+01 -0.11700135827E+01  0.20524578958E+02  0.21293527873E+02  0.47000000000E+01 0. -1.
<mgrwt>
<rscale>  2 0.56706250E+01</rscale>
<asrwt>0</asrwt>
<pdfrwt beam="1">  1       21 0.56743149E-02 0.56706250E+01</pdfrwt>
<pdfrwt beam="2">  1       21 0.13657380E-03 0.56706250E+01</pdfrwt>
<totfact> 0.38032256E+09</totfact>
</mgrwt>
</event>
<event>
 4    1  0.3900819E+006  0.6275756E+01  0.7546771E-02  0.2380858E+00
         21   -1    0    0  501  502  0.00000000000E+00  0.00000000000E+00  0.34040734938E+00  0.34040734938E+00  0.00000000000E+00 0. -1.
         21   -1    0    0  502  503 -0.00000000000E+00 -0.00000000000E+00 -0.13326917294E+03  0.13326917294E+03  0.00000000000E+00 0.  1.
          5    1    1    2  501    0  0.17448197138E+01 -0.37750119927E+01 -0.42208387508E+02  0.42672392568E+02  0.47000000000E+01 0. -1.
         -5    1    1    2    0  503 -0.17448197138E+01  0.37750119927E+01 -0.90720378082E+02  0.90937187722E+02  0.47000000000E+01 0.  1.
<mgrwt>
<rscale>  2 0.62757558E+01</rscale>
<asrwt>0</asrwt>
<pdfrwt beam="1">  1       21 0.52370270E-04 0.62757558E+01</pdfrwt>
<pdfrwt beam="2">  1       21 0.20502986E-01 0.62757558E+01</pdfrwt>
<totfact> 0.20603140E+09</totfact>
</mgrwt>
</event>
<event>
 4    1  0.3900819E+006  0.8585499E+01  0.7546771E-02  0.2165729E+00
         21   -1    0    0  503  502  0.00000000000E+00  0.00000000000E+00  0.11770124616E+02  0.11770124616E+02  0.00000000000E+00 0. -1.
         21   -1    0    0  501  503 -0.00000000000E+00 -0.00000000000E+00 -0.62625607990E+01  0.62625607990E+01  0.00000000000E+00 0.  1.
          5    1    1    2  501    0 -0.27512108840E+01 -0.66371402263E+01  0.27347245261E+01  0.90105221794E+01  0.47000000000E+01 0.  1.
         -5    1    1    2    0  502  0.27512108840E+01  0.66371402263E+01  0.27728392906E+01  0.90221632353E+01  0.47000000000E+01 0. -1.
<mgrwt>
<rscale>  2 0.85854989E+01</rscale>
<asrwt>0</asrwt>
<pdfrwt beam="1">  1       21 0.18107884E-02 0.85854989E+01</pdfrwt>
<pdfrwt beam="2">  1       21 0.96347089E-03 0.85854989E+01</pdfrwt>
<totfact> 0.18747832E+09</totfact>
</mgrwt>
</event>
<event>
 4    1  0.3900819E+006  0.5968992E+01  0.7546771E-02  0.2419477E+00
         21   -1    0    0  503  502  0.00000000000E+00  0.00000000000E+00  0.41202276062E+02  0.41202276062E+02  0.00000000000E+00 0. -1.
         21   -1    0    0  501  503 -0.00000000000E+00 -0.00000000000E+00 -0.11743155581E+01  0.11743155581E+01  0.00000000000E+00 0.  1.
          5    1    1    2  501    0  0.22579293762E+01  0.29052736231E+01  0.91348619567E+01  0.10912129163E+02  0.47000000000E+01 0.  1.
         -5    1    1    2    0  502 -0.22579293762E+01 -0.29052736231E+01  0.30893098547E+02  0.31464462457E+02  0.47000000000E+01 0. -1.
<mgrwt>
<rscale>  2 0.59689915E+01</rscale>
<asrwt>0</asrwt>
<pdfrwt beam="1">  1       21 0.63388106E-02 0.59689915E+01</pdfrwt>
<pdfrwt beam="2">  1       21 0.18066396E-03 0.59689915E+01</pdfrwt>
<totfact> 0.23116422E+09</totfact>
</mgrwt>
</event>
<event>
 4    1  0.3900819E+006  0.6693992E+01  0.7546771E-02  0.2332996E+00
         21   -1    0    0  503  502  0.00000000000E+00  0.00000000000E+00  0.14763135215E+01  0.14763135215E+01  0.00000000000E+00 0.  1.
         21   -1    0    0  501  503 -0.00000000000E+00 -0.00000000000E+00 -0.30400190651E+02  0.30400190651E+02  0.00000000000E+00 0.  1.
          5    1    1    2  501    0 -0.47266545001E+01  0.61503785864E+00 -0.15094431864E+02  0.16512159387E+02  0.47000000000E+01 0.  1.
         -5    1    1    2    0  502  0.47266545001E+01 -0.61503785864E+00 -0.13829445266E+02  0.15364344786E+02  0.47000000000E+01 0.  1.
<mgrwt>
<rscale>  2 0.66939924E+01</rscale>
<asrwt>0</asrwt>
<pdfrwt beam="1">  1       21 0.22712516E-03 0.66939924E+01</pdfrwt>
<pdfrwt beam="2">  1       21 0.46769524E-02 0.66939924E+01</pdfrwt>
<totfact> 0.29307559E+09</totfact>
</mgrwt>
</event>
<event>
 4    1  0.3900819E+006  0.1076973E+02  0.7546771E-02  0.2033657E+00
         21   -1    0    0  501  502  0.00000000000E+00  0.00000000000E+00  0.40117189031E+02  0.40117189031E+02  0.00000000000E+00 0. -1.
         21   -1    0    0  502  503 -0.00000000000E+00 -0.00000000000E+00 -0.35909097005E+01  0.35909097005E+01  0.00000000000E+00 0.  1.
          5    1    1    2  501    0  0.39803601902E+01  0.88348101768E+01  0.27910003322E+02  0.29915805580E+02  0.47000000000E+01 0. -1.
         -5    1    1    2    0  503 -0.39803601902E+01 -0.88348101768E+01  0.86162760085E+01  0.13792293151E+02  0.47000000000E+01 0.  1.
<mgrwt>
<rscale>  2 0.10769732E+02</rscale>
<asrwt>0</asrwt>
<pdfrwt beam="1">  1       21 0.61718749E-02 0.10769732E+02</pdfrwt>
<pdfrwt beam="2">  1       21 0.55244767E-03 0.10769732E+02</pdfrwt>
<totfact> 0.75641615E+08</totfact>
</mgrwt>
</event>
<event>
 4    1  0.3900819E+006  0.7818325E+01  0.7546771E-02  0.2225633E+00
         21   -1    0    0  501  502  0.00000000000E+00  0.00000000000E+00  0.20436973948E+01  0.20436973948E+01  0.00000000000E+00 0.  1.
         21   -1    0    0  502  503 -0.00000000000E+00 -0.00000000000E+00 -0.59988471523E+02  0.59988471523E+02  0.00000000000E+00 0. -1.
          5    1    1    2  501    0 -0.57038824724E+01 -0.25498885074E+01 -0.70097887863E+01  0.10500635480E+02  0.47000000000E+01 0.  1.
         -5    1    1    2    0  503  0.57038824724E+01  0.25498885074E+01 -0.50934985342E+02  0.51531533437E+02  0.47000000000E+01 0. -1.
<mgrwt>
<rscale>  2 0.78183251E+01</rscale>
<asrwt>0</asrwt>
<pdfrwt beam="1">  1       21 0.31441505E-03 0.78183251E+01</pdfrwt>
<pdfrwt beam="2">  1       21 0.92289937E-02 0.78183251E+01</pdfrwt>
<totfact> 0.74385462E+08</totfact>
</mgrwt>
</event>
<event>
 4    1  0.3900819E+006  0.8327425E+01  0.7546771E-02  0.2184889E+00
         21   -1    0    0  503  502  0.00000000000E+00  0.00000000000E+00  0.24517134524E+00  0.24517134524E+00  0.00000000000E+00 0. -1.
         21   -1    0    0  501  503 -0.00000000000E+00 -0.00000000000E+00 -0.34742228160E+03  0.34742228160E+03  0.00000000000E+00 0.  1.
          5    1    1    2  501    0  0.14041856831E+01 -0.67293591024E+01 -0.24853273707E+03  0.24867220875E+03  0.47000000000E+01 0.  1.
         -5    1    1    2    0  502 -0.14041856831E+01  0.67293591024E+01 -0.98644373188E+02  0.98995244194E+02  0.47000000000E+01 0. -1.
<mgrwt>
<rscale>  2 0.83274253E+01</rscale>
<asrwt>0</asrwt>
<pdfrwt beam="1">  1       21 0.37718994E-04 0.83274253E+01</pdfrwt>
<pdfrwt beam="2">  1       21 0.53449121E-01 0.83274253E+01</pdfrwt>
<totfact> 0.73825384E+08</totfact>
</mgrwt>
</event>
<event>
 4    1  0.3900819E+006  0.1033988E+02  0.7546771E-02  0.2056146E+00
         21   -1    0    0  501  502  0.00000000000E+00  0.00000000000E+00  0.98379070097E+02  0.98379070097E+02  0.00000000000E+00 0. -1.
         21   -1    0    0  502  503 -0.00000000000E+00 -0.00000000000E+00 -0.13056671634E+01  0.13056671634E+01  0.00000000000E+00 0. -1.
          5    1    1    2  501    0  0.90846376723E+01  0.15140769423E+01  0.68945912092E+02  0.69716941017E+02  0.47000000000E+01 0. -1.
         -5    1    1    2    0  503 -0.90846376723E+01 -0.15140769423E+01  0.28127490842E+02  0.29967796244E+02  0.47000000000E+01 0. -1.
<mgrwt>
<rscale>  2 0.10339878E+02</rscale>
<asrwt>0</asrwt>
<pdfrwt beam="1">  1       21 0.15135236E-01 0.10339878E+02</pdfrwt>
<pdfrwt beam="2">  1       21 0.20087195E-03 0.10339878E+02</pdfrwt>
<totfact> 0.74489847E+08</totfact>
</mgrwt>
</event>
<event>
 4    1  0.3900819E+006  0.5214338E+01  0.7546771E-02  0.2530480E+00
         21   -1    0    0  503  502  0.00000000000E+00  0.00000000000E+00  0.21029220807E+03  0.21029220807E+03  0.00000000000E+00 0. -1.
         21   -1    0    0  501  503 -0.00000000000E+00 -0.00000000000E+00 -0.22060472616E+00  0.22060472616E+00  0.00000000000E+00 0.  1.
          5    1    1    2  501    0  0.31080799439E+00  0.22366759569E+01  0.37317775625E+02  0.37680309162E+02  0.47000000000E+01 0.  1.
         -5    1    1    2    0  502 -0.31080799439E+00 -0.22366759569E+01  0.17275382772E+03  0.17283250363E+03  0.47000000000E+01 0. -1.
<mgrwt>
<rscale>  2 0.52143380E+01</rscale>
<asrwt>0</asrwt>
<pdfrwt beam="1">  1       21 0.32352487E-01 0.52143380E+01</pdfrwt>
<pdfrwt beam="2">  1       21 0.33939357E-04 0.52143380E+01</pdfrwt>
<totfact> 0.14862249E+09</totfact>
</mgrwt>
</event>
<event>
 4    1  0.3900819E+006  0.7305112E+01  0.7546771E-02  0.2271291E+00
         21   -1    0    0  503  502  0.00000000000E+00  0.00000000000E+00  0.27626051076E+02  0.27626051076E+02  0.00000000000E+00 0.  1.
         21   -1    0    0  501  503 -0.00000000000E+00 -0.00000000000E+00 -0.15898269345E+02  0.15898269345E+02  0.00000000000E+00 0. -1.
          5    1    1    2  501    0  0.54023928944E+01  0.14452704530E+01 -0.14533390159E+02  0.16266040858E+02  0.47000000000E+01 0. -1.
         -5    1    1    2    0  502 -0.54023928944E+01 -0.14452704530E+01  0.26261171891E+02  0.27258279563E+02  0.47000000000E+01 0.  1.
<mgrwt>
<rscale>  2 0.73051116E+01</rscale>
<asrwt>0</asrwt>
<pdfrwt beam="1">  1       21 0.42501617E-02 0.73051116E+01</pdfrwt>
<pdfrwt beam="2">  1       21 0.24458876E-02 0.73051116E+01</pdfrwt>
<totfact> 0.12427407E+08</totfact>
</mgrwt>
</event>
<event>
 4    1  0.3900819E+006  0.6311422E+01  0.7546771E-02  0.2376572E+00
         21   -1    0    0  501  502  0.00000000000E+00  0.00000000000E+00  0.32921568890E+03  0.32921568890E+03  0.00000000000E+00 0.  1.
         21   -1    0    0  502  503 -0.00000000000E+00 -0.00000000000E+00 -0.13653622232E+01  0.13653622232E+01  0.00000000000E+00 0.  1.
          5    1    1    2  501    0  0.29670820892E+01  0.29900631005E+01  0.32172188717E+03  0.32178378881E+03  0.47000000000E+01 0.  1.
         -5    1    1    2    0  503 -0.29670820892E+01 -0.29900631005E+01  0.61284395000E+01  0.87972623113E+01  0.47000000000E+01 0.  1.
<mgrwt>
<rscale>  2 0.63114225E+01</rscale>
<asrwt>0</asrwt>
<pdfrwt beam="1">  1       21 0.50648504E-01 0.63114225E+01</pdfrwt>
<pdfrwt beam="2">  1       21 0.21005599E-03 0.63114225E+01</pdfrwt>
<totfact> 0.67618715E+07</totfact>
</mgrwt>
</event>
<event>
 4    1  0.3900819E+006  0.5643028E+01  0.7546771E-02  0.2464337E+00
         21   -1    0    0  501  502  0.00000000000E+00  0.00000000000E+00  0.24476755983E+00  0.24476755983E+00  0.00000000000E+00 0.  1.
         21   -1    0    0  502  503 -0.00000000000E+00 -0.00000000000E+00 -0.30974567159E+03  0.30974567159E+03  0.00000000000E+00 0. -1.
          5    1    1    2  501    0 -0.10950919013E+01  0.29248140737E+01 -0.27278972020E+03  0.27284808083E+03  0.47000000000E+01 0. -1.
         -5    1    1    2    0  503  0.10950919013E+01 -0.29248140737E+01 -0.36711183823E+02  0.37142358317E+02  0.47000000000E+01 0.  1.
<mgrwt>
<rscale>  2 0.56430279E+01</rscale>
<asrwt>0</asrwt>
<pdfrwt beam="1">  1       21 0.37656723E-04 0.56430279E+01</pdfrwt>
<pdfrwt beam="2">  1       21 0.47652958E-01 0.56430279E+01</pdfrwt>
<totfact> 0.70665686E+08</totfact>
</mgrwt>
</event>
<event>
 4    1  0.3900819E+006  0.5136973E+01  0.7546771E-02  0.2543414E+00
         21   -1    0    0  501  502  0.00000000000E+00  0.00000000000E+00  0.26122940068E+02  0.26122940068E+02  0.00000000000E+00 0. -1.
         21   -1    0    0  502  503 -0.00000000000E+00 -0.00000000000E+00 -0.21003849888E+01  0.21003849888E+01  0.00000000000E+00 0. -1.
          5    1    1    2  501    0 -0.17805633191E+01  0.10621144070E+01  0.22178110783E+02  0.22765260610E+02  0.47000000000E+01 0. -1.
         -5    1    1    2    0  503  0.17805633191E+01 -0.10621144070E+01  0.18444442969E+01  0.54580644473E+01  0.47000000000E+01 0. -1.
<mgrwt>
<rscale>  2 0.51369731E+01</rscale>
<asrwt>0</asrwt>
<pdfrwt beam="1">  1       21 0.40189136E-02 0.51369731E+01</pdfrwt>
<pdfrwt beam="2">  1       21 0.32313617E-03 0.51369731E+01</pdfrwt>
<totfact> 0.17918202E+09</totfact>
</mgrwt>
</event>
<event>
 4    1  0.3900819E+006  0.5095380E+01  0.7546771E-02  0.2550507E+00
         21   -1    0    0  501  502  0.00000000000E+00  0.00000000000E+00  0.39730074176E+01  0.39730074176E+01  0.00000000000E+00 0. -1.
         21   -1    0    0  502  503 -0.00000000000E+00 -0.00000000000E+00 -0.71028282627E+01  0.71028282627E+01  0.00000000000E+00 0.  1.
          5    1    1    2  501    0 -0.83578660027E+00  0.17816719069E+01  0.11468121871E-02  0.50953798033E+01  0.47000000000E+01 0. -1.
         -5    1    1    2    0  503  0.83578660027E+00 -0.17816719069E+01 -0.31309676573E+01  0.59804558769E+01  0.47000000000E+01 0.  1.
<mgrwt>
<rscale>  2 0.50953797E+01</rscale>
<asrwt>0</asrwt>
<pdfrwt beam="1">  1       21 0.61123192E-03 0.50953797E+01</pdfrwt>
<pdfrwt beam="2">  1       21 0.10927428E-02 0.50953797E+01</pdfrwt>
<totfact> 0.47321815E+09</totfact>
</mgrwt>
</event>
<event>
 4    1  0.3900819E+006  0.5867866E+01  0.7546771E-02  0.2432945E+00
         21   -1    0    0  503  502  0.00000000000E+00  0.00000000000E+00  0.23462753897E+02  0.23462753897E+02  0.00000000000E+00 0.  1.
         21   -1    0    0  501  503 -0.00000000000E+00 -0.00000000000E+00 -0.62525773549E+01  0.62525773549E+01  0.00000000000E+00 0. -1.
          5    1    1    2  501    0  0.18492631958E+01  0.29869847652E+01 -0.43925671777E+01  0.73298362032E+01  0.47000000000E+01 0. -1.
         -5    1    1    2    0  502 -0.18492631958E+01 -0.29869847652E+01  0.21602743720E+02  0.22385495049E+02  0.47000000000E+01 0.  1.
<mgrwt>
<rscale>  2 0.58678661E+01</rscale>
<asrwt>0</asrwt>
<pdfrwt beam="1">  1       21 0.36096544E-02 0.58678661E+01</pdfrwt>
<pdfrwt beam="2">  1       21 0.96193499E-03 0.58678661E+01</pdfrwt>
<totfact> 0.51917483E+08</totfact>
</mgrwt>
</event>
<event>
 4    1  0.3900819E+006  0.6509631E+01  0.7546771E-02  0.2353466E+00
         21   -1    0    0  503  502  0.00000000000E+00  0.00000000000E+00  0.10134943612E+02  0.10134943612E+02  0.00000000000E+00 0. -1.
         21   -1    0    0  501  503 -0.00000000000E+00 -0.00000000000E+00 -0.61627512650E+01  0.61627512650E+01  0.00000000000E+00 0. -1.
          5    1    1    2  501    0 -0.23019992739E+01  0.38711886040E+01 -0.26347500730E+01  0.70226212921E+01  0.47000000000E+01 0. -1.
         -5    1    1    2    0  502  0.23019992739E+01 -0.38711886040E+01  0.66069424203E+01  0.92750735851E+01  0.47000000000E+01 0. -1.
<mgrwt>
<rscale>  2 0.65096315E+01</rscale>
<asrwt>0</asrwt>
<pdfrwt beam="1">  1       21 0.15592221E-02 0.65096315E+01</pdfrwt>
<pdfrwt beam="2">  1       21 0.94811558E-03 0.65096315E+01</pdfrwt>
<totfact> 0.19407616E+09</totfact>
</mgrwt>
</event>
<event>
 4    1  0.3900819E+006  0.6623104E+01  0.7546771E-02  0.2340755E+00
         21   -1    0    0  501  502  0.00000000000E+00  0.00000000000E+00  0.81624616129E+02  0.81624616129E+02  0.00000000000E+00 0. -1.
         21   -1    0    0  502  503 -0.00000000000E+00 -0.00000000000E+00 -0.54196365115E+00  0.54196365115E+00  0.00000000000E+00 0.  1.
          5    1    1    2  501    0  0.41202034862E+01  0.21907589633E+01  0.44309091665E+02  0.44801351607E+02  0.47000000000E+01 0. -1.
         -5    1    1    2    0  503 -0.41202034862E+01 -0.21907589633E+01  0.36773560813E+02  0.37365228173E+02  0.47000000000E+01 0.  1.
<mgrwt>
<rscale>  2 0.66231036E+01</rscale>
<asrwt>0</asrwt>
<pdfrwt beam="1">  1       21 0.12557624E-01 0.66231036E+01</pdfrwt>
<pdfrwt beam="2">  1       21 0.83379088E-04 0.66231036E+01</pdfrwt>
<totfact> 0.25153499E+09</totfact>
</mgrwt>
</event>
<event>
 4    1  0.3900819E+006  0.8867976E+01  0.7546771E-02  0.2145784E+00
         21   -1    0    0  501  502  0.00000000000E+00  0.00000000000E+00  0.70267474291E+00  0.70267474291E+00  0.00000000000E+00 0. -1.
         21   -1    0    0  502  503 -0.00000000000E+00 -0.00000000000E+00 -0.20851416045E+03  0.20851416045E+03  0.00000000000E+00 0.  1.
          5    1    1    2  501    0  0.68588448224E+01  0.30833811230E+01 -0.32705436808E+02  0.33886377621E+02  0.47000000000E+01 0. -1.
         -5    1    1    2    0  503 -0.68588448224E+01 -0.30833811230E+01 -0.17510604890E+03  0.17533045757E+03  0.47000000000E+01 0.  1.
<mgrwt>
<rscale>  2 0.88679756E+01</rscale>
<asrwt>0</asrwt>
<pdfrwt beam="1">  1       21 0.10810375E-03 0.88679756E+01</pdfrwt>
<pdfrwt beam="2">  1       21 0.32079119E-01 0.88679756E+01</pdfrwt>
<totfact> 0.45624186E+08</totfact>
</mgrwt>
</event>
<event>
 4    1  0.3900819E+006  0.5791746E+01  0.7546771E-02  0.2443343E+00
         21   -1    0    0  501  502  0.00000000000E+00  0.00000000000E+00  0.30342671830E+02  0.30342671830E+02  0.00000000000E+00 0. -1.
         21   -1    0    0  502  503 -0.00000000000E+00 -0.00000000000E+00 -0.11080132706E+01  0.11080132706E+01  0.00000000000E+00 0. -1.
          5    1    1    2  501    0  0.13255216098E+01  0.31140510118E+01  0.15363822554E+02  0.16419237641E+02  0.47000000000E+01 0. -1.
         -5    1    1    2    0  503 -0.13255216098E+01 -0.31140510118E+01  0.13870836006E+02  0.15031447460E+02  0.47000000000E+01 0. -1.
<mgrwt>
<rscale>  2 0.57917460E+01</rscale>
<asrwt>0</asrwt>
<pdfrwt beam="1">  1       21 0.46681027E-02 0.57917460E+01</pdfrwt>
<pdfrwt beam="2">  1       21 0.17046360E-03 0.57917460E+01</pdfrwt>
<totfact> 0.38369507E+09</totfact>
</mgrwt>
</event>
<event>
 4    1  0.3900819E+006  0.6906446E+01  0.7546771E-02  0.2310530E+00
         21   -1    0    0  503  502  0.00000000000E+00  0.00000000000E+00  0.14272677650E+02  0.14272677650E+02  0.00000000000E+00 0.  1.
         21   -1    0    0  501  503 -0.00000000000E+00 -0.00000000000E+00 -0.52636689051E+01  0.52636689051E+01  0.00000000000E+00 0. -1.
          5    1    1    2  501    0 -0.47608563809E+01 -0.17155883278E+01 -0.13976513772E+01  0.70464477690E+01  0.47000000000E+01 0. -1.
         -5    1    1    2    0  502  0.47608563809E+01  0.17155883278E+01  0.10406660123E+02  0.12489898786E+02  0.47000000000E+01 0.  1.
<mgrwt>
<rscale>  2 0.69064460E+01</rscale>
<asrwt>0</asrwt>
<pdfrwt beam="1">  1       21 0.21957965E-02 0.69064460E+01</pdfrwt>
<pdfrwt beam="2">  1       21 0.80979522E-03 0.69064460E+01</pdfrwt>
<totfact> 0.15504128E+09</totfact>
</mgrwt>
</event>
<event>
 4    1  0.3900819E+006  0.7985402E+01  0.7546771E-02  0.2211801E+00
         21   -1    0    0  503  502  0.00000000000E+00  0.00000000000E+00  0.18470768838E+03  0.18470768838E+03  0.00000000000E+00 0. -1.
         21   -1    0    0  501  503 -0.00000000000E+00 -0.00000000000E+00 -0.82343878076E+00  0.82343878076E+00  0.00000000000E+00 0.  1.
          5    1    1    2  501    0 -0.24485344523E+01 -0.59733852037E+01  0.21248563315E+02  0.22699517500E+02  0.47000000000E+01 0.  1.
         -5    1    1    2    0  502  0.24485344523E+01  0.59733852037E+01  0.16263568628E+03  0.16283160966E+03  0.47000000000E+01 0. -1.
<mgrwt>
<rscale>  2 0.79854024E+01</rscale>
<asrwt>0</asrwt>
<pdfrwt beam="1">  1       21 0.28416535E-01 0.79854024E+01</pdfrwt>
<pdfrwt beam="2">  1       21 0.12668304E-03 0.79854024E+01</pdfrwt>
<totfact> 0.42658718E+08</totfact>
</mgrwt>
</event>
<event>
 4    1  0.3900819E+006  0.4990492E+01  0.7546771E-02  0.2568843E+00
         21   -1    0    0  501  502  0.00000000000E+00  0.00000000000E+00  0.64157790167E+01  0.64157790167E+01  0.00000000000E+00 0.  1.
         21   -1    0    0  502  503 -0.00000000000E+00 -0.00000000000E+00 -0.53427840441E+01  0.53427840441E+01  0.00000000000E+00 0. -1.
          5    1    1    2  501    0  0.14839838397E+01 -0.78281669914E+00  0.36108781898E+01  0.61598255919E+01  0.47000000000E+01 0.  1.
         -5    1    1    2    0  503 -0.14839838397E+01  0.78281669914E+00 -0.25378832173E+01  0.55987374689E+01  0.47000000000E+01 0. -1.
<mgrwt>
<rscale>  2 0.49904920E+01</rscale>
<asrwt>0</asrwt>
<pdfrwt beam="1">  1       21 0.98704293E-03 0.49904920E+01</pdfrwt>
<pdfrwt beam="2">  1       21 0.82196677E-03 0.49904920E+01</pdfrwt>
<totfact> 0.35412831E+09</totfact>
</mgrwt>
</event>
<event>
 4    1  0.3900819E+006  0.7535989E+01  0.7546771E-02  0.2250126E+00
         21   -1    0    0  501  502  0.00000000000E+00  0.00000000000E+00  0.26270316135E+01  0.26270316135E+01  0.00000000000E+00 0.  1.
         21   -1    0    0  502  503 -0.00000000000E+00 -0.00000000000E+00 -0.27042707618E+02  0.27042707618E+02  0.00000000000E+00 0. -1.
          5    1    1    2  501    0 -0.33324345394E+01  0.48575724239E+01 -0.55635657652E+01  0.93671977579E+01  0.47000000000E+01 0.  1.
         -5    1    1    2    0  503  0.33324345394E+01 -0.48575724239E+01 -0.18852110239E+02  0.20302541473E+02  0.47000000000E+01 0. -1.
<mgrwt>
<rscale>  2 0.75359890E+01</rscale>
<asrwt>0</asrwt>
<pdfrwt beam="1">  1       21 0.40415869E-03 0.75359890E+01</pdfrwt>
<pdfrwt beam="2">  1       21 0.41604168E-02 0.75359890E+01</pdfrwt>
<totfact> 0.17177880E+09</totfact>
</mgrwt>
</event>
<event>
 4    1  0.3900819E+006  0.4722496E+01  0.7546771E-02  0.2618870E+00
         21   -1    0    0  501  502  0.00000000000E+00  0.00000000000E+00  0.76645769300E+02  0.76645769300E+02  0.00000000000E+00 0.  1.
         21   -1    0    0  502  503 -0.00000000000E+00 -0.00000000000E+00 -0.30134098182E+00  0.30134098182E+00  0.00000000000E+00 0.  1.
          5    1    1    2  501    0  0.22647317233E+00  0.40084192172E+00  0.45308117028E+02  0.45553566633E+02  0.47000000000E+01 0.  1.
         -5    1    1    2    0  503 -0.22647317233E+00 -0.40084192172E+00  0.31036311291E+02  0.31393543650E+02  0.47000000000E+01 0.  1.
<mgrwt>
<rscale>  2 0.47224956E+01</rscale>
<asrwt>0</asrwt>
<pdfrwt beam="1">  1       21 0.11791641E-01 0.47224956E+01</pdfrwt>
<pdfrwt beam="2">  1       21 0.46360212E-04 0.47224956E+01</pdfrwt>
<totfact> 0.44560691E+09</totfact>
</mgrwt>
</event>
<event>
 4    1  0.3900819E+006  0.7016247E+01  0.7546771E-02  0.2299359E+00
         21   -1    0    0  503  502  0.00000000000E+00  0.00000000000E+00  0.38457146736E+02  0.38457146736E+02  0.00000000000E+00 0. -1.
         21   -1    0    0  501  503 -0.00000000000E+00 -0.00000000000E+00 -0.14589122259E+01  0.14589122259E+01  0.00000000000E+00 0.  1.
          5    1    1    2  501    0  0.27067773163E+01 -0.44509633555E+01  0.11511293383E+02  0.13481008626E+02  0.47000000000E+01 0. -1.
         -5    1    1    2    0  502 -0.27067773163E+01  0.44509633555E+01  0.25486941127E+02  0.26435050336E+02  0.47000000000E+01 0.  1.
<mgrwt>
<rscale>  2 0.70162467E+01</rscale>
<asrwt>0</asrwt>
<pdfrwt beam="1">  1       21 0.59164833E-02 0.70162467E+01</pdfrwt>
<pdfrwt beam="2">  1       21 0.22444806E-03 0.70162467E+01</pdfrwt>
<totfact> 0.21722011E+09</totfact>
</mgrwt>
</event>
<event>
 4    1  0.3900819E+006  0.5000416E+01  0.7546771E-02  0.2567080E+00
         21   -1    0    0  503  502  0.00000000000E+00  0.00000000000E+00  0.38622973562E+01  0.38622973562E+01  0.00000000000E+00 0.  1.
         21   -1    0    0  501  503 -0.00000000000E+00 -0.00000000000E+00 -0.24650902269E+02  0.24650902269E+02  0.00000000000E+00 0.  1.
          5    1    1    2  501    0 -0.12612329546E+01  0.11504151943E+01 -0.22636533339E+02  0.23182251946E+02  0.47000000000E+01 0.  1.
         -5    1    1    2    0  502  0.12612329546E+01 -0.11504151943E+01  0.18479284264E+01  0.53309476788E+01  0.47000000000E+01 0.  1.
<mgrwt>
<rscale>  2 0.50004164E+01</rscale>
<asrwt>0</asrwt>
<pdfrwt beam="1">  1       21 0.59419959E-03 0.50004164E+01</pdfrwt>
<pdfrwt beam="2">  1       21 0.37924465E-02 0.50004164E+01</pdfrwt>
<totfact> 0.82429915E+08</totfact>
</mgrwt>
</event>
<event>
 4    1  0.3900819E+006  0.5399052E+01  0.7546771E-02  0.2500885E+00
         21   -1    0    0  501  502  0.00000000000E+00  0.00000000000E+00  0.96192884981E+01  0.96192884981E+01  0.00000000000E+00 0. -1.
         21   -1    0    0  502  503 -0.00000000000E+00 -0.00000000000E+00 -0.30736538726E+01  0.30736538726E+01  0.00000000000E+00 0. -1.
          5    1    1    2  501    0  0.23796610036E+01  0.11819353483E+01  0.40261658568E+01  0.67349661593E+01  0.47000000000E+01 0. -1.
         -5    1    1    2    0  503 -0.23796610036E+01 -0.11819353483E+01  0.25194687687E+01  0.59579762115E+01  0.47000000000E+01 0. -1.
<mgrwt>
<rscale>  2 0.53990516E+01</rscale>
<asrwt>0</asrwt>
<pdfrwt beam="1">  1       21 0.14798905E-02 0.53990516E+01</pdfrwt>
<pdfrwt beam="2">  1       21 0.47286983E-03 0.53990516E+01</pdfrwt>
<totfact> 0.46718278E+09</totfact>
</mgrwt>
</event>
<event>
 4    1  0.3900819E+006  0.6717352E+01  0.7546771E-02  0.2330468E+00
         21   -1    0    0  503  502  0.00000000000E+00  0.00000000000E+00  0.72260938386E+02  0.72260938386E+02  0.00000000000E+00 0. -1.
         21   -1    0    0  501  503 -0.00000000000E+00 -0.00000000000E+00 -0.66777041494E+00  0.66777041494E+00  0.00000000000E+00 0. -1.
          5    1    1    2  501    0 -0.46057981745E+01 -0.13488689526E+01  0.26508262819E+02  0.27346129926E+02  0.47000000000E+01 0. -1.
         -5    1    1    2    0  502  0.46057981745E+01  0.13488689526E+01  0.45084905153E+02  0.45582578875E+02  0.47000000000E+01 0. -1.
<mgrwt>
<rscale>  2 0.67173525E+01</rscale>
<asrwt>0</asrwt>
<pdfrwt beam="1">  1       21 0.11117061E-01 0.67173525E+01</pdfrwt>
<pdfrwt beam="2">  1       21 0.10273397E-03 0.67173525E+01</pdfrwt>
<totfact> 0.23208540E+09</totfact>
</mgrwt>
</event>
<event>
 4    1  0.3900819E+006  0.9228060E+01  0.7546771E-02  0.2121779E+00
         21   -1    0    0  501  502  0.00000000000E+00  0.00000000000E+00  0.12851364145E+04  0.12851364145E+04  0.00000000000E+00 0. -1.
         21   -1    0    0  502  503 -0.00000000000E+00 -0.00000000000E+00 -0.10763914458E+00  0.10763914458E+00  0.00000000000E+00 0.  1.
          5    1    1    2  501    0  0.42175537206E+01  0.67289915425E+01  0.10409380489E+04  0.10409789521E+04  0.47000000000E+01 0. -1.
         -5    1    1    2    0  503 -0.42175537206E+01 -0.67289915425E+01  0.24409072645E+03  0.24426510153E+03  0.47000000000E+01 0.  1.
<mgrwt>
<rscale>  2 0.92280597E+01</rscale>
<asrwt>0</asrwt>
<pdfrwt beam="1">  1       21 0.19770101E+00 0.92280597E+01</pdfrwt>
<pdfrwt beam="2">  1       21 0.16560898E-04 0.92280597E+01</pdfrwt>
<totfact> 0.15416824E+08</totfact>
</mgrwt>
</event>
<event>
 4    1  0.3900819E+006  0.5307259E+01  0.7546771E-02  0.2515372E+00
         21   -1    0    0  503  502  0.00000000000E+00  0.00000000000E+00  0.17604794087E+01  0.17604794087E+01  0.00000000000E+00 0.  1.
         21   -1    0    0  501  503 -0.00000000000E+00 -0.00000000000E+00 -0.11804390407E+03  0.11804390407E+03  0.00000000000E+00 0.  1.
          5    1    1    2  501    0 -0.24280648913E+01 -0.42603148532E+00 -0.11383659223E+03  0.11396024189E+03  0.47000000000E+01 0.  1.
         -5    1    1    2    0  502  0.24280648913E+01  0.42603148532E+00 -0.24468324349E+01  0.58441415886E+01  0.47000000000E+01 0.  1.
<mgrwt>
<rscale>  2 0.53072594E+01</rscale>
<asrwt>0</asrwt>
<pdfrwt beam="1">  1       21 0.27084293E-03 0.53072594E+01</pdfrwt>
<pdfrwt beam="2">  1       21 0.18160605E-01 0.53072594E+01</pdfrwt>
<totfact> 0.24062386E+08</totfact>
</mgrwt>
</event>
<event>
 4    1  0.3900819E+006  0.5592595E+01  0.7546771E-02  0.2471670E+00
         21   -1    0    0  503  502  0.00000000000E+00  0.00000000000E+00  0.14281514299E+03  0.14281514299E+03  0.00000000000E+00 0. -1.
         21   -1    0    0  501  503 -0.00000000000E+00 -0.00000000000E+00 -0.53597116937E+00  0.53597116937E+00  0.00000000000E+00 0. -1.
          5    1    1    2  501    0 -0.28030733517E+01 -0.11532143807E+01  0.16019824329E+02  0.16967966736E+02  0.47000000000E+01 0. -1.
         -5    1    1    2    0  502  0.28030733517E+01  0.11532143807E+01  0.12625934749E+03  0.12638314742E+03  0.47000000000E+01 0. -1.
<mgrwt>
<rscale>  2 0.55925954E+01</rscale>
<asrwt>0</asrwt>
<pdfrwt beam="1">  1       21 0.21971530E-01 0.55925954E+01</pdfrwt>
<pdfrwt beam="2">  1       21 0.82457217E-04 0.55925954E+01</pdfrwt>
<totfact> 0.91555208E+08</totfact>
</mgrwt>
</event>
<event>
 4    1  0.3900819E+006  0.5819228E+01  0.7546771E-02  0.2439562E+00
         21   -1    0    0  501  502  0.00000000000E+00  0.00000000000E+00  0.77910574786E+00  0.77910574786E+00  0.00000000000E+00 0. -1.
         21   -1    0    0  502  503 -0.00000000000E+00 -0.00000000000E+00 -0.62658032029E+02  0.62658032029E+02  0.00000000000E+00 0.  1.
          5    1    1    2  501    0 -0.10816301600E+01  0.32562999513E+01 -0.13384372540E+02  0.14594685385E+02  0.47000000000E+01 0. -1.
         -5    1    1    2    0  503  0.10816301600E+01 -0.32562999513E+01 -0.48494553740E+02  0.48842452392E+02  0.47000000000E+01 0.  1.
<mgrwt>
<rscale>  2 0.58192279E+01</rscale>
<asrwt>0</asrwt>
<pdfrwt beam="1">  1       21 0.11986243E-03 0.58192279E+01</pdfrwt>
<pdfrwt beam="2">  1       21 0.96396965E-02 0.58192279E+01</pdfrwt>
<totfact> 0.20890324E+09</totfact>
</mgrwt>
</event>
<event>
 4    1  0.3900819E+006  0.5404215E+01  0.7546771E-02  0.2500082E+00
         21   -1    0    0  501  502  0.00000000000E+00  0.00000000000E+00  0.53897965839E+00  0.53897965839E+00  0.00000000000E+00 0.  1.
         21   -1    0    0  502  503 -0.00000000000E+00 -0.00000000000E+00 -0.55916129565E+02  0.55916129565E+02  0.00000000000E+00 0.  1.
          5    1    1    2  501    0 -0.20151125905E+01  0.17478159715E+01 -0.22724323982E+02  0.23358091529E+02  0.47000000000E+01 0.  1.
         -5    1    1    2    0  503  0.20151125905E+01 -0.17478159715E+01 -0.32652825925E+02  0.33097017695E+02  0.47000000000E+01 0.  1.
<mgrwt>
<rscale>  2 0.54042150E+01</rscale>
<asrwt>0</asrwt>
<pdfrwt beam="1">  1       21 0.82919929E-04 0.54042150E+01</pdfrwt>
<pdfrwt beam="2">  1       21 0.86024833E-02 0.54042150E+01</pdfrwt>
<totfact> 0.38063469E+09</totfact>
</mgrwt>
</event>
<event>
 4    1  0.3900819E+006  0.1094090E+02  0.7546771E-02  0.2025088E+00
         21   -1    0    0  501  502  0.00000000000E+00  0.00000000000E+00  0.14567114985E+01  0.14567114985E+01  0.00000000000E+00 0. -1.
         21   -1    0    0  502  503 -0.00000000000E+00 -0.00000000000E+00 -0.82933784812E+02  0.82933784812E+02  0.00000000000E+00 0. -1.
          5    1    1    2  501    0  0.14876587232E+01  0.97672985876E+01 -0.36698800080E+02  0.38294975877E+02  0.47000000000E+01 0. -1.
         -5    1    1    2    0  503 -0.14876587232E+01 -0.97672985876E+01 -0.44778273234E+02  0.46095520433E+02  0.47000000000E+01 0. -1.
<mgrwt>
<rscale>  2 0.10940898E+02</rscale>
<asrwt>0</asrwt>
<pdfrwt beam="1">  1       21 0.22410949E-03 0.10940898E+02</pdfrwt>
<pdfrwt beam="2">  1       21 0.12759042E-01 0.10940898E+02</pdfrwt>
<totfact> 0.86956742E+08</totfact>
</mgrwt>
</event>
<event>
 4    1  0.3900819E+006  0.5822671E+01  0.7546771E-02  0.2439091E+00
         21   -1    0    0  501  502  0.00000000000E+00  0.00000000000E+00  0.12671990276E+02  0.12671990276E+02  0.00000000000E+00 0.  1.
         21   -1    0    0  502  503 -0.00000000000E+00 -0.00000000000E+00 -0.81846290462E+01  0.81846290462E+01  0.00000000000E+00 0.  1.
          5    1    1    2  501    0 -0.18186373415E+01  0.29165136588E+01  0.10799412885E+02  0.12269099901E+02  0.47000000000E+01 0.  1.
         -5    1    1    2    0  503  0.18186373415E+01 -0.29165136588E+01 -0.63120516560E+01  0.85875194212E+01  0.47000000000E+01 0.  1.
<mgrwt>
<rscale>  2 0.58226707E+01</rscale>
<asrwt>0</asrwt>
<pdfrwt beam="1">  1       21 0.19495370E-02 0.58226707E+01</pdfrwt>
<pdfrwt beam="2">  1       21 0.12591737E-02 0.58226707E+01</pdfrwt>
<totfact> 0.85975611E+08</totfact>
</mgrwt>
</event>
<event>
 4    1  0.3900819E+006  0.4890742E+01  0.7546771E-02  0.2586909E+00
         21   -1    0    0  501  502  0.00000000000E+00  0.00000000000E+00  0.33241889948E+02  0.33241889948E+02  0.00000000000E+00 0.  1.
         21   -1    0    0  502  503 -0.00000000000E+00 -0.00000000000E+00 -0.23023743303E+01  0.23023743303E+01  0.00000000000E+00 0.  1.
          5    1    1    2  501    0  0.98321694001E+00  0.92878758361E+00  0.30205338830E+02  0.30598723107E+02  0.47000000000E+01 0.  1.
         -5    1    1    2    0  503 -0.98321694001E+00 -0.92878758361E+00  0.73417678808E+00  0.49455411719E+01  0.47000000000E+01 0.  1.
<mgrwt>
<rscale>  2 0.48907425E+01</rscale>
<asrwt>0</asrwt>
<pdfrwt beam="1">  1       21 0.51141366E-02 0.48907425E+01</pdfrwt>
<pdfrwt beam="2">  1       21 0.35421146E-03 0.48907425E+01</pdfrwt>
<totfact> 0.10617609E+09</totfact>
</mgrwt>
</event>
<event>
 4    1  0.3900819E+006  0.6889495E+01  0.7546771E-02  0.2312280E+00
         21   -1    0    0  501  502  0.00000000000E+00  0.00000000000E+00  0.46179828409E+01  0.46179828409E+01  0.00000000000E+00 0. -1.
         21   -1    0    0  502  503 -0.00000000000E+00 -0.00000000000E+00 -0.26493001901E+02  0.26493001901E+02  0.00000000000E+00 0.  1.
          5    1    1    2  501    0 -0.10201189584E+01  0.49330014285E+01  0.12319776155E+01  0.69987795099E+01  0.47000000000E+01 0. -1.
         -5    1    1    2    0  503  0.10201189584E+01 -0.49330014285E+01 -0.23106996676E+02  0.24112205232E+02  0.47000000000E+01 0.  1.
<mgrwt>
<rscale>  2 0.68894953E+01</rscale>
<asrwt>0</asrwt>
<pdfrwt beam="1">  1       21 0.71045891E-03 0.68894953E+01</pdfrwt>
<pdfrwt beam="2">  1       21 0.40758464E-02 0.68894953E+01</pdfrwt>
<totfact> 0.75110630E+08</totfact>
</mgrwt>
</event>
<event>
 4    1  0.3900819E+006  0.1057991E+02  0.7546771E-02  0.2043413E+00
         21   -1    0    0  503  502  0.00000000000E+00  0.00000000000E+00  0.29464382794E+01  0.29464382794E+01  0.00000000000E+00 0.  1.
         21   -1    0    0  501  503 -0.00000000000E+00 -0.00000000000E+00 -0.38338077370E+02  0.38338077370E+02  0.00000000000E+00 0. -1.
          5    1    1    2  501    0  0.58629284925E+01 -0.74478496581E+01 -0.15728167827E+02  0.18955465128E+02  0.47000000000E+01 0.  1.
         -5    1    1    2    0  502 -0.58629284925E+01  0.74478496581E+01 -0.19663471264E+02  0.22329050521E+02  0.47000000000E+01 0. -1.
<mgrwt>
<rscale>  2 0.10579905E+02</rscale>
<asrwt>0</asrwt>
<pdfrwt beam="1">  1       21 0.45329820E-03 0.10579905E+02</pdfrwt>
<pdfrwt beam="2">  1       21 0.58981657E-02 0.10579905E+02</pdfrwt>
<totfact> 0.10665570E+09</totfact>
</mgrwt>
</event>
<event>
 4    1  0.3900819E+006  0.6386641E+01  0.7546771E-02  0.2367663E+00
         21   -1    0    0  501  502  0.00000000000E+00  0.00000000000E+00  0.17200935084E+01  0.17200935084E+01  0.00000000000E+00 0. -1.
         21   -1    0    0  502  503 -0.00000000000E+00 -0.00000000000E+00 -0.31343694300E+02  0.31343694300E+02  0.00000000000E+00 0.  1.
          5    1    1    2  501    0 -0.31025444415E+01  0.30122091569E+01 -0.66550067414E+01  0.92237899339E+01  0.47000000000E+01 0. -1.
         -5    1    1    2    0  503  0.31025444415E+01 -0.30122091569E+01 -0.22968594050E+02  0.23839997874E+02  0.47000000000E+01 0.  1.
<mgrwt>
<rscale>  2 0.63866412E+01</rscale>
<asrwt>0</asrwt>
<pdfrwt beam="1">  1       21 0.26462978E-03 0.63866412E+01</pdfrwt>
<pdfrwt beam="2">  1       21 0.48221066E-02 0.63866412E+01</pdfrwt>
<totfact> 0.21847286E+09</totfact>
</mgrwt>
</event>
<event>
 4    1  0.3900819E+006  0.6507022E+01  0.7546771E-02  0.2353762E+00
         21   -1    0    0  501  502  0.00000000000E+00  0.00000000000E+00  0.42951548482E+02  0.42951548482E+02  0.00000000000E+00 0. -1.
         21   -1    0    0  502  503 -0.00000000000E+00 -0.00000000000E+00 -0.10232360546E+01  0.10232360546E+01  0.00000000000E+00 0.  1.
          5    1    1    2  501    0  0.42905938588E+01  0.13572527046E+01  0.25170184162E+02  0.25997682614E+02  0.47000000000E+01 0.  1.
         -5    1    1    2    0  503 -0.42905938588E+01 -0.13572527046E+01  0.16758128265E+02  0.17977101922E+02  0.47000000000E+01 0.  1.
<mgrwt>
<rscale>  2 0.65070216E+01</rscale>
<asrwt>0</asrwt>
<pdfrwt beam="1">  1       21 0.66079291E-02 0.65070216E+01</pdfrwt>
<pdfrwt beam="2">  1       21 0.15742096E-03 0.65070216E+01</pdfrwt>
<totfact> 0.28156653E+09</totfact>
</mgrwt>
</event>
<event>
 4    1  0.3900819E+006  0.5137614E+01  0.7546771E-02  0.2543305E+00
         21   -1    0    0  503  502  0.00000000000E+00  0.00000000000E+00  0.11077532832E+01  0.11077532832E+01  0.00000000000E+00 0. -1.
         21   -1    0    0  501  503 -0.00000000000E+00 -0.00000000000E+00 -0.31655225315E+02  0.31655225315E+02  0.00000000000E+00 0. -1.
          5    1    1    2  501    0 -0.18352621401E+01  0.96793247574E+00 -0.23419770358E+02  0.23976670412E+02  0.47000000000E+01 0. -1.
         -5    1    1    2    0  502  0.18352621401E+01 -0.96793247574E+00 -0.71277016732E+01  0.87863081862E+01  0.47000000000E+01 0. -1.
<mgrwt>
<rscale>  2 0.51376143E+01</rscale>
<asrwt>0</asrwt>
<pdfrwt beam="1">  1       21 0.17042359E-03 0.51376143E+01</pdfrwt>
<pdfrwt beam="2">  1       21 0.48700344E-02 0.51376143E+01</pdfrwt>
<totfact> 0.32180042E+09</totfact>
</mgrwt>
</event>
<event>
 4    1  0.3900819E+006  0.6336068E+01  0.7546771E-02  0.2373634E+00
         21   -1    0    0  501  502  0.00000000000E+00  0.00000000000E+00  0.13818342383E+02  0.13818342383E+02  0.00000000000E+00 0.  1.
         21   -1    0    0  502  503 -0.00000000000E+00 -0.00000000000E+00 -0.34255708185E+01  0.34255708185E+01  0.00000000000E+00 0. -1.
          5    1    1    2  501    0 -0.33042101694E+01 -0.26716938627E+01  0.85566586396E+01  0.10647166760E+02  0.47000000000E+01 0.  1.
         -5    1    1    2    0  503  0.33042101694E+01  0.26716938627E+01  0.18361129246E+01  0.65967464413E+01  0.47000000000E+01 0. -1.
<mgrwt>
<rscale>  2 0.63360676E+01</rscale>
<asrwt>0</asrwt>
<pdfrwt beam="1">  1       21 0.21258988E-02 0.63360676E+01</pdfrwt>
<pdfrwt beam="2">  1       21 0.52701090E-03 0.63360676E+01</pdfrwt>
<totfact> 0.27723472E+09</totfact>
</mgrwt>
</event>
<event>
 4    1  0.3900819E+006  0.6092284E+01  0.7546771E-02  0.2403565E+00
         21   -1    0    0  501  502  0.00000000000E+00  0.00000000000E+00  0.89242340041E+01  0.89242340041E+01  0.00000000000E+00 0. -1.
         21   -1    0    0  502  503 -0.00000000000E+00 -0.00000000000E+00 -0.15512844893E+02  0.15512844893E+02  0.00000000000E+00 0.  1.
          5    1    1    2  501    0  0.37004051938E+01 -0.11545225283E+01  0.71587915659E+01  0.94002243351E+01  0.47000000000E+01 0. -1.
         -5    1    1    2    0  503 -0.37004051938E+01  0.11545225283E+01 -0.13747402454E+02  0.15036854562E+02  0.47000000000E+01 0.  1.
<mgrwt>
<rscale>  2 0.60922837E+01</rscale>
<asrwt>0</asrwt>
<pdfrwt beam="1">  1       21 0.13729591E-02 0.60922837E+01</pdfrwt>
<pdfrwt beam="2">  1       21 0.23865915E-02 0.60922837E+01</pdfrwt>
<totfact> 0.58938527E+08</totfact>
</mgrwt>
</event>
<event>
 4    1  0.3900819E+006  0.5452376E+01  0.7546771E-02  0.2492660E+00
         21   -1    0    0  503  502  0.00000000000E+00  0.00000000000E+00  0.30177394450E+03  0.30177394450E+03  0.00000000000E+00 0.  1.
         21   -1    0    0  501  503 -0.00000000000E+00 -0.00000000000E+00 -0.11336072645E+00  0.11336072645E+00  0.00000000000E+00 0. -1.
          5    1    1    2  501    0 -0.20140169115E+01  0.18926528190E+01  0.96200944014E+02  0.96355332121E+02  0.47000000000E+01 0. -1.
         -5    1    1    2    0  502  0.20140169115E+01 -0.18926528190E+01  0.20545963976E+03  0.20553197311E+03  0.47000000000E+01 0.  1.
<mgrwt>
<rscale>  2 0.54523755E+01</rscale>
<asrwt>0</asrwt>
<pdfrwt beam="1">  1       21 0.46426118E-01 0.54523755E+01</pdfrwt>
<pdfrwt beam="2">  1       21 0.17440353E-04 0.54523755E+01</pdfrwt>
<totfact> 0.20049913E+09</totfact>
</mgrwt>
</event>
<event>
 4    1  0.3900819E+006  0.6163320E+01  0.7546771E-02  0.2394640E+00
         21   -1    0    0  503  502  0.00000000000E+00  0.00000000000E+00  0.11139759524E+02  0.11139759524E+02  0.00000000000E+00 0.  1.
         21   -1    0    0  501  503 -0.00000000000E+00 -0.00000000000E+00 -0.39340676932E+01  0.39340676932E+01  0.00000000000E+00 0.  1.
          5    1    1    2  501    0  0.28753109123E+01 -0.27620837457E+01  0.85198541180E+00  0.62219288490E+01  0.47000000000E+01 0.  1.
         -5    1    1    2    0  502 -0.28753109123E+01  0.27620837457E+01  0.63537064189E+01  0.88518983681E+01  0.47000000000E+01 0.  1.
<mgrwt>
<rscale>  2 0.61633205E+01</rscale>
<asrwt>0</asrwt>
<pdfrwt beam="1">  1       21 0.17138091E-02 0.61633205E+01</pdfrwt>
<pdfrwt beam="2">  1       21 0.60524119E-03 0.61633205E+01</pdfrwt>
<totfact> 0.30415294E+09</totfact>
</mgrwt>
</event>
<event>
 4    1  0.3900819E+006  0.7181173E+01  0.7546771E-02  0.2283107E+00
         21   -1    0    0  501  502  0.00000000000E+00  0.00000000000E+00  0.95164658804E+01  0.95164658804E+01  0.00000000000E+00 0.  1.
         21   -1    0    0  502  503 -0.00000000000E+00 -0.00000000000E+00 -0.59198750205E+01  0.59198750205E+01  0.00000000000E+00 0.  1.
          5    1    1    2  501    0  0.21278202026E+01 -0.49951597773E+01  0.40434437678E+01  0.82412788764E+01  0.47000000000E+01 0.  1.
         -5    1    1    2    0  503 -0.21278202026E+01  0.49951597773E+01 -0.44685290794E+00  0.71950620245E+01  0.47000000000E+01 0.  1.
<mgrwt>
<rscale>  2 0.71811726E+01</rscale>
<asrwt>0</asrwt>
<pdfrwt beam="1">  1       21 0.14640717E-02 0.71811726E+01</pdfrwt>
<pdfrwt beam="2">  1       21 0.91075001E-03 0.71811726E+01</pdfrwt>
<totfact> 0.24302170E+09</totfact>
</mgrwt>
</event>
<event>
 4    1  0.3900819E+006  0.4707410E+01  0.7546771E-02  0.2621832E+00
         21   -1    0    0  503  502  0.00000000000E+00  0.00000000000E+00  0.78864177920E-01  0.78864177920E-01  0.00000000000E+00 0.  1.
         21   -1    0    0  501  503 -0.00000000000E+00 -0.00000000000E+00 -0.54661930997E+03  0.54661930997E+03  0.00000000000E+00 0.  1.
          5    1    1    2  501    0  0.26316188993E+00 -0.21266646376E-01 -0.46382360130E+03  0.46384748876E+03  0.47000000000E+01 0.  1.
         -5    1    1    2    0  502 -0.26316188993E+00  0.21266646376E-01 -0.82716844491E+02  0.82850685387E+02  0.47000000000E+01 0.  1.
<mgrwt>
<rscale>  2 0.47074097E+01</rscale>
<asrwt>0</asrwt>
<pdfrwt beam="1">  1       21 0.12133075E-04 0.47074097E+01</pdfrwt>
<pdfrwt beam="2">  1       21 0.84094417E-01 0.47074097E+01</pdfrwt>
<totfact> 0.95944541E+08</totfact>
</mgrwt>
</event>
<event>
 4    1  0.3900819E+006  0.5134504E+01  0.7546771E-02  0.2543832E+00
         21   -1    0    0  501  502  0.00000000000E+00  0.00000000000E+00  0.25562931292E-01  0.25562931292E-01  0.00000000000E+00 0. -1.
         21   -1    0    0  502  503 -0.00000000000E+00 -0.00000000000E+00 -0.10491336632E+04  0.10491336632E+04  0.00000000000E+00 0. -1.
          5    1    1    2  501    0  0.20660822879E+01 -0.66617427684E-01 -0.45616653794E+03  0.45619543342E+03  0.47000000000E+01 0.  1.
         -5    1    1    2    0  503 -0.20660822879E+01  0.66617427684E-01 -0.59294156229E+03  0.59296379268E+03  0.47000000000E+01 0.  1.
<mgrwt>
<rscale>  2 0.51345043E+01</rscale>
<asrwt>0</asrwt>
<pdfrwt beam="1">  1       21 0.39327811E-05 0.51345043E+01</pdfrwt>
<pdfrwt beam="2">  1       21 0.16140426E+00 0.51345043E+01</pdfrwt>
<totfact> 0.12268918E+09</totfact>
</mgrwt>
</event>
<event>
 4    1  0.3900819E+006  0.5923408E+01  0.7546771E-02  0.2425500E+00
         21   -1    0    0  501  502  0.00000000000E+00  0.00000000000E+00  0.12188712367E+03  0.12188712367E+03  0.00000000000E+00 0.  1.
         21   -1    0    0  502  503 -0.00000000000E+00 -0.00000000000E+00 -0.29734143418E+00  0.29734143418E+00  0.00000000000E+00 0. -1.
          5    1    1    2  501    0  0.26102688609E+01 -0.24866163781E+01  0.71702559966E+02  0.71946812787E+02  0.47000000000E+01 0. -1.
         -5    1    1    2    0  503 -0.26102688609E+01  0.24866163781E+01  0.49887222269E+02  0.50237652316E+02  0.47000000000E+01 0. -1.
<mgrwt>
<rscale>  2 0.59234082E+01</rscale>
<asrwt>0</asrwt>
<pdfrwt beam="1">  1       21 0.18751825E-01 0.59234082E+01</pdfrwt>
<pdfrwt beam="2">  1       21 0.45744933E-04 0.59234082E+01</pdfrwt>
<totfact> 0.27212762E+09</totfact>
</mgrwt>
</event>
<event>
 4    1  0.3900819E+006  0.6320992E+01  0.7546771E-02  0.2375429E+00
         21   -1    0    0  501  502  0.00000000000E+00  0.00000000000E+00  0.30897079989E+03  0.30897079989E+03  0.00000000000E+00 0.  1.
         21   -1    0    0  502  503 -0.00000000000E+00 -0.00000000000E+00 -0.98687597079E+00  0.98687597079E+00  0.00000000000E+00 0.  1.
          5    1    1    2  501    0 -0.24257467836E+01  0.34613143602E+01  0.29846050750E+03  0.29852743505E+03  0.47000000000E+01 0.  1.
         -5    1    1    2    0  503  0.24257467836E+01 -0.34613143602E+01  0.95234164243E+01  0.11430240809E+02  0.47000000000E+01 0.  1.
<mgrwt>
<rscale>  2 0.63209924E+01</rscale>
<asrwt>0</asrwt>
<pdfrwt beam="1">  1       21 0.47533892E-01 0.63209924E+01</pdfrwt>
<pdfrwt beam="2">  1       21 0.15182732E-03 0.63209924E+01</pdfrwt>
<totfact> 0.11806891E+08</totfact>
</mgrwt>
</event>
<event>
 4    1  0.3900819E+006  0.5978023E+01  0.7546771E-02  0.2418293E+00
         21   -1    0    0  503  502  0.00000000000E+00  0.00000000000E+00  0.48998501775E+01  0.48998501775E+01  0.00000000000E+00 0. -1.
         21   -1    0    0  501  503 -0.00000000000E+00 -0.00000000000E+00 -0.76571277718E+01  0.76571277718E+01  0.00000000000E+00 0. -1.
          5    1    1    2  501    0  0.29991777024E+01  0.21567782973E+01 -0.10320932469E-01  0.59780319534E+01  0.47000000000E+01 0. -1.
         -5    1    1    2    0  502 -0.29991777024E+01 -0.21567782973E+01 -0.27469566618E+01  0.65789459958E+01  0.47000000000E+01 0. -1.
<mgrwt>
<rscale>  2 0.59780230E+01</rscale>
<asrwt>0</asrwt>
<pdfrwt beam="1">  1       21 0.75382311E-03 0.59780230E+01</pdfrwt>
<pdfrwt beam="2">  1       21 0.11780197E-02 0.59780230E+01</pdfrwt>
<totfact> 0.37132226E+09</totfact>
</mgrwt>
</event>
<event>
 4    1  0.3900819E+006  0.6283665E+01  0.7546771E-02  0.2379904E+00
         21   -1    0    0  501  502  0.00000000000E+00  0.00000000000E+00  0.61419190216E+03  0.61419190216E+03  0.00000000000E+00 0.  1.
         21   -1    0    0  502  503 -0.00000000000E+00 -0.00000000000E+00 -0.13223048948E+01  0.13223048948E+01  0.00000000000E+00 0. -1.
          5    1    1    2  501    0  0.33310276212E+01  0.25097215638E+01  0.60661754232E+03  0.60665008621E+03  0.47000000000E+01 0.  1.
         -5    1    1    2    0  503 -0.33310276212E+01 -0.25097215638E+01  0.62520549481E+01  0.88641208484E+01  0.47000000000E+01 0. -1.
<mgrwt>
<rscale>  2 0.62836651E+01</rscale>
<asrwt>0</asrwt>
<pdfrwt beam="1">  1       21 0.94490834E-01 0.62836651E+01</pdfrwt>
<pdfrwt beam="2">  1       21 0.20343201E-03 0.62836651E+01</pdfrwt>
<totfact> 0.21479050E+07</totfact>
</mgrwt>
</event>
<event>
 4    1  0.3900819E+006  0.4891603E+01  0.7546771E-02  0.2586750E+00
         21   -1    0    0  503  502  0.00000000000E+00  0.00000000000E+00  0.13811844236E+00  0.13811844236E+00  0.00000000000E+00 0. -1.
         21   -1    0    0  501  503 -0.00000000000E+00 -0.00000000000E+00 -0.18722858822E+03  0.18722858822E+03  0.00000000000E+00 0. -1.
          5    1    1    2  501    0 -0.13347852975E+01 -0.23692404187E+00 -0.11915153895E+03  0.11925190572E+03  0.47000000000E+01 0. -1.
         -5    1    1    2    0  502  0.13347852975E+01  0.23692404187E+00 -0.67938930833E+02  0.68114800943E+02  0.47000000000E+01 0. -1.
<mgrwt>
<rscale>  2 0.48916035E+01</rscale>
<asrwt>0</asrwt>
<pdfrwt beam="1">  1       21 0.21248939E-04 0.48916035E+01</pdfrwt>
<pdfrwt beam="2">  1       21 0.28804468E-01 0.48916035E+01</pdfrwt>
<totfact> 0.31639509E+09</totfact>
</mgrwt>
</event>
<event>
 4    1  0.3900819E+006  0.5255808E+01  0.7546771E-02  0.2523681E+00
         21   -1    0    0  501  502  0.00000000000E+00  0.00000000000E+00  0.74565691003E+00  0.74565691003E+00  0.00000000000E+00 0. -1.
         21   -1    0    0  502  503 -0.00000000000E+00 -0.00000000000E+00 -0.12723933444E+03  0.12723933444E+03  0.00000000000E+00 0. -1.
          5    1    1    2  501    0 -0.74945979004E+00  0.22297585499E+01 -0.93695324534E+01  0.10742981502E+02  0.47000000000E+01 0. -1.
         -5    1    1    2    0  503  0.74945979004E+00 -0.22297585499E+01 -0.11712414507E+03  0.11724200985E+03  0.47000000000E+01 0. -1.
<mgrwt>
<rscale>  2 0.52558076E+01</rscale>
<asrwt>0</asrwt>
<pdfrwt beam="1">  1       21 0.11471640E-03 0.52558076E+01</pdfrwt>
<pdfrwt beam="2">  1       21 0.19575291E-01 0.52558076E+01</pdfrwt>
<totfact> 0.67390121E+08</totfact>
</mgrwt>
</event>
<event>
 4    1  0.3900819E+006  0.5074730E+01  0.7546771E-02  0.2554065E+00
         21   -1    0    0  503  502  0.00000000000E+00  0.00000000000E+00  0.34108220602E+01  0.34108220602E+01  0.00000000000E+00 0. -1.
         21   -1    0    0  501  503 -0.00000000000E+00 -0.00000000000E+00 -0.12689867155E+02  0.12689867155E+02  0.00000000000E+00 0.  1.
          5    1    1    2  501    0 -0.87673720809E+00  0.17012389761E+01 -0.97627934248E+01  0.11002954950E+02  0.47000000000E+01 0.  1.
         -5    1    1    2    0  502  0.87673720809E+00 -0.17012389761E+01  0.48374833011E+00  0.50977342646E+01  0.47000000000E+01 0. -1.
<mgrwt>
<rscale>  2 0.50747298E+01</rscale>
<asrwt>0</asrwt>
<pdfrwt beam="1">  1       21 0.52474186E-03 0.50747298E+01</pdfrwt>
<pdfrwt beam="2">  1       21 0.19522872E-02 0.50747298E+01</pdfrwt>
<totfact> 0.25679040E+09</totfact>
</mgrwt>
</event>
<event>
 4    1  0.3900819E+006  0.1211893E+02  0.7546771E-02  0.1971283E+00
         21   -1    0    0  503  502  0.00000000000E+00  0.00000000000E+00  0.15421837677E+02  0.15421837677E+02  0.00000000000E+00 0. -1.
         21   -1    0    0  501  503 -0.00000000000E+00 -0.00000000000E+00 -0.29856419735E+02  0.29856419735E+02  0.00000000000E+00 0.  1.
          5    1    1    2  501    0 -0.26795432564E+01  0.10844287825E+02 -0.25900077328E+02  0.28595148821E+02  0.47000000000E+01 0.  1.
         -5    1    1    2    0  502  0.26795432564E+01 -0.10844287825E+02  0.11465495269E+02  0.16683108591E+02  0.47000000000E+01 0. -1.
<mgrwt>
<rscale>  2 0.12118933E+02</rscale>
<asrwt>0</asrwt>
<pdfrwt beam="1">  1       21 0.23725904E-02 0.12118933E+02</pdfrwt>
<pdfrwt beam="2">  1       21 0.45932954E-02 0.12118933E+02</pdfrwt>
<totfact> 0.14924778E+08</totfact>
</mgrwt>
</event>
<event>
 4    1  0.3900819E+006  0.4713719E+01  0.7546771E-02  0.2620591E+00
         21   -1    0    0  501  502  0.00000000000E+00  0.00000000000E+00  0.12074785962E+01  0.12074785962E+01  0.00000000000E+00 0.  1.
         21   -1    0    0  502  503 -0.00000000000E+00 -0.00000000000E+00 -0.22061201520E+02  0.22061201520E+02  0.00000000000E+00 0.  1.
          5    1    1    2  501    0  0.19848679833E+00 -0.29958581780E+00 -0.56881178713E+01  0.73874104792E+01  0.47000000000E+01 0.  1.
         -5    1    1    2    0  503 -0.19848679833E+00  0.29958581780E+00 -0.15165605053E+02  0.15881269637E+02  0.47000000000E+01 0.  1.
<mgrwt>
<rscale>  2 0.47137192E+01</rscale>
<asrwt>0</asrwt>
<pdfrwt beam="1">  1       21 0.18576594E-03 0.47137192E+01</pdfrwt>
<pdfrwt beam="2">  1       21 0.33940310E-02 0.47137192E+01</pdfrwt>
<totfact> 0.44212827E+09</totfact>
</mgrwt>
</event>
<event>
 4    1  0.3900819E+006  0.5710697E+01  0.7546771E-02  0.2454670E+00
         21   -1    0    0  501  502  0.00000000000E+00  0.00000000000E+00  0.45613902545E+00  0.45613902545E+00  0.00000000000E+00 0. -1.
         21   -1    0    0  502  503 -0.00000000000E+00 -0.00000000000E+00 -0.72209621206E+02  0.72209621206E+02  0.00000000000E+00 0. -1.
          5    1    1    2  501    0 -0.32344011715E+01  0.24640223196E+00 -0.32264555722E+02  0.32766043718E+02  0.47000000000E+01 0. -1.
         -5    1    1    2    0  503  0.32344011715E+01 -0.24640223196E+00 -0.39488926459E+02  0.39899716514E+02  0.47000000000E+01 0. -1.
<mgrwt>
<rscale>  2 0.57106974E+01</rscale>
<asrwt>0</asrwt>
<pdfrwt beam="1">  1       21 0.70175261E-04 0.57106974E+01</pdfrwt>
<pdfrwt beam="2">  1       21 0.11109168E-01 0.57106974E+01</pdfrwt>
<totfact> 0.33871094E+09</totfact>
</mgrwt>
</event>
<event>
 4    1  0.3900819E+006  0.5006436E+01  0.7546771E-02  0.2566013E+00
         21   -1    0    0  501  502  0.00000000000E+00  0.00000000000E+00  0.25900197155E-01  0.25900197155E-01  0.00000000000E+00 0.  1.
         21   -1    0    0  502  503 -0.00000000000E+00 -0.00000000000E+00 -0.99635381424E+03  0.99635381424E+03  0.00000000000E+00 0.  1.
          5    1    1    2  501    0  0.18259024862E+00  0.17149536268E+01 -0.41372367254E+03  0.41375396267E+03  0.47000000000E+01 0.  1.
         -5    1    1    2    0  503 -0.18259024862E+00 -0.17149536268E+01 -0.58260424150E+03  0.58262575176E+03  0.47000000000E+01 0.  1.
<mgrwt>
<rscale>  2 0.50064364E+01</rscale>
<asrwt>0</asrwt>
<pdfrwt beam="1">  1       21 0.39853372E-05 0.50064364E+01</pdfrwt>
<pdfrwt beam="2">  1       21 0.15325861E+00 0.50064364E+01</pdfrwt>
<totfact> 0.13211142E+09</totfact>
</mgrwt>
</event>
<event>
 4    1  0.3900819E+006  0.4741360E+01  0.7546771E-02  0.2615188E+00
         21   -1    0    0  501  502  0.00000000000E+00  0.00000000000E+00  0.11398380145E+01  0.11398380145E+01  0.00000000000E+00 0. -1.
         21   -1    0    0  502  503 -0.00000000000E+00 -0.00000000000E+00 -0.32175360137E+02  0.32175360137E+02  0.00000000000E+00 0. -1.
          5    1    1    2  501    0 -0.42352901727E+00 -0.45947957808E+00 -0.51547826592E+01  0.70037334740E+01  0.47000000000E+01 0. -1.
         -5    1    1    2    0  503  0.42352901727E+00  0.45947957808E+00 -0.25880739463E+02  0.26311464677E+02  0.47000000000E+01 0. -1.
<mgrwt>
<rscale>  2 0.47413604E+01</rscale>
<asrwt>0</asrwt>
<pdfrwt beam="1">  1       21 0.17535968E-03 0.47413604E+01</pdfrwt>
<pdfrwt beam="2">  1       21 0.49500558E-02 0.47413604E+01</pdfrwt>
<totfact> 0.27863573E+09</totfact>
</mgrwt>
</event>
<event>
 4    1  0.3900819E+006  0.1164718E+02  0.7546771E-02  0.1991818E+00
         21   -1    0    0  503  502  0.00000000000E+00  0.00000000000E+00  0.34147287382E+01  0.34147287382E+01  0.00000000000E+00 0.  1.
         21   -1    0    0  501  503 -0.00000000000E+00 -0.00000000000E+00 -0.10339371541E+03  0.10339371541E+03  0.00000000000E+00 0. -1.
          5    1    1    2  501    0  0.33926730813E+01 -0.10102303348E+02 -0.91896332916E+02  0.92631489068E+02  0.47000000000E+01 0. -1.
         -5    1    1    2    0  502 -0.33926730813E+01  0.10102303348E+02 -0.80826537536E+01  0.14176955078E+02  0.47000000000E+01 0.  1.
<mgrwt>
<rscale>  2 0.11647178E+02</rscale>
<asrwt>0</asrwt>
<pdfrwt beam="1">  1       21 0.52534293E-03 0.11647178E+02</pdfrwt>
<pdfrwt beam="2">  1       21 0.15906724E-01 0.11647178E+02</pdfrwt>
<totfact> 0.18592845E+08</totfact>
</mgrwt>
</event>
<event>
 4    1  0.3900819E+006  0.6557200E+01  0.7546771E-02  0.2348093E+00
         21   -1    0    0  503  502  0.00000000000E+00  0.00000000000E+00  0.17497620241E+01  0.17497620241E+01  0.00000000000E+00 0. -1.
         21   -1    0    0  501  503 -0.00000000000E+00 -0.00000000000E+00 -0.50950218604E+02  0.50950218604E+02  0.00000000000E+00 0.  1.
          5    1    1    2  501    0  0.33194861695E+01  0.31445011245E+01 -0.43559517781E+02  0.44050294721E+02  0.47000000000E+01 0.  1.
         -5    1    1    2    0  502 -0.33194861695E+01 -0.31445011245E+01 -0.56409387998E+01  0.86496859073E+01  0.47000000000E+01 0. -1.
<mgrwt>
<rscale>  2 0.65572003E+01</rscale>
<asrwt>0</asrwt>
<pdfrwt beam="1">  1       21 0.26919416E-03 0.65572003E+01</pdfrwt>
<pdfrwt beam="2">  1       21 0.78384950E-02 0.65572003E+01</pdfrwt>
<totfact> 0.10491885E+09</totfact>
</mgrwt>
</event>
<event>
 4    1  0.3900819E+006  0.6296210E+01  0.7546771E-02  0.2378395E+00
         21   -1    0    0  501  502  0.00000000000E+00  0.00000000000E+00  0.13912164575E+02  0.13912164575E+02  0.00000000000E+00 0.  1.
         21   -1    0    0  502  503 -0.00000000000E+00 -0.00000000000E+00 -0.45232092731E+01  0.45232092731E+01  0.00000000000E+00 0.  1.
          5    1    1    2  501    0  0.22078090116E+01 -0.35605962040E+01  0.10301635629E+02  0.12073357553E+02  0.47000000000E+01 0.  1.
         -5    1    1    2    0  503 -0.22078090116E+01  0.35605962040E+01 -0.91268032747E+00  0.63620162952E+01  0.47000000000E+01 0.  1.
<mgrwt>
<rscale>  2 0.62962104E+01</rscale>
<asrwt>0</asrwt>
<pdfrwt beam="1">  1       21 0.21403330E-02 0.62962104E+01</pdfrwt>
<pdfrwt beam="2">  1       21 0.69587836E-03 0.62962104E+01</pdfrwt>
<totfact> 0.18508331E+09</totfact>
</mgrwt>
</event>
<event>
 4    1  0.3900819E+006  0.6299570E+01  0.7546771E-02  0.2377992E+00
         21   -1    0    0  503  502  0.00000000000E+00  0.00000000000E+00  0.15619429955E+01  0.15619429955E+01  0.00000000000E+00 0. -1.
         21   -1    0    0  501  503 -0.00000000000E+00 -0.00000000000E+00 -0.73759287131E+03  0.73759287131E+03  0.00000000000E+00 0.  1.
          5    1    1    2  501    0  0.39073753094E+01 -0.15254511214E+01 -0.73117184365E+03  0.73119898080E+03  0.47000000000E+01 0.  1.
         -5    1    1    2    0  502 -0.39073753094E+01  0.15254511214E+01 -0.48590846663E+01  0.79558335029E+01  0.47000000000E+01 0. -1.
<mgrwt>
<rscale>  2 0.62995701E+01</rscale>
<asrwt>0</asrwt>
<pdfrwt beam="1">  1       21 0.24029876E-03 0.62995701E+01</pdfrwt>
<pdfrwt beam="2">  1       21 0.11347590E+00 0.62995701E+01</pdfrwt>
<totfact> 0.11780052E+07</totfact>
</mgrwt>
</event>
<event>
 4    1  0.3900819E+006  0.4840189E+01  0.7546771E-02  0.2596309E+00
         21   -1    0    0  501  502  0.00000000000E+00  0.00000000000E+00  0.14683883285E+03  0.14683883285E+03  0.00000000000E+00 0.  1.
         21   -1    0    0  502  503 -0.00000000000E+00 -0.00000000000E+00 -0.21086292605E+00  0.21086292605E+00  0.00000000000E+00 0.  1.
          5    1    1    2  501    0 -0.11894919143E+00  0.11503402776E+01  0.10958566752E+03  0.10969250639E+03  0.47000000000E+01 0.  1.
         -5    1    1    2    0  503  0.11894919143E+00 -0.11503402776E+01  0.37042302408E+02  0.37357189393E+02  0.47000000000E+01 0.  1.
<mgrwt>
<rscale>  2 0.48401892E+01</rscale>
<asrwt>0</asrwt>
<pdfrwt beam="1">  1       21 0.22590508E-01 0.48401892E+01</pdfrwt>
<pdfrwt beam="2">  1       21 0.32440567E-04 0.48401892E+01</pdfrwt>
<totfact> 0.26566072E+09</totfact>
</mgrwt>
</event>
<event>
 4    1  0.3900819E+006  0.7577421E+01  0.7546771E-02  0.2246440E+00
         21   -1    0    0  503  502  0.00000000000E+00  0.00000000000E+00  0.71981875189E+00  0.71981875189E+00  0.00000000000E+00 0.  1.
         21   -1    0    0  501  503 -0.00000000000E+00 -0.00000000000E+00 -0.80555405200E+02  0.80555405200E+02  0.00000000000E+00 0. -1.
          5    1    1    2  501    0 -0.48944642687E+01 -0.33721692148E+01 -0.43939754609E+02  0.44588331891E+02  0.47000000000E+01 0. -1.
         -5    1    1    2    0  502  0.48944642687E+01  0.33721692148E+01 -0.35895831839E+02  0.36686892061E+02  0.47000000000E+01 0.  1.
<mgrwt>
<rscale>  2 0.75774208E+01</rscale>
<asrwt>0</asrwt>
<pdfrwt beam="1">  1       21 0.11074146E-03 0.75774208E+01</pdfrwt>
<pdfrwt beam="2">  1       21 0.12393127E-01 0.75774208E+01</pdfrwt>
<totfact> 0.19318131E+09</totfact>
</mgrwt>
</event>
<event>
 4    1  0.3900819E+006  0.5249068E+01  0.7546771E-02  0.2524779E+00
         21   -1    0    0  503  502  0.00000000000E+00  0.00000000000E+00  0.32552176969E+00  0.32552176969E+00  0.00000000000E+00 0. -1.
         21   -1    0    0  501  503 -0.00000000000E+00 -0.00000000000E+00 -0.12167729896E+03  0.12167729896E+03  0.00000000000E+00 0.  1.
          5    1    1    2  501    0  0.11989065969E+01 -0.20063255675E+01 -0.94330510989E+02  0.94476441629E+02  0.47000000000E+01 0.  1.
         -5    1    1    2    0  502 -0.11989065969E+01  0.20063255675E+01 -0.27021266204E+02  0.27526379104E+02  0.47000000000E+01 0. -1.
<mgrwt>
<rscale>  2 0.52490684E+01</rscale>
<asrwt>0</asrwt>
<pdfrwt beam="1">  1       21 0.50080215E-04 0.52490684E+01</pdfrwt>
<pdfrwt beam="2">  1       21 0.18719606E-01 0.52490684E+01</pdfrwt>
<totfact> 0.21772515E+09</totfact>
</mgrwt>
</event>
<event>
 4    1  0.3900819E+006  0.5194370E+01  0.7546771E-02  0.2533786E+00
         21   -1    0    0  501  502  0.00000000000E+00  0.00000000000E+00  0.94309338606E+02  0.94309338606E+02  0.00000000000E+00 0.  1.
         21   -1    0    0  502  503 -0.00000000000E+00 -0.00000000000E+00 -0.78238919428E+00  0.78238919428E+00  0.00000000000E+00 0.  1.
          5    1    1    2  501    0 -0.20845042433E+01  0.73913776862E+00  0.84631327093E+02  0.84790583251E+02  0.47000000000E+01 0.  1.
         -5    1    1    2    0  503  0.20845042433E+01 -0.73913776862E+00  0.88956223188E+01  0.10301144549E+02  0.47000000000E+01 0.  1.
<mgrwt>
<rscale>  2 0.51943703E+01</rscale>
<asrwt>0</asrwt>
<pdfrwt beam="1">  1       21 0.14509120E-01 0.51943703E+01</pdfrwt>
<pdfrwt beam="2">  1       21 0.12036764E-03 0.51943703E+01</pdfrwt>
<totfact> 0.10024311E+09</totfact>
</mgrwt>
</event>
<event>
 4    1  0.3900819E+006  0.6565004E+01  0.7546771E-02  0.2347218E+00
         21   -1    0    0  501  502  0.00000000000E+00  0.00000000000E+00  0.30289554073E+03  0.30289554073E+03  0.00000000000E+00 0. -1.
         21   -1    0    0  502  503 -0.00000000000E+00 -0.00000000000E+00 -0.23024479691E+00  0.23024479691E+00  0.00000000000E+00 0. -1.
          5    1    1    2  501    0  0.44487566352E+01 -0.11035577895E+01  0.24500804589E+03  0.24509598493E+03  0.47000000000E+01 0. -1.
         -5    1    1    2    0  503 -0.44487566352E+01  0.11035577895E+01  0.57657250040E+02  0.58029800599E+02  0.47000000000E+01 0. -1.
<mgrwt>
<rscale>  2 0.65650038E+01</rscale>
<asrwt>0</asrwt>
<pdfrwt beam="1">  1       21 0.46598995E-01 0.65650038E+01</pdfrwt>
<pdfrwt beam="2">  1       21 0.35422519E-04 0.65650038E+01</pdfrwt>
<totfact> 0.88949866E+08</totfact>
</mgrwt>
</event>
<event>
 4    1  0.3900819E+006  0.4719708E+01  0.7546771E-02  0.2619416E+00
         21   -1    0    0  501  502  0.00000000000E+00  0.00000000000E+00  0.17402284515E+01  0.17402284515E+01  0.00000000000E+00 0.  1.
         21   -1    0    0  502  503 -0.00000000000E+00 -0.00000000000E+00 -0.12942065177E+02  0.12942065177E+02  0.00000000000E+00 0.  1.
          5    1    1    2  501    0 -0.28296935714E+00 -0.32491375834E+00 -0.48328926507E+01  0.67551826016E+01  0.47000000000E+01 0.  1.
         -5    1    1    2    0  503  0.28296935714E+00  0.32491375834E+00 -0.63689440752E+01  0.79271110274E+01  0.47000000000E+01 0.  1.
<mgrwt>
<rscale>  2 0.47197077E+01</rscale>
<asrwt>0</asrwt>
<pdfrwt beam="1">  1       21 0.26772746E-03 0.47197077E+01</pdfrwt>
<pdfrwt beam="2">  1       21 0.19910869E-02 0.47197077E+01</pdfrwt>
<totfact> 0.57864940E+09</totfact>
</mgrwt>
</event>
<event>
 4    1  0.3900819E+006  0.6118834E+01  0.7546771E-02  0.2400209E+00
         21   -1    0    0  503  502  0.00000000000E+00  0.00000000000E+00  0.20253882161E+01  0.20253882161E+01  0.00000000000E+00 0. -1.
         21   -1    0    0  501  503 -0.00000000000E+00 -0.00000000000E+00 -0.24086357715E+02  0.24086357715E+02  0.00000000000E+00 0. -1.
          5    1    1    2  501    0  0.37239316893E+01 -0.12175652958E+01 -0.17326287195E+02  0.18374992801E+02  0.47000000000E+01 0. -1.
         -5    1    1    2    0  502 -0.37239316893E+01  0.12175652958E+01 -0.47346823040E+01  0.77367531301E+01  0.47000000000E+01 0. -1.
<mgrwt>
<rscale>  2 0.61188342E+01</rscale>
<asrwt>0</asrwt>
<pdfrwt beam="1">  1       21 0.31159819E-03 0.61188342E+01</pdfrwt>
<pdfrwt beam="2">  1       21 0.37055935E-02 0.61188342E+01</pdfrwt>
<totfact> 0.24831418E+09</totfact>
</mgrwt>
</event>
<event>
 4    1  0.3900819E+006  0.5567464E+01  0.7546771E-02  0.2475366E+00
         21   -1    0    0  503  502  0.00000000000E+00  0.00000000000E+00  0.10855223471E+02  0.10855223471E+02  0.00000000000E+00 0.  1.
         21   -1    0    0  501  503 -0.00000000000E+00 -0.00000000000E+00 -0.11541419971E+02  0.11541419971E+02  0.00000000000E+00 0.  1.
          5    1    1    2  501    0  0.29394866400E+01 -0.51582014189E+00 -0.10057861915E+02  0.11495966180E+02  0.47000000000E+01 0.  1.
         -5    1    1    2    0  502 -0.29394866400E+01  0.51582014189E+00  0.93716654146E+01  0.10900677262E+02  0.47000000000E+01 0.  1.
<mgrwt>
<rscale>  2 0.55674637E+01</rscale>
<asrwt>0</asrwt>
<pdfrwt beam="1">  1       21 0.16700344E-02 0.55674637E+01</pdfrwt>
<pdfrwt beam="2">  1       21 0.17756031E-02 0.55674637E+01</pdfrwt>
<totfact> 0.63433309E+08</totfact>
</mgrwt>
</event>
<event>
 4    1  0.3900819E+006  0.5621896E+01  0.7546771E-02  0.2467396E+00
         21   -1    0    0  501  502  0.00000000000E+00  0.00000000000E+00  0.54733846104E+01  0.54733846104E+01  0.00000000000E+00 0.  1.
         21   -1    0    0  502  503 -0.00000000000E+00 -0.00000000000E+00 -0.64833997213E+01  0.64833997213E+01  0.00000000000E+00 0. -1.
          5    1    1    2  501    0 -0.19703230707E+01 -0.23735088034E+01  0.14719373432E+01  0.58113954077E+01  0.47000000000E+01 0.  1.
         -5    1    1    2    0  503  0.19703230707E+01  0.23735088034E+01 -0.24819524541E+01  0.61453889240E+01  0.47000000000E+01 0. -1.
<mgrwt>
<rscale>  2 0.56218962E+01</rscale>
<asrwt>0</asrwt>
<pdfrwt beam="1">  1       21 0.84205917E-03 0.56218962E+01</pdfrwt>
<pdfrwt beam="2">  1       21 0.99744611E-03 0.56218962E+01</pdfrwt>
<totfact> 0.38002540E+09</totfact>
</mgrwt>
</event>
<event>
 4    1  0.3900819E+006  0.1025828E+02  0.7546771E-02  0.2060580E+00
         21   -1    0    0  503  502  0.00000000000E+00  0.00000000000E+00  0.73761310003E+01  0.73761310003E+01  0.00000000000E+00 0.  1.
         21   -1    0    0  501  503 -0.00000000000E+00 -0.00000000000E+00 -0.20336044443E+02  0.20336044443E+02  0.00000000000E+00 0.  1.
          5    1    1    2  501    0 -0.57065704475E+00 -0.91003615859E+01 -0.14049719009E+02  0.17396172990E+02  0.47000000000E+01 0.  1.
         -5    1    1    2    0  502  0.57065704475E+00  0.91003615859E+01  0.10898055659E+01  0.10316002454E+02  0.47000000000E+01 0.  1.
<mgrwt>
<rscale>  2 0.10258276E+02</rscale>
<asrwt>0</asrwt>
<pdfrwt beam="1">  1       21 0.11347894E-02 0.10258276E+02</pdfrwt>
<pdfrwt beam="2">  1       21 0.31286222E-02 0.10258276E+02</pdfrwt>
<totfact> 0.73383509E+08</totfact>
</mgrwt>
</event>
<event>
 4    1  0.3900819E+006  0.6377980E+01  0.7546771E-02  0.2368680E+00
         21   -1    0    0  501  502  0.00000000000E+00  0.00000000000E+00  0.45228199363E+03  0.45228199363E+03  0.00000000000E+00 0.  1.
         21   -1    0    0  502  503 -0.00000000000E+00 -0.00000000000E+00 -0.40634050120E+00  0.40634050120E+00  0.00000000000E+00 0.  1.
          5    1    1    2  501    0  0.12284659535E+01 -0.41327352137E+01  0.42566734098E+03  0.42571512048E+03  0.47000000000E+01 0.  1.
         -5    1    1    2    0  503 -0.12284659535E+01  0.41327352137E+01  0.26208312149E+02  0.26973213651E+02  0.47000000000E+01 0.  1.
<mgrwt>
<rscale>  2 0.63779800E+01</rscale>
<asrwt>0</asrwt>
<pdfrwt beam="1">  1       21 0.69581443E-01 0.63779800E+01</pdfrwt>
<pdfrwt beam="2">  1       21 0.62514285E-04 0.63779800E+01</pdfrwt>
<totfact> 0.19415982E+08</totfact>
</mgrwt>
</event>
<event>
 4    1  0.3900819E+006  0.1207086E+02  0.7546771E-02  0.1973318E+00
         21   -1    0    0  501  502  0.00000000000E+00  0.00000000000E+00  0.11967702371E+02  0.11967702371E+02  0.00000000000E+00 0. -1.
         21   -1    0    0  502  503 -0.00000000000E+00 -0.00000000000E+00 -0.12249369406E+02  0.12249369406E+02  0.00000000000E+00 0.  1.
          5    1    1    2  501    0 -0.11110984621E+02 -0.40221508796E+00 -0.10848523757E+01  0.12119515704E+02  0.47000000000E+01 0. -1.
         -5    1    1    2    0  503  0.11110984621E+02  0.40221508796E+00  0.80318534073E+00  0.12097556072E+02  0.47000000000E+01 0.  1.
<mgrwt>
<rscale>  2 0.12070864E+02</rscale>
<asrwt>0</asrwt>
<pdfrwt beam="1">  1       21 0.18411850E-02 0.12070864E+02</pdfrwt>
<pdfrwt beam="2">  1       21 0.18845184E-02 0.12070864E+02</pdfrwt>
<totfact> 0.83880531E+08</totfact>
</mgrwt>
</event>
<event>
 4    1  0.3900819E+006  0.4922024E+01  0.7546771E-02  0.2581175E+00
         21   -1    0    0  503  502  0.00000000000E+00  0.00000000000E+00  0.77732068725E+01  0.77732068725E+01  0.00000000000E+00 0. -1.
         21   -1    0    0  501  503 -0.00000000000E+00 -0.00000000000E+00 -0.32093006432E+01  0.32093006432E+01  0.00000000000E+00 0. -1.
          5    1    1    2  501    0  0.68144046730E+00 -0.12930424627E+01  0.32150015369E+01  0.58789926691E+01  0.47000000000E+01 0. -1.
         -5    1    1    2    0  502 -0.68144046730E+00  0.12930424627E+01  0.13489046924E+01  0.51035148466E+01  0.47000000000E+01 0. -1.
<mgrwt>
<rscale>  2 0.49220240E+01</rscale>
<asrwt>0</asrwt>
<pdfrwt beam="1">  1       21 0.11958780E-02 0.49220240E+01</pdfrwt>
<pdfrwt beam="2">  1       21 0.49373856E-03 0.49220240E+01</pdfrwt>
<totfact> 0.53933798E+09</totfact>
</mgrwt>
</event>
<event>
 4    1  0.3900819E+006  0.5281233E+01  0.7546771E-02  0.2519558E+00
         21   -1    0    0  503  502  0.00000000000E+00  0.00000000000E+00  0.42359412871E+01  0.42359412871E+01  0.00000000000E+00 0.  1.
         21   -1    0    0  501  503 -0.00000000000E+00 -0.00000000000E+00 -0.66021899688E+01  0.66021899688E+01  0.00000000000E+00 0.  1.
          5    1    1    2  501    0  0.23603552914E+01  0.47973676479E+00 -0.90237221726E+00  0.53577700663E+01  0.47000000000E+01 0.  1.
         -5    1    1    2    0  502 -0.23603552914E+01 -0.47973676479E+00 -0.14638764645E+01  0.54803611896E+01  0.47000000000E+01 0.  1.
<mgrwt>
<rscale>  2 0.52812332E+01</rscale>
<asrwt>0</asrwt>
<pdfrwt beam="1">  1       21 0.65168327E-03 0.52812332E+01</pdfrwt>
<pdfrwt beam="2">  1       21 0.10157215E-02 0.52812332E+01</pdfrwt>
<totfact> 0.49793455E+09</totfact>
</mgrwt>
</event>
<event>
 4    1  0.3900819E+006  0.6615203E+01  0.7546771E-02  0.2341628E+00
         21   -1    0    0  503  502  0.00000000000E+00  0.00000000000E+00  0.19144677840E+01  0.19144677840E+01  0.00000000000E+00 0. -1.
         21   -1    0    0  501  503 -0.00000000000E+00 -0.00000000000E+00 -0.25951845804E+02  0.25951845804E+02  0.00000000000E+00 0. -1.
          5    1    1    2  501    0 -0.16340643967E+01 -0.43589847735E+01 -0.16829456422E+02  0.18082906795E+02  0.47000000000E+01 0. -1.
         -5    1    1    2    0  502  0.16340643967E+01  0.43589847735E+01 -0.72079215983E+01  0.97834067929E+01  0.47000000000E+01 0. -1.
<mgrwt>
<rscale>  2 0.66152033E+01</rscale>
<asrwt>0</asrwt>
<pdfrwt beam="1">  1       21 0.29453352E-03 0.66152033E+01</pdfrwt>
<pdfrwt beam="2">  1       21 0.39925915E-02 0.66152033E+01</pdfrwt>
<totfact> 0.25669439E+09</totfact>
</mgrwt>
</event>
<event>
 4    1  0.3900819E+006  0.5069278E+01  0.7546771E-02  0.2555009E+00
         21   -1    0    0  503  502  0.00000000000E+00  0.00000000000E+00  0.23999332365E+01  0.23999332365E+01  0.00000000000E+00 0. -1.
         21   -1    0    0  501  503 -0.00000000000E+00 -0.00000000000E+00 -0.22984302621E+02  0.22984302621E+02  0.00000000000E+00 0. -1.
          5    1    1    2  501    0  0.18957510527E+01 -0.11708771174E+00 -0.19568145072E+02  0.20214101097E+02  0.47000000000E+01 0. -1.
         -5    1    1    2    0  502 -0.18957510527E+01  0.11708771174E+00 -0.10162243119E+01  0.51701347602E+01  0.47000000000E+01 0. -1.
<mgrwt>
<rscale>  2 0.50692782E+01</rscale>
<asrwt>0</asrwt>
<pdfrwt beam="1">  1       21 0.36922049E-03 0.50692782E+01</pdfrwt>
<pdfrwt beam="2">  1       21 0.35360466E-02 0.50692782E+01</pdfrwt>
<totfact> 0.17751432E+09</totfact>
</mgrwt>
</event>
<event>
 4    1  0.3900819E+006  0.5147746E+01  0.7546771E-02  0.2541593E+00
         21   -1    0    0  501  502  0.00000000000E+00  0.00000000000E+00  0.13090755879E+02  0.13090755879E+02  0.00000000000E+00 0. -1.
         21   -1    0    0  502  503 -0.00000000000E+00 -0.00000000000E+00 -0.68895215802E+01  0.68895215802E+01  0.00000000000E+00 0. -1.
          5    1    1    2  501    0 -0.20111497644E+01 -0.60379235491E+00  0.11495785684E+02  0.12595728525E+02  0.47000000000E+01 0. -1.
         -5    1    1    2    0  503  0.20111497644E+01  0.60379235491E+00 -0.52945513855E+01  0.73845489339E+01  0.47000000000E+01 0. -1.
<mgrwt>
<rscale>  2 0.51477460E+01</rscale>
<asrwt>0</asrwt>
<pdfrwt beam="1">  1       21 0.20139624E-02 0.51477460E+01</pdfrwt>
<pdfrwt beam="2">  1       21 0.10599264E-02 0.51477460E+01</pdfrwt>
<totfact> 0.93921679E+08</totfact>
</mgrwt>
</event>
<event>
 4    1  0.3900819E+006  0.8156560E+01  0.7546771E-02  0.2198107E+00
         21   -1    0    0  501  502  0.00000000000E+00  0.00000000000E+00  0.11798020058E+00  0.11798020058E+00  0.00000000000E+00 0.  1.
         21   -1    0    0  502  503 -0.00000000000E+00 -0.00000000000E+00 -0.72744325861E+03  0.72744325861E+03  0.00000000000E+00 0. -1.
          5    1    1    2  501    0  0.55812162259E+00  0.66428892290E+01 -0.19117763407E+03  0.19135155407E+03  0.47000000000E+01 0. -1.
         -5    1    1    2    0  503 -0.55812162259E+00 -0.66428892290E+01 -0.53614764434E+03  0.53620968474E+03  0.47000000000E+01 0.  1.
<mgrwt>
<rscale>  2 0.81565604E+01</rscale>
<asrwt>0</asrwt>
<pdfrwt beam="1">  1       21 0.18150433E-04 0.81565604E+01</pdfrwt>
<pdfrwt beam="2">  1       21 0.11191661E+00 0.81565604E+01</pdfrwt>
<totfact> 0.45452964E+08</totfact>
</mgrwt>
</event>
<event>
 4    1  0.3900819E+006  0.5720237E+01  0.7546771E-02  0.2453322E+00
         21   -1    0    0  503  502  0.00000000000E+00  0.00000000000E+00  0.45815003682E-01  0.45815003682E-01  0.00000000000E+00 0.  1.
         21   -1    0    0  501  503 -0.00000000000E+00 -0.00000000000E+00 -0.93508530349E+03  0.93508530349E+03  0.00000000000E+00 0. -1.
          5    1    1    2  501    0 -0.17454788040E+01 -0.27539823847E+01 -0.69476742462E+03  0.69479097247E+03  0.47000000000E+01 0.  1.
         -5    1    1    2    0  502  0.17454788040E+01  0.27539823847E+01 -0.24027206387E+03  0.24034014603E+03  0.47000000000E+01 0.  1.
<mgrwt>
<rscale>  2 0.57202373E+01</rscale>
<asrwt>0</asrwt>
<pdfrwt beam="1">  1       21 0.70482317E-05 0.57202373E+01</pdfrwt>
<pdfrwt beam="2">  1       21 0.14386398E+00 0.57202373E+01</pdfrwt>
<totfact> 0.76779361E+08</totfact>
</mgrwt>
</event>
<event>
 4    1  0.3900819E+006  0.7573506E+01  0.7546771E-02  0.2246786E+00
         21   -1    0    0  501  502  0.00000000000E+00  0.00000000000E+00  0.20652675896E+02  0.20652675896E+02  0.00000000000E+00 0. -1.
         21   -1    0    0  502  503 -0.00000000000E+00 -0.00000000000E+00 -0.87819782264E+01  0.87819782264E+01  0.00000000000E+00 0. -1.
          5    1    1    2  501    0 -0.87610660282E+00 -0.58737072920E+01  0.18105019286E+02  0.19625231807E+02  0.47000000000E+01 0. -1.
         -5    1    1    2    0  503  0.87610660282E+00  0.58737072920E+01 -0.62343216168E+01  0.98094223150E+01  0.47000000000E+01 0. -1.
<mgrwt>
<rscale>  2 0.75735065E+01</rscale>
<asrwt>0</asrwt>
<pdfrwt beam="1">  1       21 0.31773347E-02 0.75735065E+01</pdfrwt>
<pdfrwt beam="2">  1       21 0.13510736E-02 0.75735065E+01</pdfrwt>
<totfact> 0.46357609E+08</totfact>
</mgrwt>
</event>
<event>
 4    1  0.3900819E+006  0.7023925E+01  0.7546771E-02  0.2298589E+00
         21   -1    0    0  501  502  0.00000000000E+00  0.00000000000E+00  0.17696789204E+04  0.17696789204E+04  0.00000000000E+00 0. -1.
         21   -1    0    0  502  503 -0.00000000000E+00 -0.00000000000E+00 -0.64915205788E-01  0.64915205788E-01  0.00000000000E+00 0.  1.
          5    1    1    2  501    0  0.51671541209E+01  0.73894577849E+00  0.15531892872E+04  0.15532051691E+04  0.47000000000E+01 0. -1.
         -5    1    1    2    0  503 -0.51671541209E+01 -0.73894577849E+00  0.21642471800E+03  0.21653866649E+03  0.47000000000E+01 0.  1.
<mgrwt>
<rscale>  2 0.70239250E+01</rscale>
<asrwt>0</asrwt>
<pdfrwt beam="1">  1       21 0.27221966E+00 0.70239250E+01</pdfrwt>
<pdfrwt beam="2">  1       21 0.99883721E-05 0.70239250E+01</pdfrwt>
<totfact> 0.12633512E+08</totfact>
</mgrwt>
</event>
<event>
 4    1  0.3900819E+006  0.5030371E+01  0.7546771E-02  0.2561794E+00
         21   -1    0    0  503  502  0.00000000000E+00  0.00000000000E+00  0.21690501363E+01  0.21690501363E+01  0.00000000000E+00 0. -1.
         21   -1    0    0  501  503 -0.00000000000E+00 -0.00000000000E+00 -0.65979237181E+02  0.65979237181E+02  0.00000000000E+00 0. -1.
          5    1    1    2  501    0 -0.15730654319E+01 -0.86029145647E+00 -0.62820376955E+02  0.63021459813E+02  0.47000000000E+01 0. -1.
         -5    1    1    2    0  502  0.15730654319E+01  0.86029145647E+00 -0.98981008991E+00  0.51268275041E+01  0.47000000000E+01 0. -1.
<mgrwt>
<rscale>  2 0.50303714E+01</rscale>
<asrwt>0</asrwt>
<pdfrwt beam="1">  1       21 0.33369998E-03 0.50303714E+01</pdfrwt>
<pdfrwt beam="2">  1       21 0.10150653E-01 0.50303714E+01</pdfrwt>
<totfact> 0.42657237E+08</totfact>
</mgrwt>
</event>
<event>
 4    1  0.3900819E+006  0.5147850E+01  0.7546771E-02  0.2541575E+00
         21   -1    0    0  503  502  0.00000000000E+00  0.00000000000E+00  0.69747163589E+01  0.69747163589E+01  0.00000000000E+00 0.  1.
         21   -1    0    0  501  503 -0.00000000000E+00 -0.00000000000E+00 -0.38125545720E+01  0.38125545720E+01  0.00000000000E+00 0.  1.
          5    1    1    2  501    0  0.18807573309E+01  0.93440680116E+00  0.18968162207E+01  0.54861895686E+01  0.47000000000E+01 0.  1.
         -5    1    1    2    0  502 -0.18807573309E+01 -0.93440680116E+00  0.12653455662E+01  0.53010813623E+01  0.47000000000E+01 0.  1.
<mgrwt>
<rscale>  2 0.51478504E+01</rscale>
<asrwt>0</asrwt>
<pdfrwt beam="1">  1       21 0.10730333E-02 0.51478504E+01</pdfrwt>
<pdfrwt beam="2">  1       21 0.58654686E-03 0.51478504E+01</pdfrwt>
<totfact> 0.51941957E+09</totfact>
</mgrwt>
</event>
<event>
 4    1  0.3900819E+006  0.5528617E+01  0.7546771E-02  0.2481135E+00
         21   -1    0    0  503  502  0.00000000000E+00  0.00000000000E+00  0.48751516964E+02  0.48751516964E+02  0.00000000000E+00 0.  1.
         21   -1    0    0  501  503 -0.00000000000E+00 -0.00000000000E+00 -0.31286951100E+01  0.31286951100E+01  0.00000000000E+00 0. -1.
          5    1    1    2  501    0 -0.28160139142E+01 -0.73869474326E+00 -0.38443194971E+00  0.55419664572E+01  0.47000000000E+01 0. -1.
         -5    1    1    2    0  502  0.28160139142E+01  0.73869474326E+00  0.46007253803E+02  0.46338245616E+02  0.47000000000E+01 0.  1.
<mgrwt>
<rscale>  2 0.55286169E+01</rscale>
<asrwt>0</asrwt>
<pdfrwt beam="1">  1       21 0.75002328E-02 0.55286169E+01</pdfrwt>
<pdfrwt beam="2">  1       21 0.48133775E-03 0.55286169E+01</pdfrwt>
<totfact> 0.44088629E+08</totfact>
</mgrwt>
</event>
<event>
 4    1  0.3900819E+006  0.5327538E+01  0.7546771E-02  0.2512135E+00
         21   -1    0    0  503  502  0.00000000000E+00  0.00000000000E+00  0.33007425856E+02  0.33007425856E+02  0.00000000000E+00 0. -1.
         21   -1    0    0  501  503 -0.00000000000E+00 -0.00000000000E+00 -0.94285381622E+00  0.94285381622E+00  0.00000000000E+00 0. -1.
          5    1    1    2  501    0 -0.11409178853E+01  0.22340466948E+01  0.10996778557E+02  0.12219320639E+02  0.47000000000E+01 0. -1.
         -5    1    1    2    0  502  0.11409178853E+01 -0.22340466948E+01  0.21067793483E+02  0.21730959033E+02  0.47000000000E+01 0. -1.
<mgrwt>
<rscale>  2 0.53275377E+01</rscale>
<asrwt>0</asrwt>
<pdfrwt beam="1">  1       21 0.50780646E-02 0.53275377E+01</pdfrwt>
<pdfrwt beam="2">  1       21 0.14505446E-03 0.53275377E+01</pdfrwt>
<totfact> 0.38959480E+09</totfact>
</mgrwt>
</event>
<event>
 4    1  0.3900819E+006  0.8948946E+01  0.7546771E-02  0.2140253E+00
         21   -1    0    0  503  502  0.00000000000E+00  0.00000000000E+00  0.18315147675E+03  0.18315147675E+03  0.00000000000E+00 0. -1.
         21   -1    0    0  501  503 -0.00000000000E+00 -0.00000000000E+00 -0.43981914377E+00  0.43981914377E+00  0.00000000000E+00 0. -1.
          5    1    1    2  501    0 -0.50272329343E+01  0.57201893464E+01  0.84344872716E+02  0.84818283351E+02  0.47000000000E+01 0. -1.
         -5    1    1    2    0  502  0.50272329343E+01 -0.57201893464E+01  0.98366784895E+02  0.98773012547E+02  0.47000000000E+01 0. -1.
<mgrwt>
<rscale>  2 0.89489461E+01</rscale>
<asrwt>0</asrwt>
<pdfrwt beam="1">  1       21 0.28177089E-01 0.89489461E+01</pdfrwt>
<pdfrwt beam="2">  1       21 0.67664630E-04 0.89489461E+01</pdfrwt>
<totfact> 0.10903048E+09</totfact>
</mgrwt>
</event>
<event>
 4    1  0.3900819E+006  0.4833825E+01  0.7546771E-02  0.2597505E+00
         21   -1    0    0  503  502  0.00000000000E+00  0.00000000000E+00  0.98916107215E+01  0.98916107215E+01  0.00000000000E+00 0.  1.
         21   -1    0    0  501  503 -0.00000000000E+00 -0.00000000000E+00 -0.33733209019E+01  0.33733209019E+01  0.00000000000E+00 0.  1.
          5    1    1    2  501    0 -0.11264432456E+01  0.83612222135E-01  0.68903422478E+01  0.84168094715E+01  0.47000000000E+01 0.  1.
         -5    1    1    2    0  502  0.11264432456E+01 -0.83612222135E-01 -0.37205242816E+00  0.48481221518E+01  0.47000000000E+01 0.  1.
<mgrwt>
<rscale>  2 0.48338251E+01</rscale>
<asrwt>0</asrwt>
<pdfrwt beam="1">  1       21 0.15217862E-02 0.48338251E+01</pdfrwt>
<pdfrwt beam="2">  1       21 0.51897245E-03 0.48338251E+01</pdfrwt>
<totfact> 0.35240713E+09</totfact>
</mgrwt>
</event>
<event>
 4    1  0.3900819E+006  0.4703479E+01  0.7546771E-02  0.2622607E+00
         21   -1    0    0  501  502  0.00000000000E+00  0.00000000000E+00  0.21425116128E+00  0.21425116128E+00  0.00000000000E+00 0. -1.
         21   -1    0    0  502  503 -0.00000000000E+00 -0.00000000000E+00 -0.14740225281E+03  0.14740225281E+03  0.00000000000E+00 0. -1.
          5    1    1    2  501    0  0.17510433089E+00 -0.45342158500E-01 -0.33201588289E+02  0.33533090856E+02  0.47000000000E+01 0. -1.
         -5    1    1    2    0  503 -0.17510433089E+00  0.45342158500E-01 -0.11398641336E+03  0.11408341311E+03  0.47000000000E+01 0. -1.
<mgrwt>
<rscale>  2 0.47034793E+01</rscale>
<asrwt>0</asrwt>
<pdfrwt beam="1">  1       21 0.32961682E-04 0.47034793E+01</pdfrwt>
<pdfrwt beam="2">  1       21 0.22677294E-01 0.47034793E+01</pdfrwt>
<totfact> 0.25138426E+09</totfact>
</mgrwt>
</event>
<event>
 4    1  0.3900819E+006  0.5315410E+01  0.7546771E-02  0.2514068E+00
         21   -1    0    0  501  502  0.00000000000E+00  0.00000000000E+00  0.65076086889E+02  0.65076086889E+02  0.00000000000E+00 0.  1.
         21   -1    0    0  502  503 -0.00000000000E+00 -0.00000000000E+00 -0.66270869824E+00  0.66270869824E+00  0.00000000000E+00 0.  1.
          5    1    1    2  501    0 -0.19309054501E+01  0.15605091694E+01  0.51509367968E+02  0.51782898463E+02  0.47000000000E+01 0.  1.
         -5    1    1    2    0  503  0.19309054501E+01 -0.15605091694E+01  0.12904010223E+02  0.13955897125E+02  0.47000000000E+01 0.  1.
<mgrwt>
<rscale>  2 0.53154101E+01</rscale>
<asrwt>0</asrwt>
<pdfrwt beam="1">  1       21 0.10011701E-01 0.53154101E+01</pdfrwt>
<pdfrwt beam="2">  1       21 0.10195524E-03 0.53154101E+01</pdfrwt>
<totfact> 0.22603497E+09</totfact>
</mgrwt>
</event>
<event>
 4    1  0.3900819E+006  0.7003024E+01  0.7546771E-02  0.2300689E+00
         21   -1    0    0  503  502  0.00000000000E+00  0.00000000000E+00  0.12976364454E+03  0.12976364454E+03  0.00000000000E+00 0. -1.
         21   -1    0    0  501  503 -0.00000000000E+00 -0.00000000000E+00 -0.49359388357E+00  0.49359388357E+00  0.00000000000E+00 0.  1.
          5    1    1    2  501    0 -0.51211243788E+01  0.85231088270E+00  0.33108604771E+02  0.33841129689E+02  0.47000000000E+01 0.  1.
         -5    1    1    2    0  502  0.51211243788E+01 -0.85231088270E+00  0.96161445887E+02  0.96416108736E+02  0.47000000000E+01 0. -1.
<mgrwt>
<rscale>  2 0.70030243E+01</rscale>
<asrwt>0</asrwt>
<pdfrwt beam="1">  1       21 0.19963610E-01 0.70030243E+01</pdfrwt>
<pdfrwt beam="2">  1       21 0.75937624E-04 0.70030243E+01</pdfrwt>
<totfact> 0.14168701E+09</totfact>
</mgrwt>
</event>
<event>
 4    1  0.3900819E+006  0.7787540E+01  0.7546771E-02  0.2228233E+00
         21   -1    0    0  503  502  0.00000000000E+00  0.00000000000E+00  0.67569969829E+01  0.67569969829E+01  0.00000000000E+00 0.  1.
         21   -1    0    0  501  503 -0.00000000000E+00 -0.00000000000E+00 -0.18287162188E+02  0.18287162188E+02  0.00000000000E+00 0.  1.
          5    1    1    2  501    0  0.94991659664E+00  0.61362403172E+01 -0.14700658873E+02  0.16635959788E+02  0.47000000000E+01 0.  1.
         -5    1    1    2    0  502 -0.94991659664E+00 -0.61362403172E+01  0.31704936675E+01  0.84081993831E+01  0.47000000000E+01 0.  1.
<mgrwt>
<rscale>  2 0.77875405E+01</rscale>
<asrwt>0</asrwt>
<pdfrwt beam="1">  1       21 0.10395380E-02 0.77875405E+01</pdfrwt>
<pdfrwt beam="2">  1       21 0.28134096E-02 0.77875405E+01</pdfrwt>
<totfact> 0.82411857E+08</totfact>
</mgrwt>
</event>
<event>
 4    1  0.3900819E+006  0.7419677E+01  0.7546771E-02  0.2260655E+00
         21   -1    0    0  501  502  0.00000000000E+00  0.00000000000E+00  0.12139723590E+01  0.12139723590E+01  0.00000000000E+00 0.  1.
         21   -1    0    0  502  503 -0.00000000000E+00 -0.00000000000E+00 -0.11407673926E+03  0.11407673926E+03  0.00000000000E+00 0. -1.
          5    1    1    2  501    0  0.31916700349E+01  0.47722997865E+01 -0.11687470320E+02  0.13843719346E+02  0.47000000000E+01 0. -1.
         -5    1    1    2    0  503 -0.31916700349E+01 -0.47722997865E+01 -0.10117529658E+03  0.10144699228E+03  0.47000000000E+01 0.  1.
<mgrwt>
<rscale>  2 0.74196767E+01</rscale>
<asrwt>0</asrwt>
<pdfrwt beam="1">  1       21 0.18676496E-03 0.74196767E+01</pdfrwt>
<pdfrwt beam="2">  1       21 0.17550269E-01 0.74196767E+01</pdfrwt>
<totfact> 0.53339196E+08</totfact>
</mgrwt>
</event>
<event>
 4    1  0.3900819E+006  0.5374055E+01  0.7546771E-02  0.2504788E+00
         21   -1    0    0  501  502  0.00000000000E+00  0.00000000000E+00  0.11485971359E+04  0.11485971359E+04  0.00000000000E+00 0. -1.
         21   -1    0    0  502  503 -0.00000000000E+00 -0.00000000000E+00 -0.20226058298E+00  0.20226058298E+00  0.00000000000E+00 0. -1.
          5    1    1    2  501    0 -0.26025578760E+01 -0.13098226796E+00  0.11117092857E+04  0.11117222748E+04  0.47000000000E+01 0. -1.
         -5    1    1    2    0  503  0.26025578760E+01  0.13098226796E+00  0.36685589711E+02  0.37077121737E+02  0.47000000000E+01 0. -1.
<mgrwt>
<rscale>  2 0.53740547E+01</rscale>
<asrwt>0</asrwt>
<pdfrwt beam="1">  1       21 0.17670203E+00 0.53740547E+01</pdfrwt>
<pdfrwt beam="2">  1       21 0.31117933E-04 0.53740547E+01</pdfrwt>
<totfact> 0.65924957E+07</totfact>
</mgrwt>
</event>
<event>
 4    1  0.3900819E+006  0.5505574E+01  0.7546771E-02  0.2484590E+00
         21   -1    0    0  501  502  0.00000000000E+00  0.00000000000E+00  0.10500243113E+02  0.10500243113E+02  0.00000000000E+00 0. -1.
         21   -1    0    0  502  503 -0.00000000000E+00 -0.00000000000E+00 -0.19305502932E+02  0.19305502932E+02  0.00000000000E+00 0. -1.
          5    1    1    2  501    0  0.24224969067E+01  0.15338998999E+01  0.93409484529E+01  0.10842723743E+02  0.47000000000E+01 0. -1.
         -5    1    1    2    0  503 -0.24224969067E+01 -0.15338998999E+01 -0.18146208272E+02  0.18963022302E+02  0.47000000000E+01 0. -1.
<mgrwt>
<rscale>  2 0.55055736E+01</rscale>
<asrwt>0</asrwt>
<pdfrwt beam="1">  1       21 0.16154220E-02 0.55055736E+01</pdfrwt>
<pdfrwt beam="2">  1       21 0.29700774E-02 0.55055736E+01</pdfrwt>
<totfact> 0.31516590E+08</totfact>
</mgrwt>
</event>
<event>
 4    1  0.3900819E+006  0.4805211E+01  0.7546771E-02  0.2602914E+00
         21   -1    0    0  503  502  0.00000000000E+00  0.00000000000E+00  0.10827925488E+01  0.10827925488E+01  0.00000000000E+00 0.  1.
         21   -1    0    0  501  503 -0.00000000000E+00 -0.00000000000E+00 -0.30192051474E+02  0.30192051474E+02  0.00000000000E+00 0.  1.
          5    1    1    2  501    0  0.49924291899E+00 -0.86649204416E+00 -0.23029240000E+02  0.23525219382E+02  0.47000000000E+01 0.  1.
         -5    1    1    2    0  502 -0.49924291899E+00  0.86649204416E+00 -0.60800189247E+01  0.77496246412E+01  0.47000000000E+01 0.  1.
<mgrwt>
<rscale>  2 0.48052109E+01</rscale>
<asrwt>0</asrwt>
<pdfrwt beam="1">  1       21 0.16658347E-03 0.48052109E+01</pdfrwt>
<pdfrwt beam="2">  1       21 0.46449309E-02 0.48052109E+01</pdfrwt>
<totfact> 0.33195718E+09</totfact>
</mgrwt>
</event>
<event>
 4    1  0.3900819E+006  0.1122185E+02  0.7546771E-02  0.2011465E+00
         21   -1    0    0  503  502  0.00000000000E+00  0.00000000000E+00  0.29481874864E+01  0.29481874864E+01  0.00000000000E+00 0. -1.
         21   -1    0    0  501  503 -0.00000000000E+00 -0.00000000000E+00 -0.58711299895E+02  0.58711299895E+02  0.00000000000E+00 0.  1.
          5    1    1    2  501    0 -0.93449534421E+01  0.40634613799E+01 -0.43974216276E+02  0.45383494470E+02  0.47000000000E+01 0.  1.
         -5    1    1    2    0  502  0.93449534421E+01 -0.40634613799E+01 -0.11788896132E+02  0.16275992911E+02  0.47000000000E+01 0. -1.
<mgrwt>
<rscale>  2 0.11221848E+02</rscale>
<asrwt>0</asrwt>
<pdfrwt beam="1">  1       21 0.45356732E-03 0.11221848E+02</pdfrwt>
<pdfrwt beam="2">  1       21 0.90325074E-02 0.11221848E+02</pdfrwt>
<totfact> 0.56404685E+08</totfact>
</mgrwt>
</event>
<event>
 4    1  0.3900819E+006  0.7390798E+01  0.7546771E-02  0.2263310E+00
         21   -1    0    0  501  502  0.00000000000E+00  0.00000000000E+00  0.12612621908E+03  0.12612621908E+03  0.00000000000E+00 0. -1.
         21   -1    0    0  502  503 -0.00000000000E+00 -0.00000000000E+00 -0.47238506210E+00  0.47238506210E+00  0.00000000000E+00 0. -1.
          5    1    1    2  501    0 -0.46187028564E+01  0.33468612008E+01  0.81083713565E+02  0.81419853239E+02  0.47000000000E+01 0. -1.
         -5    1    1    2    0  503  0.46187028564E+01 -0.33468612008E+01  0.44570120450E+02  0.45178750900E+02  0.47000000000E+01 0. -1.
<mgrwt>
<rscale>  2 0.73907981E+01</rscale>
<asrwt>0</asrwt>
<pdfrwt beam="1">  1       21 0.19404007E-01 0.73907981E+01</pdfrwt>
<pdfrwt beam="2">  1       21 0.72674725E-04 0.73907981E+01</pdfrwt>
<totfact> 0.16360258E+09</totfact>
</mgrwt>
</event>
<event>
 4    1  0.3900819E+006  0.5893343E+01  0.7546771E-02  0.2429515E+00
         21   -1    0    0  501  502  0.00000000000E+00  0.00000000000E+00  0.14988436933E-01  0.14988436933E-01  0.00000000000E+00 0. -1.
         21   -1    0    0  502  503 -0.00000000000E+00 -0.00000000000E+00 -0.23795505275E+04  0.23795505275E+04  0.00000000000E+00 0.  1.
          5    1    1    2  501    0  0.17943776210E+01 -0.30694782261E+01 -0.13823316535E+04  0.13823442161E+04  0.47000000000E+01 0. -1.
         -5    1    1    2    0  503 -0.17943776210E+01  0.30694782261E+01 -0.99720388550E+03  0.99722129978E+03  0.47000000000E+01 0.  1.
<mgrwt>
<rscale>  2 0.58933427E+01</rscale>
<asrwt>0</asrwt>
<pdfrwt beam="1">  1       21 0.23053705E-05 0.58933427E+01</pdfrwt>
<pdfrwt beam="2">  1       21 0.36617090E+00 0.58933427E+01</pdfrwt>
<totfact> 0.36827248E+08</totfact>
</mgrwt>
</event>
<event>
 4    1  0.3900819E+006  0.9679280E+01  0.7546771E-02  0.2093713E+00
         21   -1    0    0  501  502  0.00000000000E+00  0.00000000000E+00  0.81656030970E+02  0.81656030970E+02  0.00000000000E+00 0.  1.
         21   -1    0    0  502  503 -0.00000000000E+00 -0.00000000000E+00 -0.12647153112E+01  0.12647153112E+01  0.00000000000E+00 0. -1.
          5    1    1    2  501    0 -0.87325315509E+00 -0.84164055569E+01  0.52825487287E+02  0.53704939817E+02  0.47000000000E+01 0.  1.
         -5    1    1    2    0  503  0.87325315509E+00  0.84164055569E+01  0.27565828372E+02  0.29215806465E+02  0.47000000000E+01 0. -1.
<mgrwt>
<rscale>  2 0.96792796E+01</rscale>
<asrwt>0</asrwt>
<pdfrwt beam="1">  1       21 0.12562462E-01 0.96792796E+01</pdfrwt>
<pdfrwt beam="2">  1       21 0.19457165E-03 0.96792796E+01</pdfrwt>
<totfact> 0.10161957E+09</totfact>
</mgrwt>
</event>
<event>
 4    1  0.3900819E+006  0.4950728E+01  0.7546771E-02  0.2575969E+00
         21   -1    0    0  501  502  0.00000000000E+00  0.00000000000E+00  0.19105146477E+00  0.19105146477E+00  0.00000000000E+00 0. -1.
         21   -1    0    0  502  503 -0.00000000000E+00 -0.00000000000E+00 -0.57211332871E+03  0.57211332871E+03  0.00000000000E+00 0. -1.
          5    1    1    2  501    0  0.52360206299E+00 -0.14647683190E+01 -0.33925567390E+02  0.34284892126E+02  0.47000000000E+01 0. -1.
         -5    1    1    2    0  503 -0.52360206299E+00  0.14647683190E+01 -0.53799670986E+03  0.53801948805E+03  0.47000000000E+01 0. -1.
<mgrwt>
<rscale>  2 0.49507278E+01</rscale>
<asrwt>0</asrwt>
<pdfrwt beam="1">  1       21 0.29393070E-04 0.49507278E+01</pdfrwt>
<pdfrwt beam="2">  1       21 0.88015827E-01 0.49507278E+01</pdfrwt>
<totfact> 0.28403941E+08</totfact>
</mgrwt>
</event>
<event>
 4    1  0.3900819E+006  0.1021542E+02  0.7546771E-02  0.2062931E+00
         21   -1    0    0  503  502  0.00000000000E+00  0.00000000000E+00  0.35137352141E+02  0.35137352141E+02  0.00000000000E+00 0.  1.
         21   -1    0    0  501  503 -0.00000000000E+00 -0.00000000000E+00 -0.31073506797E+01  0.31073506797E+01  0.00000000000E+00 0. -1.
          5    1    1    2  501    0  0.70313542353E+01 -0.57293044610E+01  0.11993396034E+02  0.15754250868E+02  0.47000000000E+01 0. -1.
         -5    1    1    2    0  502 -0.70313542353E+01  0.57293044610E+01  0.20036605427E+02  0.22490451953E+02  0.47000000000E+01 0.  1.
<mgrwt>
<rscale>  2 0.10215423E+02</rscale>
<asrwt>0</asrwt>
<pdfrwt beam="1">  1       21 0.54057462E-02 0.10215423E+02</pdfrwt>
<pdfrwt beam="2">  1       21 0.47805398E-03 0.10215423E+02</pdfrwt>
<totfact> 0.11086708E+09</totfact>
</mgrwt>
</event>
<event>
 4    1  0.3900819E+006  0.6291821E+01  0.7546771E-02  0.2378923E+00
         21   -1    0    0  501  502  0.00000000000E+00  0.00000000000E+00  0.10962504865E+01  0.10962504865E+01  0.00000000000E+00 0.  1.
         21   -1    0    0  502  503 -0.00000000000E+00 -0.00000000000E+00 -0.36180631922E+02  0.36180631922E+02  0.00000000000E+00 0.  1.
          5    1    1    2  501    0 -0.31855023912E+01 -0.27110122461E+01 -0.16726195547E+02  0.17870440127E+02  0.47000000000E+01 0.  1.
         -5    1    1    2    0  503  0.31855023912E+01  0.27110122461E+01 -0.18358185889E+02  0.19406442281E+02  0.47000000000E+01 0.  1.
<mgrwt>
<rscale>  2 0.62918211E+01</rscale>
<asrwt>0</asrwt>
<pdfrwt beam="1">  1       21 0.16865394E-03 0.62918211E+01</pdfrwt>
<pdfrwt beam="2">  1       21 0.55662506E-02 0.62918211E+01</pdfrwt>
<totfact> 0.32247474E+09</totfact>
</mgrwt>
</event>
<event>
 4    1  0.3900819E+006  0.7165248E+01  0.7546771E-02  0.2284650E+00
         21   -1    0    0  503  502  0.00000000000E+00  0.00000000000E+00  0.10778208759E+04  0.10778208759E+04  0.00000000000E+00 0.  1.
         21   -1    0    0  501  503 -0.00000000000E+00 -0.00000000000E+00 -0.65878219479E-01  0.65878219479E-01  0.00000000000E+00 0. -1.
          5    1    1    2  501    0 -0.70315324848E+00  0.53624948761E+01  0.82249723277E+03  0.82252844248E+03  0.47000000000E+01 0.  1.
         -5    1    1    2    0  502  0.70315324848E+00 -0.53624948761E+01  0.25525776495E+03  0.25535831168E+03  0.47000000000E+01 0. -1.
<mgrwt>
<rscale>  2 0.71652478E+01</rscale>
<asrwt>0</asrwt>
<pdfrwt beam="1">  1       21 0.16580447E+00 0.71652478E+01</pdfrwt>
<pdfrwt beam="2">  1       21 0.10135974E-04 0.71652478E+01</pdfrwt>
<totfact> 0.39703142E+08</totfact>
</mgrwt>
</event>
<event>
 4    1  0.3900819E+006  0.4860403E+01  0.7546771E-02  0.2592530E+00
         21   -1    0    0  503  502  0.00000000000E+00  0.00000000000E+00  0.12848920947E+03  0.12848920947E+03  0.00000000000E+00 0.  1.
         21   -1    0    0  501  503 -0.00000000000E+00 -0.00000000000E+00 -0.21298809121E+00  0.21298809121E+00  0.00000000000E+00 0.  1.
          5    1    1    2  501    0  0.12343382683E+01  0.99629037201E-01  0.40338828550E+02  0.40630587071E+02  0.47000000000E+01 0.  1.
         -5    1    1    2    0  502 -0.12343382683E+01 -0.99629037201E-01  0.87937392827E+02  0.88071610489E+02  0.47000000000E+01 0.  1.
<mgrwt>
<rscale>  2 0.48604030E+01</rscale>
<asrwt>0</asrwt>
<pdfrwt beam="1">  1       21 0.19767509E-01 0.48604030E+01</pdfrwt>
<pdfrwt beam="2">  1       21 0.32767501E-04 0.48604030E+01</pdfrwt>
<totfact> 0.32569687E+09</totfact>
</mgrwt>
</event>
<event>
 4    1  0.3900819E+006  0.4885035E+01  0.7546771E-02  0.2587962E+00
         21   -1    0    0  503  502  0.00000000000E+00  0.00000000000E+00  0.82245707304E+01  0.82245707304E+01  0.00000000000E+00 0.  1.
         21   -1    0    0  501  503 -0.00000000000E+00 -0.00000000000E+00 -0.29193528932E+02  0.29193528932E+02  0.00000000000E+00 0.  1.
          5    1    1    2  501    0 -0.11840353529E+01 -0.60961213042E+00 -0.28239472285E+02  0.28658879281E+02  0.47000000000E+01 0.  1.
         -5    1    1    2    0  502  0.11840353529E+01  0.60961213042E+00  0.72705140833E+01  0.87592203821E+01  0.47000000000E+01 0.  1.
<mgrwt>
<rscale>  2 0.48850350E+01</rscale>
<asrwt>0</asrwt>
<pdfrwt beam="1">  1       21 0.12653186E-02 0.48850350E+01</pdfrwt>
<pdfrwt beam="2">  1       21 0.44913122E-02 0.48850350E+01</pdfrwt>
<totfact> 0.22108517E+08</totfact>
</mgrwt>
</event>
<event>
 4    1  0.3900819E+006  0.6407279E+01  0.7546771E-02  0.2365249E+00
         21   -1    0    0  503  502  0.00000000000E+00  0.00000000000E+00  0.13683452308E+03  0.13683452308E+03  0.00000000000E+00 0. -1.
         21   -1    0    0  501  503 -0.00000000000E+00 -0.00000000000E+00 -0.30472010556E+00  0.30472010556E+00  0.00000000000E+00 0. -1.
          5    1    1    2  501    0 -0.39865930597E+01  0.17522255245E+01  0.76780061818E+02  0.77046940960E+02  0.47000000000E+01 0. -1.
         -5    1    1    2    0  502  0.39865930597E+01 -0.17522255245E+01  0.59749741160E+02  0.60092302229E+02  0.47000000000E+01 0. -1.
<mgrwt>
<rscale>  2 0.64072786E+01</rscale>
<asrwt>0</asrwt>
<pdfrwt beam="1">  1       21 0.21051416E-01 0.64072786E+01</pdfrwt>
<pdfrwt beam="2">  1       21 0.46880125E-04 0.64072786E+01</pdfrwt>
<totfact> 0.23270934E+09</totfact>
</mgrwt>
</event>
<event>
 4    1  0.3900819E+006  0.7333830E+01  0.7546771E-02  0.2268599E+00
         21   -1    0    0  503  502  0.00000000000E+00  0.00000000000E+00  0.10575570099E+00  0.10575570099E+00  0.00000000000E+00 0.  1.
         21   -1    0    0  501  503 -0.00000000000E+00 -0.00000000000E+00 -0.56222500846E+03  0.56222500846E+03  0.00000000000E+00 0.  1.
          5    1    1    2  501    0  0.29528334518E+00 -0.56220882496E+01 -0.36791121685E+03  0.36798430477E+03  0.47000000000E+01 0.  1.
         -5    1    1    2    0  502 -0.29528334518E+00  0.56220882496E+01 -0.19420803591E+03  0.19434645939E+03  0.47000000000E+01 0.  1.
<mgrwt>
<rscale>  2 0.73338304E+01</rscale>
<asrwt>0</asrwt>
<pdfrwt beam="1">  1       21 0.16269798E-04 0.73338304E+01</pdfrwt>
<pdfrwt beam="2">  1       21 0.86497800E-01 0.73338304E+01</pdfrwt>
<totfact> 0.84191585E+08</totfact>
</mgrwt>
</event>
<event>
 4    1  0.3900819E+006  0.4963117E+01  0.7546771E-02  0.2573739E+00
         21   -1    0    0  501  502  0.00000000000E+00  0.00000000000E+00  0.48537201766E+02  0.48537201766E+02  0.00000000000E+00 0.  1.
         21   -1    0    0  502  503 -0.00000000000E+00 -0.00000000000E+00 -0.61699368125E+00  0.61699368125E+00  0.00000000000E+00 0.  1.
          5    1    1    2  501    0 -0.10177955629E+01  0.12274450307E+01  0.34313644497E+02  0.34670718594E+02  0.47000000000E+01 0. -1.
         -5    1    1    2    0  503  0.10177955629E+01 -0.12274450307E+01  0.13606563588E+02  0.14483476854E+02  0.47000000000E+01 0. -1.
<mgrwt>
<rscale>  2 0.49631169E+01</rscale>
<asrwt>0</asrwt>
<pdfrwt beam="1">  1       21 0.74672588E-02 0.49631169E+01</pdfrwt>
<pdfrwt beam="2">  1       21 0.94922143E-04 0.49631169E+01</pdfrwt>
<totfact> 0.36128287E+09</totfact>
</mgrwt>
</event>
<event>
 4    1  0.3900819E+006  0.5567025E+01  0.7546771E-02  0.2475430E+00
         21   -1    0    0  501  502  0.00000000000E+00  0.00000000000E+00  0.89850173658E+00  0.89850173658E+00  0.00000000000E+00 0.  1.
         21   -1    0    0  502  503 -0.00000000000E+00 -0.00000000000E+00 -0.35598187647E+02  0.35598187647E+02  0.00000000000E+00 0.  1.
          5    1    1    2  501    0  0.53956220407E+00 -0.29343895205E+01 -0.14134091607E+02  0.15190928701E+02  0.47000000000E+01 0.  1.
         -5    1    1    2    0  503 -0.53956220407E+00  0.29343895205E+01 -0.20565594303E+02  0.21305760683E+02  0.47000000000E+01 0.  1.
<mgrwt>
<rscale>  2 0.55670252E+01</rscale>
<asrwt>0</asrwt>
<pdfrwt beam="1">  1       21 0.13823104E-03 0.55670252E+01</pdfrwt>
<pdfrwt beam="2">  1       21 0.54766442E-02 0.55670252E+01</pdfrwt>
<totfact> 0.38775450E+09</totfact>
</mgrwt>
</event>
<event>
 4    1  0.3900819E+006  0.5747458E+01  0.7546771E-02  0.2449499E+00
         21   -1    0    0  503  502  0.00000000000E+00  0.00000000000E+00  0.15635793319E+00  0.15635793319E+00  0.00000000000E+00 0. -1.
         21   -1    0    0  501  503 -0.00000000000E+00 -0.00000000000E+00 -0.21463309562E+03  0.21463309562E+03  0.00000000000E+00 0. -1.
          5    1    1    2  501    0  0.30197193964E+01  0.13507677701E+01 -0.12068751808E+03  0.12082429515E+03  0.47000000000E+01 0. -1.
         -5    1    1    2    0  502 -0.30197193964E+01 -0.13507677701E+01 -0.93789219609E+02  0.93965158403E+02  0.47000000000E+01 0. -1.
<mgrwt>
<rscale>  2 0.57474585E+01</rscale>
<asrwt>0</asrwt>
<pdfrwt beam="1">  1       21 0.24055090E-04 0.57474585E+01</pdfrwt>
<pdfrwt beam="2">  1       21 0.33020444E-01 0.57474585E+01</pdfrwt>
<totfact> 0.24625808E+09</totfact>
</mgrwt>
</event>
<event>
 4    1  0.3900819E+006  0.7387811E+01  0.7546771E-02  0.2263586E+00
         21   -1    0    0  501  502  0.00000000000E+00  0.00000000000E+00  0.48421120122E+01  0.48421120122E+01  0.00000000000E+00 0. -1.
         21   -1    0    0  502  503 -0.00000000000E+00 -0.00000000000E+00 -0.25747177618E+02  0.25747177618E+02  0.00000000000E+00 0. -1.
          5    1    1    2  501    0 -0.56953170903E+01  0.23047156439E+00  0.10154803521E+01  0.74572752562E+01  0.47000000000E+01 0. -1.
         -5    1    1    2    0  503  0.56953170903E+01 -0.23047156439E+00 -0.21920545958E+02  0.23132014374E+02  0.47000000000E+01 0. -1.
<mgrwt>
<rscale>  2 0.73878112E+01</rscale>
<asrwt>0</asrwt>
<pdfrwt beam="1">  1       21 0.74494032E-03 0.73878112E+01</pdfrwt>
<pdfrwt beam="2">  1       21 0.39611042E-02 0.73878112E+01</pdfrwt>
<totfact> 0.76976560E+08</totfact>
</mgrwt>
</event>
<event>
 4    1  0.3900819E+006  0.5090053E+01  0.7546771E-02  0.2551422E+00
         21   -1    0    0  501  502  0.00000000000E+00  0.00000000000E+00  0.17186511311E+03  0.17186511311E+03  0.00000000000E+00 0. -1.
         21   -1    0    0  502  503 -0.00000000000E+00 -0.00000000000E+00 -0.15427687833E+00  0.15427687833E+00  0.00000000000E+00 0. -1.
          5    1    1    2  501    0 -0.19341591500E+01 -0.27869343666E+00  0.98860134252E+02  0.98991084377E+02  0.47000000000E+01 0. -1.
         -5    1    1    2    0  503  0.19341591500E+01  0.27869343666E+00  0.72850701978E+02  0.73028305611E+02  0.47000000000E+01 0. -1.
<mgrwt>
<rscale>  2 0.50900532E+01</rscale>
<asrwt>0</asrwt>
<pdfrwt beam="1">  1       21 0.26440633E-01 0.50900532E+01</pdfrwt>
<pdfrwt beam="2">  1       21 0.23735042E-04 0.50900532E+01</pdfrwt>
<totfact> 0.32655452E+09</totfact>
</mgrwt>
</event>
<event>
 4    1  0.3900819E+006  0.4802730E+01  0.7546771E-02  0.2603386E+00
         21   -1    0    0  501  502  0.00000000000E+00  0.00000000000E+00  0.34867251880E+00  0.34867251880E+00  0.00000000000E+00 0.  1.
         21   -1    0    0  502  503 -0.00000000000E+00 -0.00000000000E+00 -0.94885210084E+02  0.94885210084E+02  0.00000000000E+00 0.  1.
          5    1    1    2  501    0 -0.91017401926E+00  0.38445028200E+00 -0.21066161333E+02  0.21606697390E+02  0.47000000000E+01 0.  1.
         -5    1    1    2    0  503  0.91017401926E+00 -0.38445028200E+00 -0.73470376232E+02  0.73627185214E+02  0.47000000000E+01 0.  1.
<mgrwt>
<rscale>  2 0.48027303E+01</rscale>
<asrwt>0</asrwt>
<pdfrwt beam="1">  1       21 0.53641863E-04 0.48027303E+01</pdfrwt>
<pdfrwt beam="2">  1       21 0.14597742E-01 0.48027303E+01</pdfrwt>
<totfact> 0.26954820E+09</totfact>
</mgrwt>
</event>
<event>
 4    1  0.3900819E+006  0.5140372E+01  0.7546771E-02  0.2542839E+00
         21   -1    0    0  501  502  0.00000000000E+00  0.00000000000E+00  0.20658622328E+02  0.20658622328E+02  0.00000000000E+00 0. -1.
         21   -1    0    0  502  503 -0.00000000000E+00 -0.00000000000E+00 -0.21334274885E+01  0.21334274885E+01  0.00000000000E+00 0.  1.
          5    1    1    2  501    0  0.20650552979E+01  0.26262517531E+00  0.16474322572E+02  0.17257657129E+02  0.47000000000E+01 0. -1.
         -5    1    1    2    0  503 -0.20650552979E+01 -0.26262517531E+00  0.20508722677E+01  0.55343926880E+01  0.47000000000E+01 0.  1.
<mgrwt>
<rscale>  2 0.51403721E+01</rscale>
<asrwt>0</asrwt>
<pdfrwt beam="1">  1       21 0.31782495E-02 0.51403721E+01</pdfrwt>
<pdfrwt beam="2">  1       21 0.32821963E-03 0.51403721E+01</pdfrwt>
<totfact> 0.24647117E+09</totfact>
</mgrwt>
</event>
<event>
 4    1  0.3900819E+006  0.5345965E+01  0.7546771E-02  0.2509212E+00
         21   -1    0    0  501  502  0.00000000000E+00  0.00000000000E+00  0.43322640418E+02  0.43322640418E+02  0.00000000000E+00 0.  1.
         21   -1    0    0  502  503 -0.00000000000E+00 -0.00000000000E+00 -0.20638204724E+01  0.20638204724E+01  0.00000000000E+00 0.  1.
          5    1    1    2  501    0 -0.20685493107E+00 -0.25390057782E+01  0.39347637255E+02  0.39709141226E+02  0.47000000000E+01 0.  1.
         -5    1    1    2    0  503  0.20685493107E+00  0.25390057782E+01  0.19111826908E+01  0.56773196653E+01  0.47000000000E+01 0.  1.
<mgrwt>
<rscale>  2 0.53459648E+01</rscale>
<asrwt>0</asrwt>
<pdfrwt beam="1">  1       21 0.66650209E-02 0.53459648E+01</pdfrwt>
<pdfrwt beam="2">  1       21 0.31751088E-03 0.53459648E+01</pdfrwt>
<totfact> 0.90552308E+08</totfact>
</mgrwt>
</event>
<event>
 4    1  0.3900819E+006  0.5269735E+01  0.7546771E-02  0.2521418E+00
         21   -1    0    0  503  502  0.00000000000E+00  0.00000000000E+00  0.19727894293E+04  0.19727894293E+04  0.00000000000E+00 0.  1.
         21   -1    0    0  501  503 -0.00000000000E+00 -0.00000000000E+00 -0.23144110513E-01  0.23144110513E-01  0.00000000000E+00 0.  1.
          5    1    1    2  501    0  0.45739008538E+00  0.23389947592E+01  0.16038027444E+04  0.16038114020E+04  0.47000000000E+01 0.  1.
         -5    1    1    2    0  502 -0.45739008538E+00 -0.23389947592E+01  0.36896354070E+03  0.36900117136E+03  0.47000000000E+01 0.  1.
<mgrwt>
<rscale>  2 0.52697345E+01</rscale>
<asrwt>0</asrwt>
<pdfrwt beam="1">  1       21 0.30337144E+00 0.52697345E+01</pdfrwt>
<pdfrwt beam="2">  1       21 0.35622125E-05 0.52697345E+01</pdfrwt>
<totfact> 0.34094480E+08</totfact>
</mgrwt>
</event>
<event>
 4    1  0.3900819E+006  0.1001092E+02  0.7546771E-02  0.2074367E+00
         21   -1    0    0  503  502  0.00000000000E+00  0.00000000000E+00  0.28016389160E+02  0.28016389160E+02  0.00000000000E+00 0.  1.
         21   -1    0    0  501  503 -0.00000000000E+00 -0.00000000000E+00 -0.42176574657E+01  0.42176574657E+01  0.00000000000E+00 0. -1.
          5    1    1    2  501    0  0.88082099059E+01  0.73751746263E+00  0.56185609127E+01  0.11479839741E+02  0.47000000000E+01 0. -1.
         -5    1    1    2    0  502 -0.88082099059E+01 -0.73751746263E+00  0.18180170782E+02  0.20754206885E+02  0.47000000000E+01 0.  1.
<mgrwt>
<rscale>  2 0.10010919E+02</rscale>
<asrwt>0</asrwt>
<pdfrwt beam="1">  1       21 0.43102136E-02 0.10010919E+02</pdfrwt>
<pdfrwt beam="2">  1       21 0.64887040E-03 0.10010919E+02</pdfrwt>
<totfact> 0.10007105E+09</totfact>
</mgrwt>
</event>
<event>
 4    1  0.3900819E+006  0.5172072E+01  0.7546771E-02  0.2537505E+00
         21   -1    0    0  503  502  0.00000000000E+00  0.00000000000E+00  0.94940451339E-01  0.94940451339E-01  0.00000000000E+00 0.  1.
         21   -1    0    0  501  503 -0.00000000000E+00 -0.00000000000E+00 -0.34829733557E+03  0.34829733557E+03  0.00000000000E+00 0.  1.
          5    1    1    2  501    0 -0.68131889860E+00 -0.20484477431E+01 -0.97963599270E+02  0.98100036266E+02  0.47000000000E+01 0.  1.
         -5    1    1    2    0  502  0.68131889860E+00  0.20484477431E+01 -0.25023879585E+03  0.25029223976E+03  0.47000000000E+01 0.  1.
<mgrwt>
<rscale>  2 0.51720725E+01</rscale>
<asrwt>0</asrwt>
<pdfrwt beam="1">  1       21 0.14606197E-04 0.51720725E+01</pdfrwt>
<pdfrwt beam="2">  1       21 0.53584301E-01 0.51720725E+01</pdfrwt>
<totfact> 0.18797744E+09</totfact>
</mgrwt>
</event>
<event>
 4    1  0.3900819E+006  0.1905572E+02  0.7546771E-02  0.1764786E+00
         21   -1    0    0  503  502  0.00000000000E+00  0.00000000000E+00  0.74987140493E+03  0.74987140493E+03  0.00000000000E+00 0. -1.
         21   -1    0    0  501  503 -0.00000000000E+00 -0.00000000000E+00 -0.48445643505E+00  0.48445643505E+00  0.00000000000E+00 0.  1.
          5    1    1    2  501    0  0.74189527691E+01  0.16911231327E+02  0.38255290698E+03  0.38302721476E+03  0.47000000000E+01 0.  1.
         -5    1    1    2    0  502 -0.74189527691E+01 -0.16911231327E+02  0.36683404151E+03  0.36732864660E+03  0.47000000000E+01 0. -1.
<mgrwt>
<rscale>  2 0.19055724E+02</rscale>
<asrwt>0</asrwt>
<pdfrwt beam="1">  1       21 0.11536390E+00 0.19055724E+02</pdfrwt>
<pdfrwt beam="2">  1       21 0.74532360E-04 0.19055724E+02</pdfrwt>
<totfact> 0.83947874E+07</totfact>
</mgrwt>
</event>
<event>
 4    1  0.3900819E+006  0.5068360E+01  0.7546771E-02  0.2555168E+00
         21   -1    0    0  503  502  0.00000000000E+00  0.00000000000E+00  0.82213951307E+03  0.82213951307E+03  0.00000000000E+00 0.  1.
         21   -1    0    0  501  503 -0.00000000000E+00 -0.00000000000E+00 -0.32512590189E-01  0.32512590189E-01  0.00000000000E+00 0.  1.
          5    1    1    2  501    0 -0.11839792070E+01  0.14820464826E+01  0.32990358219E+03  0.32994251289E+03  0.47000000000E+01 0. -1.
         -5    1    1    2    0  502  0.11839792070E+01 -0.14820464826E+01  0.49220341829E+03  0.49222951277E+03  0.47000000000E+01 0. -1.
<mgrwt>
<rscale>  2 0.50683596E+01</rscale>
<asrwt>0</asrwt>
<pdfrwt beam="1">  1       21 0.12646635E+00 0.50683596E+01</pdfrwt>
<pdfrwt beam="2">  1       21 0.50025954E-05 0.50683596E+01</pdfrwt>
<totfact> 0.14651716E+09</totfact>
</mgrwt>
</event>
<event>
 4    1  0.3900819E+006  0.7470812E+01  0.7546771E-02  0.2255993E+00
         21   -1    0    0  501  502  0.00000000000E+00  0.00000000000E+00  0.73277627978E+00  0.73277627978E+00  0.00000000000E+00 0. -1.
         21   -1    0    0  502  503 -0.00000000000E+00 -0.00000000000E+00 -0.78706087267E+02  0.78706087267E+02  0.00000000000E+00 0.  1.
          5    1    1    2  501    0 -0.57718888708E+01  0.63900236053E+00 -0.46121393457E+02  0.46722542307E+02  0.47000000000E+01 0.  1.
         -5    1    1    2    0  503  0.57718888708E+01 -0.63900236053E+00 -0.31851917529E+02  0.32716321240E+02  0.47000000000E+01 0. -1.
<mgrwt>
<rscale>  2 0.74708115E+01</rscale>
<asrwt>0</asrwt>
<pdfrwt beam="1">  1       21 0.11273485E-03 0.74708115E+01</pdfrwt>
<pdfrwt beam="2">  1       21 0.12108624E-01 0.74708115E+01</pdfrwt>
<totfact> 0.19362209E+09</totfact>
</mgrwt>
</event>
<event>
 4    1  0.3900819E+006  0.9347786E+01  0.7546771E-02  0.2114124E+00
         21   -1    0    0  503  502  0.00000000000E+00  0.00000000000E+00  0.13977047517E+03  0.13977047517E+03  0.00000000000E+00 0. -1.
         21   -1    0    0  501  503 -0.00000000000E+00 -0.00000000000E+00 -0.78361782819E+00  0.78361782819E+00  0.00000000000E+00 0.  1.
          5    1    1    2  501    0  0.59174205904E+01 -0.55022943233E+01  0.37892733569E+02  0.39028712080E+02  0.47000000000E+01 0.  1.
         -5    1    1    2    0  502 -0.59174205904E+01  0.55022943233E+01  0.10109412377E+03  0.10152538091E+03  0.47000000000E+01 0. -1.
<mgrwt>
<rscale>  2 0.93477863E+01</rscale>
<asrwt>0</asrwt>
<pdfrwt beam="1">  1       21 0.21503130E-01 0.93477863E+01</pdfrwt>
<pdfrwt beam="2">  1       21 0.12055670E-03 0.93477863E+01</pdfrwt>
<totfact> 0.80100659E+08</totfact>
</mgrwt>
</event>
<event>
 4    1  0.3900819E+006  0.5654441E+01  0.7546771E-02  0.2462692E+00
         21   -1    0    0  501  502  0.00000000000E+00  0.00000000000E+00  0.14047994872E+02  0.14047994872E+02  0.00000000000E+00 0.  1.
         21   -1    0    0  502  503 -0.00000000000E+00 -0.00000000000E+00 -0.32912770361E+01  0.32912770361E+01  0.00000000000E+00 0.  1.
          5    1    1    2  501    0  0.26552028608E+01 -0.16830339926E+01  0.10193610722E+02  0.11656860864E+02  0.47000000000E+01 0.  1.
         -5    1    1    2    0  503 -0.26552028608E+01  0.16830339926E+01  0.56310711400E+00  0.56824110441E+01  0.47000000000E+01 0.  1.
<mgrwt>
<rscale>  2 0.56544412E+01</rscale>
<asrwt>0</asrwt>
<pdfrwt beam="1">  1       21 0.21612299E-02 0.56544412E+01</pdfrwt>
<pdfrwt beam="2">  1       21 0.50635032E-03 0.56544412E+01</pdfrwt>
<totfact> 0.25891238E+09</totfact>
</mgrwt>
</event>
<event>
 4    1  0.3900819E+006  0.9207860E+01  0.7546771E-02  0.2123086E+00
         21   -1    0    0  503  502  0.00000000000E+00  0.00000000000E+00  0.38424143427E+00  0.38424143427E+00  0.00000000000E+00 0. -1.
         21   -1    0    0  501  503 -0.00000000000E+00 -0.00000000000E+00 -0.32355031633E+03  0.32355031633E+03  0.00000000000E+00 0.  1.
          5    1    1    2  501    0  0.78431577239E+01  0.10860809408E+01 -0.25292171459E+03  0.25308926964E+03  0.47000000000E+01 0.  1.
         -5    1    1    2    0  502 -0.78431577239E+01 -0.10860809408E+01 -0.70244360305E+02  0.70845288125E+02  0.47000000000E+01 0. -1.
<mgrwt>
<rscale>  2 0.92078605E+01</rscale>
<asrwt>0</asrwt>
<pdfrwt beam="1">  1       21 0.59113854E-04 0.92078605E+01</pdfrwt>
<pdfrwt beam="2">  1       21 0.49777151E-01 0.92078605E+01</pdfrwt>
<totfact> 0.48318670E+08</totfact>
</mgrwt>
</event>
<event>
 4    1  0.3900819E+006  0.7463909E+01  0.7546771E-02  0.2256619E+00
         21   -1    0    0  501  502  0.00000000000E+00  0.00000000000E+00  0.11579154772E+00  0.11579154772E+00  0.00000000000E+00 0. -1.
         21   -1    0    0  502  503 -0.00000000000E+00 -0.00000000000E+00 -0.50378782288E+03  0.50378782288E+03  0.00000000000E+00 0. -1.
          5    1    1    2  501    0  0.18480402680E+01 -0.54958783093E+01 -0.19839513799E+03  0.19853548980E+03  0.47000000000E+01 0. -1.
         -5    1    1    2    0  503 -0.18480402680E+01  0.54958783093E+01 -0.30527689334E+03  0.30536812463E+03  0.47000000000E+01 0. -1.
<mgrwt>
<rscale>  2 0.74639086E+01</rscale>
<asrwt>0</asrwt>
<pdfrwt beam="1">  1       21 0.17813904E-04 0.74639086E+01</pdfrwt>
<pdfrwt beam="2">  1       21 0.77506601E-01 0.74639086E+01</pdfrwt>
<totfact> 0.93618904E+08</totfact>
</mgrwt>
</event>
<event>
 4    1  0.3900819E+006  0.4831593E+01  0.7546771E-02  0.2597925E+00
         21   -1    0    0  503  502  0.00000000000E+00  0.00000000000E+00  0.33015000159E-01  0.33015000159E-01  0.00000000000E+00 0. -1.
         21   -1    0    0  501  503 -0.00000000000E+00 -0.00000000000E+00 -0.12667198065E+04  0.12667198065E+04  0.00000000000E+00 0.  1.
          5    1    1    2  501    0 -0.59042838997E+00 -0.95167259196E+00 -0.10543369356E+04  0.10543480062E+04  0.47000000000E+01 0.  1.
         -5    1    1    2    0  502  0.59042838997E+00  0.95167259196E+00 -0.21234985586E+03  0.21240481532E+03  0.47000000000E+01 0. -1.
<mgrwt>
<rscale>  2 0.48315925E+01</rscale>
<asrwt>0</asrwt>
<pdfrwt beam="1">  1       21 0.50792315E-05 0.48315925E+01</pdfrwt>
<pdfrwt beam="2">  1       21 0.19487994E+00 0.48315925E+01</pdfrwt>
<totfact> 0.55404953E+08</totfact>
</mgrwt>
</event>
<event>
 4    1  0.3900819E+006  0.5380296E+01  0.7546771E-02  0.2503811E+00
         21   -1    0    0  503  502  0.00000000000E+00  0.00000000000E+00  0.43884914089E+00  0.43884914089E+00  0.00000000000E+00 0. -1.
         21   -1    0    0  501  503 -0.00000000000E+00 -0.00000000000E+00 -0.11360436303E+03  0.11360436303E+03  0.00000000000E+00 0. -1.
          5    1    1    2  501    0 -0.53050774732E+00  0.25643998836E+01 -0.93509101767E+02  0.93663758725E+02  0.47000000000E+01 0. -1.
         -5    1    1    2    0  502  0.53050774732E+00 -0.25643998836E+01 -0.19656412120E+02  0.20379453443E+02  0.47000000000E+01 0. -1.
<mgrwt>
<rscale>  2 0.53802960E+01</rscale>
<asrwt>0</asrwt>
<pdfrwt beam="1">  1       21 0.67515323E-04 0.53802960E+01</pdfrwt>
<pdfrwt beam="2">  1       21 0.17477576E-01 0.53802960E+01</pdfrwt>
<totfact> 0.16689576E+09</totfact>
</mgrwt>
</event>
<event>
 4    1  0.3900819E+006  0.6006865E+01  0.7546771E-02  0.2414531E+00
         21   -1    0    0  501  502  0.00000000000E+00  0.00000000000E+00  0.15872002500E+03  0.15872002500E+03  0.00000000000E+00 0. -1.
         21   -1    0    0  502  503 -0.00000000000E+00 -0.00000000000E+00 -0.63061955187E+00  0.63061955187E+00  0.00000000000E+00 0. -1.
          5    1    1    2  501    0 -0.36811761741E+01  0.66435407427E+00  0.14276041748E+03  0.14288673564E+03  0.47000000000E+01 0. -1.
         -5    1    1    2    0  503  0.36811761741E+01 -0.66435407427E+00  0.15328987973E+02  0.16463908911E+02  0.47000000000E+01 0. -1.
<mgrwt>
<rscale>  2 0.60068648E+01</rscale>
<asrwt>0</asrwt>
<pdfrwt beam="1">  1       21 0.24418434E-01 0.60068648E+01</pdfrwt>
<pdfrwt beam="2">  1       21 0.97018519E-04 0.60068648E+01</pdfrwt>
<totfact> 0.65477976E+08</totfact>
</mgrwt>
</event>
<event>
 4    1  0.3900819E+006  0.5819748E+01  0.7546771E-02  0.2439491E+00
         21   -1    0    0  501  502  0.00000000000E+00  0.00000000000E+00  0.68623924271E+02  0.68623924271E+02  0.00000000000E+00 0. -1.
         21   -1    0    0  502  503 -0.00000000000E+00 -0.00000000000E+00 -0.92924217050E+00  0.92924217050E+00  0.00000000000E+00 0.  1.
          5    1    1    2  501    0 -0.33425635831E+01  0.77893067276E+00  0.57660193147E+02  0.57953147784E+02  0.47000000000E+01 0. -1.
         -5    1    1    2    0  503  0.33425635831E+01 -0.77893067276E+00  0.10034488953E+02  0.11600018657E+02  0.47000000000E+01 0.  1.
<mgrwt>
<rscale>  2 0.58197478E+01</rscale>
<asrwt>0</asrwt>
<pdfrwt beam="1">  1       21 0.10557523E-01 0.58197478E+01</pdfrwt>
<pdfrwt beam="2">  1       21 0.14296039E-03 0.58197478E+01</pdfrwt>
<totfact> 0.14333671E+09</totfact>
</mgrwt>
</event>
<event>
 4    1  0.3900819E+006  0.6063612E+01  0.7546771E-02  0.2407217E+00
         21   -1    0    0  501  502  0.00000000000E+00  0.00000000000E+00  0.29571578988E-01  0.29571578988E-01  0.00000000000E+00 0. -1.
         21   -1    0    0  502  503 -0.00000000000E+00 -0.00000000000E+00 -0.13277179160E+04  0.13277179160E+04  0.00000000000E+00 0. -1.
          5    1    1    2  501    0 -0.60318988438E+00  0.37833255027E+01 -0.49648137911E+03  0.49651840570E+03  0.47000000000E+01 0. -1.
         -5    1    1    2    0  503  0.60318988438E+00 -0.37833255027E+01 -0.83120696526E+03  0.83122908183E+03  0.47000000000E+01 0. -1.
<mgrwt>
<rscale>  2 0.60636120E+01</rscale>
<asrwt>0</asrwt>
<pdfrwt beam="1">  1       21 0.45494896E-05 0.60636120E+01</pdfrwt>
<pdfrwt beam="2">  1       21 0.20426358E+00 0.60636120E+01</pdfrwt>
<totfact> 0.66746145E+08</totfact>
</mgrwt>
</event>
<event>
 4    1  0.3900819E+006  0.4974680E+01  0.7546771E-02  0.2571665E+00
         21   -1    0    0  501  502  0.00000000000E+00  0.00000000000E+00  0.42336415920E+03  0.42336415920E+03  0.00000000000E+00 0. -1.
         21   -1    0    0  502  503 -0.00000000000E+00 -0.00000000000E+00 -0.59256976774E-01  0.59256976774E-01  0.00000000000E+00 0. -1.
          5    1    1    2  501    0  0.10581671690E+01  0.12400494349E+01  0.23629327357E+03  0.23634563371E+03  0.47000000000E+01 0. -1.
         -5    1    1    2    0  503 -0.10581671690E+01 -0.12400494349E+01  0.18701162865E+03  0.18707778246E+03  0.47000000000E+01 0. -1.
<mgrwt>
<rscale>  2 0.49746799E+01</rscale>
<asrwt>0</asrwt>
<pdfrwt beam="1">  1       21 0.65130526E-01 0.49746799E+01</pdfrwt>
<pdfrwt beam="2">  1       21 0.91167970E-05 0.49746799E+01</pdfrwt>
<totfact> 0.23785526E+09</totfact>
</mgrwt>
</event>
<event>
 4    1  0.3900819E+006  0.8527665E+01  0.7546771E-02  0.2169942E+00
         21   -1    0    0  503  502  0.00000000000E+00  0.00000000000E+00  0.24384260559E+00  0.24384260559E+00  0.00000000000E+00 0.  1.
         21   -1    0    0  501  503 -0.00000000000E+00 -0.00000000000E+00 -0.34062160153E+03  0.34062160153E+03  0.00000000000E+00 0. -1.
          5    1    1    2  501    0  0.46571155478E+01 -0.53798089137E+01 -0.23031443926E+03  0.23047225864E+03  0.47000000000E+01 0. -1.
         -5    1    1    2    0  502 -0.46571155478E+01  0.53798089137E+01 -0.11006331966E+03  0.11039318550E+03  0.47000000000E+01 0.  1.
<mgrwt>
<rscale>  2 0.85276649E+01</rscale>
<asrwt>0</asrwt>
<pdfrwt beam="1">  1       21 0.37514244E-04 0.85276649E+01</pdfrwt>
<pdfrwt beam="2">  1       21 0.52403328E-01 0.85276649E+01</pdfrwt>
<totfact> 0.78206035E+08</totfact>
</mgrwt>
</event>
<event>
 4    1  0.3900819E+006  0.7664770E+01  0.7546771E-02  0.2238773E+00
         21   -1    0    0  501  502  0.00000000000E+00  0.00000000000E+00  0.84091901556E+02  0.84091901556E+02  0.00000000000E+00 0. -1.
         21   -1    0    0  502  503 -0.00000000000E+00 -0.00000000000E+00 -0.17583711097E+01  0.17583711097E+01  0.00000000000E+00 0.  1.
          5    1    1    2  501    0  0.47746055886E+01  0.37231494288E+01  0.78427487959E+01  0.10966193910E+02  0.47000000000E+01 0. -1.
         -5    1    1    2    0  503 -0.47746055886E+01 -0.37231494288E+01  0.74490781650E+02  0.74884078756E+02  0.47000000000E+01 0.  1.
<mgrwt>
<rscale>  2 0.76647701E+01</rscale>
<asrwt>0</asrwt>
<pdfrwt beam="1">  1       21 0.12937213E-01 0.76647701E+01</pdfrwt>
<pdfrwt beam="2">  1       21 0.27051870E-03 0.76647701E+01</pdfrwt>
<totfact> 0.53239517E+08</totfact>
</mgrwt>
</event>
<event>
 4    1  0.3900819E+006  0.5671523E+01  0.7546771E-02  0.2460242E+00
         21   -1    0    0  501  502  0.00000000000E+00  0.00000000000E+00  0.43002242871E+03  0.43002242871E+03  0.00000000000E+00 0. -1.
         21   -1    0    0  502  503 -0.00000000000E+00 -0.00000000000E+00 -0.85780357586E-01  0.85780357586E-01  0.00000000000E+00 0. -1.
          5    1    1    2  501    0  0.19812403256E+01  0.24800918820E+01  0.29190606970E+03  0.29196116128E+03  0.47000000000E+01 0. -1.
         -5    1    1    2    0  503 -0.19812403256E+01 -0.24800918820E+01  0.13803057865E+03  0.13814704778E+03  0.47000000000E+01 0. -1.
<mgrwt>
<rscale>  2 0.56715226E+01</rscale>
<asrwt>0</asrwt>
<pdfrwt beam="1">  1       21 0.66155570E-01 0.56715226E+01</pdfrwt>
<pdfrwt beam="2">  1       21 0.13197322E-04 0.56715226E+01</pdfrwt>
<totfact> 0.15721458E+09</totfact>
</mgrwt>
</event>
<event>
 4    1  0.3900819E+006  0.4911602E+01  0.7546771E-02  0.2583078E+00
         21   -1    0    0  503  502  0.00000000000E+00  0.00000000000E+00  0.83208125232E+00  0.83208125232E+00  0.00000000000E+00 0.  1.
         21   -1    0    0  501  503 -0.00000000000E+00 -0.00000000000E+00 -0.33428052770E+02  0.33428052770E+02  0.00000000000E+00 0.  1.
          5    1    1    2  501    0 -0.69202800788E+00  0.12469679222E+01 -0.22538122449E+02  0.23067093343E+02  0.47000000000E+01 0.  1.
         -5    1    1    2    0  502  0.69202800788E+00 -0.12469679222E+01 -0.10057849068E+02  0.11193040679E+02  0.47000000000E+01 0.  1.
<mgrwt>
<rscale>  2 0.49116018E+01</rscale>
<asrwt>0</asrwt>
<pdfrwt beam="1">  1       21 0.12801251E-03 0.49116018E+01</pdfrwt>
<pdfrwt beam="2">  1       21 0.51427772E-02 0.49116018E+01</pdfrwt>
<totfact> 0.41611433E+09</totfact>
</mgrwt>
</event>
<event>
 4    1  0.3900819E+006  0.5637432E+01  0.7546771E-02  0.2465145E+00
         21   -1    0    0  503  502  0.00000000000E+00  0.00000000000E+00  0.27043850926E+01  0.27043850926E+01  0.00000000000E+00 0.  1.
         21   -1    0    0  501  503 -0.00000000000E+00 -0.00000000000E+00 -0.11949551671E+02  0.11949551671E+02  0.00000000000E+00 0. -1.
          5    1    1    2  501    0 -0.16590727656E+01 -0.26340312193E+01 -0.55658029321E+01  0.79220455177E+01  0.47000000000E+01 0. -1.
         -5    1    1    2    0  502  0.16590727656E+01  0.26340312193E+01 -0.36793636464E+01  0.67318912460E+01  0.47000000000E+01 0.  1.
<mgrwt>
<rscale>  2 0.56374323E+01</rscale>
<asrwt>0</asrwt>
<pdfrwt beam="1">  1       21 0.41605925E-03 0.56374323E+01</pdfrwt>
<pdfrwt beam="2">  1       21 0.18383926E-02 0.56374323E+01</pdfrwt>
<totfact> 0.42683778E+09</totfact>
</mgrwt>
</event>
<event>
 4    1  0.3900819E+006  0.7763568E+01  0.7546771E-02  0.2230270E+00
         21   -1    0    0  501  502  0.00000000000E+00  0.00000000000E+00  0.14786776407E+03  0.14786776407E+03  0.00000000000E+00 0.  1.
         21   -1    0    0  502  503 -0.00000000000E+00 -0.00000000000E+00 -0.59269835528E+00  0.59269835528E+00  0.00000000000E+00 0. -1.
          5    1    1    2  501    0 -0.61688406598E+01 -0.35831416415E+00  0.11511848358E+03  0.11537997333E+03  0.47000000000E+01 0.  1.
         -5    1    1    2    0  503  0.61688406598E+01  0.35831416415E+00  0.32156582137E+02  0.33080489096E+02  0.47000000000E+01 0. -1.
<mgrwt>
<rscale>  2 0.77635677E+01</rscale>
<asrwt>0</asrwt>
<pdfrwt beam="1">  1       21 0.22748857E-01 0.77635677E+01</pdfrwt>
<pdfrwt beam="2">  1       21 0.91184480E-04 0.77635677E+01</pdfrwt>
<totfact> 0.95582658E+08</totfact>
</mgrwt>
</event>
<event>
 4    1  0.3900819E+006  0.7909041E+01  0.7546771E-02  0.2218064E+00
         21   -1    0    0  501  502  0.00000000000E+00  0.00000000000E+00  0.48387258199E+01  0.48387258199E+01  0.00000000000E+00 0. -1.
         21   -1    0    0  502  503 -0.00000000000E+00 -0.00000000000E+00 -0.19691233234E+02  0.19691233234E+02  0.00000000000E+00 0.  1.
          5    1    1    2  501    0 -0.62171332461E+01 -0.13454299980E+01 -0.23802946871E+00  0.79126219237E+01  0.47000000000E+01 0. -1.
         -5    1    1    2    0  503  0.62171332461E+01  0.13454299980E+01 -0.14614477945E+02  0.16617337130E+02  0.47000000000E+01 0.  1.
<mgrwt>
<rscale>  2 0.79090409E+01</rscale>
<asrwt>0</asrwt>
<pdfrwt beam="1">  1       21 0.74441935E-03 0.79090409E+01</pdfrwt>
<pdfrwt beam="2">  1       21 0.30294205E-02 0.79090409E+01</pdfrwt>
<totfact> 0.12032682E+09</totfact>
</mgrwt>
</event>
<event>
 4    1  0.3900819E+006  0.5544089E+01  0.7546771E-02  0.2478829E+00
         21   -1    0    0  501  502  0.00000000000E+00  0.00000000000E+00  0.40712442719E+02  0.40712442719E+02  0.00000000000E+00 0.  1.
         21   -1    0    0  502  503 -0.00000000000E+00 -0.00000000000E+00 -0.98146181102E+00  0.98146181102E+00  0.00000000000E+00 0.  1.
          5    1    1    2  501    0  0.19636854313E+01 -0.21888040044E+01  0.29879920118E+02  0.30389908682E+02  0.47000000000E+01 0.  1.
         -5    1    1    2    0  503 -0.19636854313E+01  0.21888040044E+01  0.98510607895E+01  0.11303995848E+02  0.47000000000E+01 0.  1.
<mgrwt>
<rscale>  2 0.55440891E+01</rscale>
<asrwt>0</asrwt>
<pdfrwt beam="1">  1       21 0.62634514E-02 0.55440891E+01</pdfrwt>
<pdfrwt beam="2">  1       21 0.15099416E-03 0.55440891E+01</pdfrwt>
<totfact> 0.28105609E+09</totfact>
</mgrwt>
</event>
<event>
 4    1  0.3900819E+006  0.5906415E+01  0.7546771E-02  0.2427765E+00
         21   -1    0    0  503  502  0.00000000000E+00  0.00000000000E+00  0.22498265094E+01  0.22498265094E+01  0.00000000000E+00 0.  1.
         21   -1    0    0  501  503 -0.00000000000E+00 -0.00000000000E+00 -0.17562060517E+02  0.17562060517E+02  0.00000000000E+00 0.  1.
          5    1    1    2  501    0 -0.17415019976E+01  0.31245661514E+01 -0.11045566794E+02  0.12525585362E+02  0.47000000000E+01 0.  1.
         -5    1    1    2    0  502  0.17415019976E+01 -0.31245661514E+01 -0.42666672132E+01  0.72863016648E+01  0.47000000000E+01 0.  1.
<mgrwt>
<rscale>  2 0.59064154E+01</rscale>
<asrwt>0</asrwt>
<pdfrwt beam="1">  1       21 0.34612717E-03 0.59064154E+01</pdfrwt>
<pdfrwt beam="2">  1       21 0.27018553E-02 0.59064154E+01</pdfrwt>
<totfact> 0.33008030E+09</totfact>
</mgrwt>
</event>
<event>
 4    1  0.3900819E+006  0.8251381E+01  0.7546771E-02  0.2190717E+00
         21   -1    0    0  503  502  0.00000000000E+00  0.00000000000E+00  0.12217055496E+02  0.12217055496E+02  0.00000000000E+00 0. -1.
         21   -1    0    0  501  503 -0.00000000000E+00 -0.00000000000E+00 -0.15826978955E+02  0.15826978955E+02  0.00000000000E+00 0.  1.
          5    1    1    2  501    0  0.65263769124E+01  0.18443685146E+01 -0.13091436570E+02  0.15474850639E+02  0.47000000000E+01 0.  1.
         -5    1    1    2    0  502 -0.65263769124E+01 -0.18443685146E+01  0.94815131110E+01  0.12569183812E+02  0.47000000000E+01 0. -1.
<mgrwt>
<rscale>  2 0.82513811E+01</rscale>
<asrwt>0</asrwt>
<pdfrwt beam="1">  1       21 0.18795470E-02 0.82513811E+01</pdfrwt>
<pdfrwt beam="2">  1       21 0.24349198E-02 0.82513811E+01</pdfrwt>
<totfact> 0.44903825E+08</totfact>
</mgrwt>
</event>
<event>
 4    1  0.3900819E+006  0.1900245E+02  0.7546771E-02  0.1765925E+00
         21   -1    0    0  503  502  0.00000000000E+00  0.00000000000E+00  0.30631750878E+02  0.30631750878E+02  0.00000000000E+00 0.  1.
         21   -1    0    0  501  503 -0.00000000000E+00 -0.00000000000E+00 -0.44077156216E+02  0.44077156216E+02  0.00000000000E+00 0. -1.
          5    1    1    2  501    0  0.90604535019E+01  0.16028456972E+02 -0.38694172111E+02  0.43108377445E+02  0.47000000000E+01 0. -1.
         -5    1    1    2    0  502 -0.90604535019E+01 -0.16028456972E+02  0.25248766772E+02  0.31600529649E+02  0.47000000000E+01 0.  1.
<mgrwt>
<rscale>  2 0.19002454E+02</rscale>
<asrwt>0</asrwt>
<pdfrwt beam="1">  1       21 0.47125770E-02 0.19002454E+02</pdfrwt>
<pdfrwt beam="2">  1       21 0.67811010E-02 0.19002454E+02</pdfrwt>
<totfact> 0.32919113E+07</totfact>
</mgrwt>
</event>
<event>
 4    1  0.3900819E+006  0.4713391E+01  0.7546771E-02  0.2620656E+00
         21   -1    0    0  503  502  0.00000000000E+00  0.00000000000E+00  0.29052211143E+02  0.29052211143E+02  0.00000000000E+00 0. -1.
         21   -1    0    0  501  503 -0.00000000000E+00 -0.00000000000E+00 -0.53804745436E+01  0.53804745436E+01  0.00000000000E+00 0. -1.
          5    1    1    2  501    0  0.21692101506E+00 -0.28106992246E+00 -0.41101839395E+01  0.62537722252E+01  0.47000000000E+01 0. -1.
         -5    1    1    2    0  502 -0.21692101506E+00  0.28106992246E+00  0.27781920539E+02  0.28178913461E+02  0.47000000000E+01 0. -1.
<mgrwt>
<rscale>  2 0.47133910E+01</rscale>
<asrwt>0</asrwt>
<pdfrwt beam="1">  1       21 0.44695708E-02 0.47133910E+01</pdfrwt>
<pdfrwt beam="2">  1       21 0.82776533E-03 0.47133910E+01</pdfrwt>
<totfact> 0.38936449E+08</totfact>
</mgrwt>
</event>
<event>
 4    1  0.3900819E+006  0.6022104E+01  0.7546771E-02  0.2412556E+00
         21   -1    0    0  501  502  0.00000000000E+00  0.00000000000E+00  0.31216137431E-01  0.31216137431E-01  0.00000000000E+00 0.  1.
         21   -1    0    0  502  503 -0.00000000000E+00 -0.00000000000E+00 -0.11800265260E+04  0.11800265260E+04  0.00000000000E+00 0.  1.
          5    1    1    2  501    0 -0.30567222328E+01  0.21982237122E+01 -0.66340262580E+03  0.66342995837E+03  0.47000000000E+01 0.  1.
         -5    1    1    2    0  503  0.30567222328E+01 -0.21982237122E+01 -0.51659268408E+03  0.51662778379E+03  0.47000000000E+01 0.  1.
<mgrwt>
<rscale>  2 0.60221041E+01</rscale>
<asrwt>0</asrwt>
<pdfrwt beam="1">  1       21 0.48026273E-05 0.60221041E+01</pdfrwt>
<pdfrwt beam="2">  1       21 0.18153708E+00 0.60221041E+01</pdfrwt>
<totfact> 0.80380493E+08</totfact>
</mgrwt>
</event>
<event>
 4    1  0.3900819E+006  0.5052211E+01  0.7546771E-02  0.2557974E+00
         21   -1    0    0  501  502  0.00000000000E+00  0.00000000000E+00  0.50145723246E+00  0.50145723246E+00  0.00000000000E+00 0.  1.
         21   -1    0    0  502  503 -0.00000000000E+00 -0.00000000000E+00 -0.63682409413E+02  0.63682409413E+02  0.00000000000E+00 0.  1.
          5    1    1    2  501    0  0.12176807696E+01  0.13971720297E+01 -0.17213417658E+02  0.17939525735E+02  0.47000000000E+01 0.  1.
         -5    1    1    2    0  503 -0.12176807696E+01 -0.13971720297E+01 -0.45967534523E+02  0.46244340910E+02  0.47000000000E+01 0.  1.
<mgrwt>
<rscale>  2 0.50522110E+01</rscale>
<asrwt>0</asrwt>
<pdfrwt beam="1">  1       21 0.77147316E-04 0.50522110E+01</pdfrwt>
<pdfrwt beam="2">  1       21 0.97972875E-02 0.50522110E+01</pdfrwt>
<totfact> 0.32228464E+09</totfact>
</mgrwt>
</event>
<event>
 4    1  0.3900819E+006  0.5693206E+01  0.7546771E-02  0.2457150E+00
         21   -1    0    0  501  502  0.00000000000E+00  0.00000000000E+00  0.75653790559E+01  0.75653790559E+01  0.00000000000E+00 0.  1.
         21   -1    0    0  502  503 -0.00000000000E+00 -0.00000000000E+00 -0.86564606199E+01  0.86564606199E+01  0.00000000000E+00 0. -1.
          5    1    1    2  501    0 -0.31531922862E+01 -0.61642329931E+00  0.52187565041E+01  0.77232129795E+01  0.47000000000E+01 0.  1.
         -5    1    1    2    0  503  0.31531922862E+01  0.61642329931E+00 -0.63098380681E+01  0.84986266963E+01  0.47000000000E+01 0. -1.
<mgrwt>
<rscale>  2 0.56932064E+01</rscale>
<asrwt>0</asrwt>
<pdfrwt beam="1">  1       21 0.11639045E-02 0.56932064E+01</pdfrwt>
<pdfrwt beam="2">  1       21 0.13317632E-02 0.56932064E+01</pdfrwt>
<totfact> 0.16221425E+09</totfact>
</mgrwt>
</event>
<event>
 4    1  0.3900819E+006  0.7168793E+01  0.7546771E-02  0.2284306E+00
         21   -1    0    0  503  502  0.00000000000E+00  0.00000000000E+00  0.36948868382E+02  0.36948868382E+02  0.00000000000E+00 0. -1.
         21   -1    0    0  501  503 -0.00000000000E+00 -0.00000000000E+00 -0.15118217727E+01  0.15118217727E+01  0.00000000000E+00 0.  1.
          5    1    1    2  501    0 -0.32011800872E+01  0.43650939113E+01  0.12279544987E+02  0.14218960015E+02  0.47000000000E+01 0.  1.
         -5    1    1    2    0  502  0.32011800872E+01 -0.43650939113E+01  0.23157501622E+02  0.24241730140E+02  0.47000000000E+01 0. -1.
<mgrwt>
<rscale>  2 0.71687934E+01</rscale>
<asrwt>0</asrwt>
<pdfrwt beam="1">  1       21 0.56844406E-02 0.71687934E+01</pdfrwt>
<pdfrwt beam="2">  1       21 0.23258799E-03 0.71687934E+01</pdfrwt>
<totfact> 0.22329792E+09</totfact>
</mgrwt>
</event>
<event>
 4    1  0.3900819E+006  0.7789290E+01  0.7546771E-02  0.2228085E+00
         21   -1    0    0  501  502  0.00000000000E+00  0.00000000000E+00  0.40414147009E+01  0.40414147009E+01  0.00000000000E+00 0.  1.
         21   -1    0    0  502  503 -0.00000000000E+00 -0.00000000000E+00 -0.17388289316E+02  0.17388289316E+02  0.00000000000E+00 0.  1.
          5    1    1    2  501    0 -0.49800481492E+00  0.61915292594E+01 -0.27130998705E+01  0.82482697746E+01  0.47000000000E+01 0.  1.
         -5    1    1    2    0  503  0.49800481492E+00 -0.61915292594E+01 -0.10633774745E+02  0.13181434243E+02  0.47000000000E+01 0.  1.
<mgrwt>
<rscale>  2 0.77892903E+01</rscale>
<asrwt>0</asrwt>
<pdfrwt beam="1">  1       21 0.62175610E-03 0.77892903E+01</pdfrwt>
<pdfrwt beam="2">  1       21 0.26751215E-02 0.77892903E+01</pdfrwt>
<totfact> 0.18468464E+09</totfact>
</mgrwt>
</event>
<event>
 4    1  0.3900819E+006  0.5558276E+01  0.7546771E-02  0.2476724E+00
         21   -1    0    0  503  502  0.00000000000E+00  0.00000000000E+00  0.29437644217E+02  0.29437644217E+02  0.00000000000E+00 0.  1.
         21   -1    0    0  501  503 -0.00000000000E+00 -0.00000000000E+00 -0.19358860930E+01  0.19358860930E+01  0.00000000000E+00 0.  1.
          5    1    1    2  501    0  0.18115442363E+01 -0.23500512320E+01  0.31361704557E+01  0.63820058320E+01  0.47000000000E+01 0.  1.
         -5    1    1    2    0  502 -0.18115442363E+01  0.23500512320E+01  0.24365587668E+02  0.24991524478E+02  0.47000000000E+01 0.  1.
<mgrwt>
<rscale>  2 0.55582761E+01</rscale>
<asrwt>0</asrwt>
<pdfrwt beam="1">  1       21 0.45288680E-02 0.55582761E+01</pdfrwt>
<pdfrwt beam="2">  1       21 0.29782865E-03 0.55582761E+01</pdfrwt>
<totfact> 0.18104409E+09</totfact>
</mgrwt>
</event>
<event>
 4    1  0.3900819E+006  0.9183992E+01  0.7546771E-02  0.2124637E+00
         21   -1    0    0  503  502  0.00000000000E+00  0.00000000000E+00  0.11755765164E+04  0.11755765164E+04  0.00000000000E+00 0.  1.
         21   -1    0    0  501  503 -0.00000000000E+00 -0.00000000000E+00 -0.79715294542E-01  0.79715294542E-01  0.00000000000E+00 0. -1.
          5    1    1    2  501    0  0.71454042481E+01 -0.33464767898E+01  0.77358217557E+03  0.77363668997E+03  0.47000000000E+01 0.  1.
         -5    1    1    2    0  502 -0.71454042481E+01  0.33464767898E+01  0.40191462557E+03  0.40201954176E+03  0.47000000000E+01 0. -1.
<mgrwt>
<rscale>  2 0.91839920E+01</rscale>
<asrwt>0</asrwt>
<pdfrwt beam="1">  1       21 0.18084404E+00 0.91839920E+01</pdfrwt>
<pdfrwt beam="2">  1       21 0.12264833E-04 0.91839920E+01</pdfrwt>
<totfact> 0.28413904E+08</totfact>
</mgrwt>
</event>
<event>
 4    1  0.3900819E+006  0.9562081E+01  0.7546771E-02  0.2100802E+00
         21   -1    0    0  501  502  0.00000000000E+00  0.00000000000E+00  0.22468842949E+01  0.22468842949E+01  0.00000000000E+00 0. -1.
         21   -1    0    0  502  503 -0.00000000000E+00 -0.00000000000E+00 -0.50748871417E+02  0.50748871417E+02  0.00000000000E+00 0.  1.
          5    1    1    2  501    0  0.31024938611E+01  0.77277379693E+01 -0.12455972404E+02  0.15703014068E+02  0.47000000000E+01 0. -1.
         -5    1    1    2    0  503 -0.31024938611E+01 -0.77277379693E+01 -0.36046014718E+02  0.37292741644E+02  0.47000000000E+01 0.  1.
<mgrwt>
<rscale>  2 0.95620815E+01</rscale>
<asrwt>0</asrwt>
<pdfrwt beam="1">  1       21 0.34567453E-03 0.95620815E+01</pdfrwt>
<pdfrwt beam="2">  1       21 0.78075182E-02 0.95620815E+01</pdfrwt>
<totfact> 0.95689113E+08</totfact>
</mgrwt>
</event>
<event>
 4    1  0.3900819E+006  0.5543846E+01  0.7546771E-02  0.2478865E+00
         21   -1    0    0  503  502  0.00000000000E+00  0.00000000000E+00  0.15572830071E+03  0.15572830071E+03  0.00000000000E+00 0.  1.
         21   -1    0    0  501  503 -0.00000000000E+00 -0.00000000000E+00 -0.27786917497E+00  0.27786917497E+00  0.00000000000E+00 0.  1.
          5    1    1    2  501    0  0.59534369484E+00  0.28792004595E+01  0.35737754512E+02  0.36165194967E+02  0.47000000000E+01 0.  1.
         -5    1    1    2    0  502 -0.59534369484E+00 -0.28792004595E+01  0.11971267702E+03  0.11984097492E+03  0.47000000000E+01 0.  1.
<mgrwt>
<rscale>  2 0.55438461E+01</rscale>
<asrwt>0</asrwt>
<pdfrwt beam="1">  1       21 0.23958130E-01 0.55438461E+01</pdfrwt>
<pdfrwt beam="2">  1       21 0.42749228E-04 0.55438461E+01</pdfrwt>
<totfact> 0.18952072E+09</totfact>
</mgrwt>
</event>
<event>
 4    1  0.3900819E+006  0.7090951E+01  0.7546771E-02  0.2291921E+00
         21   -1    0    0  501  502  0.00000000000E+00  0.00000000000E+00  0.20282342380E+03  0.20282342380E+03  0.00000000000E+00 0.  1.
         21   -1    0    0  502  503 -0.00000000000E+00 -0.00000000000E+00 -0.36044349243E+01  0.36044349243E+01  0.00000000000E+00 0.  1.
          5    1    1    2  501    0 -0.24088566293E+01  0.47317017611E+01  0.19921074046E+03  0.19933690252E+03  0.47000000000E+01 0.  1.
         -5    1    1    2    0  503  0.24088566293E+01 -0.47317017611E+01  0.82484133914E-02  0.70909562016E+01  0.47000000000E+01 0.  1.
<mgrwt>
<rscale>  2 0.70909514E+01</rscale>
<asrwt>0</asrwt>
<pdfrwt beam="1">  1       21 0.31203595E-01 0.70909514E+01</pdfrwt>
<pdfrwt beam="2">  1       21 0.55452861E-03 0.70909514E+01</pdfrwt>
<totfact> 0.43924020E+07</totfact>
</mgrwt>
</event>
<event>
 4    1  0.3900819E+006  0.5258791E+01  0.7546771E-02  0.2523195E+00
         21   -1    0    0  501  502  0.00000000000E+00  0.00000000000E+00  0.13283592180E+00  0.13283592180E+00  0.00000000000E+00 0.  1.
         21   -1    0    0  502  503 -0.00000000000E+00 -0.00000000000E+00 -0.38984488988E+03  0.38984488988E+03  0.00000000000E+00 0. -1.
          5    1    1    2  501    0  0.19862823993E+01 -0.12726194406E+01 -0.61752512467E+02  0.61976024994E+02  0.47000000000E+01 0. -1.
         -5    1    1    2    0  503 -0.19862823993E+01  0.12726194406E+01 -0.32795954149E+03  0.32800170081E+03  0.47000000000E+01 0. -1.
<mgrwt>
<rscale>  2 0.52587905E+01</rscale>
<asrwt>0</asrwt>
<pdfrwt beam="1">  1       21 0.20436427E-04 0.52587905E+01</pdfrwt>
<pdfrwt beam="2">  1       21 0.59975752E-01 0.52587905E+01</pdfrwt>
<totfact> 0.99494610E+08</totfact>
</mgrwt>
</event>
<event>
 4    1  0.3900819E+006  0.5491705E+01  0.7546771E-02  0.2486681E+00
         21   -1    0    0  501  502  0.00000000000E+00  0.00000000000E+00  0.10191963194E+03  0.10191963194E+03  0.00000000000E+00 0.  1.
         21   -1    0    0  502  503 -0.00000000000E+00 -0.00000000000E+00 -0.36991980237E+00  0.36991980237E+00  0.00000000000E+00 0.  1.
          5    1    1    2  501    0 -0.11075111273E+01 -0.26157674887E+01  0.73651819745E+02  0.73856275104E+02  0.47000000000E+01 0.  1.
         -5    1    1    2    0  503  0.11075111273E+01  0.26157674887E+01  0.27897892388E+02  0.28433276634E+02  0.47000000000E+01 0.  1.
<mgrwt>
<rscale>  2 0.54917047E+01</rscale>
<asrwt>0</asrwt>
<pdfrwt beam="1">  1       21 0.15679921E-01 0.54917047E+01</pdfrwt>
<pdfrwt beam="2">  1       21 0.56910820E-04 0.54917047E+01</pdfrwt>
<totfact> 0.25317690E+09</totfact>
</mgrwt>
</event>
<event>
 4    1  0.3900819E+006  0.5448082E+01  0.7546771E-02  0.2493317E+00
         21   -1    0    0  503  502  0.00000000000E+00  0.00000000000E+00  0.51411386316E+00  0.51411386316E+00  0.00000000000E+00 0. -1.
         21   -1    0    0  501  503 -0.00000000000E+00 -0.00000000000E+00 -0.26651350928E+03  0.26651350928E+03  0.00000000000E+00 0. -1.
          5    1    1    2  501    0 -0.27177876250E+01  0.45302413384E+00 -0.25117072776E+03  0.25122980732E+03  0.47000000000E+01 0. -1.
         -5    1    1    2    0  502  0.27177876250E+01 -0.45302413384E+00 -0.14828667658E+02  0.15797815829E+02  0.47000000000E+01 0. -1.
<mgrwt>
<rscale>  2 0.54480823E+01</rscale>
<asrwt>0</asrwt>
<pdfrwt beam="1">  1       21 0.79094594E-04 0.54480823E+01</pdfrwt>
<pdfrwt beam="2">  1       21 0.41001999E-01 0.54480823E+01</pdfrwt>
<totfact> 0.33369293E+08</totfact>
</mgrwt>
</event>
<event>
 4    1  0.3900819E+006  0.9649388E+01  0.7546771E-02  0.2095508E+00
         21   -1    0    0  501  502  0.00000000000E+00  0.00000000000E+00  0.49090259614E+03  0.49090259614E+03  0.00000000000E+00 0.  1.
         21   -1    0    0  502  503 -0.00000000000E+00 -0.00000000000E+00 -0.76335902931E+00  0.76335902931E+00  0.00000000000E+00 0. -1.
          5    1    1    2  501    0 -0.52845699164E+01 -0.65646028529E+01  0.45818415290E+03  0.45828575001E+03  0.47000000000E+01 0.  1.
         -5    1    1    2    0  503  0.52845699164E+01  0.65646028529E+01  0.31955084204E+02  0.33380205157E+02  0.47000000000E+01 0. -1.
<mgrwt>
<rscale>  2 0.96493881E+01</rscale>
<asrwt>0</asrwt>
<pdfrwt beam="1">  1       21 0.75523224E-01 0.96493881E+01</pdfrwt>
<pdfrwt beam="2">  1       21 0.11744024E-03 0.96493881E+01</pdfrwt>
<totfact> 0.86580125E+07</totfact>
</mgrwt>
</event>
<event>
 4    1  0.3900819E+006  0.1724880E+02  0.7546771E-02  0.1806313E+00
         21   -1    0    0  503  502  0.00000000000E+00  0.00000000000E+00  0.95522293530E+02  0.95522293530E+02  0.00000000000E+00 0. -1.
         21   -1    0    0  501  503 -0.00000000000E+00 -0.00000000000E+00 -0.38291771472E+01  0.38291771472E+01  0.00000000000E+00 0.  1.
          5    1    1    2  501    0  0.63291453828E+01  0.15341868876E+02  0.24388374659E+02  0.29871622660E+02  0.47000000000E+01 0.  1.
         -5    1    1    2    0  502 -0.63291453828E+01 -0.15341868876E+02  0.67304741725E+02  0.69479848017E+02  0.47000000000E+01 0. -1.
<mgrwt>
<rscale>  2 0.17248798E+02</rscale>
<asrwt>0</asrwt>
<pdfrwt beam="1">  1       21 0.14695736E-01 0.17248798E+02</pdfrwt>
<pdfrwt beam="2">  1       21 0.58910425E-03 0.17248798E+02</pdfrwt>
<totfact> 0.20965209E+08</totfact>
</mgrwt>
</event>
<event>
 4    1  0.3900819E+006  0.7830277E+01  0.7546771E-02  0.2224627E+00
         21   -1    0    0  501  502  0.00000000000E+00  0.00000000000E+00  0.93697615872E-01  0.93697615872E-01  0.00000000000E+00 0. -1.
         21   -1    0    0  502  503 -0.00000000000E+00 -0.00000000000E+00 -0.73435364828E+03  0.73435364828E+03  0.00000000000E+00 0. -1.
          5    1    1    2  501    0  0.47311131035E+01 -0.41036331855E+01 -0.24593931454E+03  0.24606393412E+03  0.47000000000E+01 0. -1.
         -5    1    1    2    0  503 -0.47311131035E+01  0.41036331855E+01 -0.48832063612E+03  0.48838341178E+03  0.47000000000E+01 0. -1.
<mgrwt>
<rscale>  2 0.78302769E+01</rscale>
<asrwt>0</asrwt>
<pdfrwt beam="1">  1       21 0.14415278E-04 0.78302769E+01</pdfrwt>
<pdfrwt beam="2">  1       21 0.11297544E+00 0.78302769E+01</pdfrwt>
<totfact> 0.59438857E+08</totfact>
</mgrwt>
</event>
<event>
 4    1  0.3900819E+006  0.5872929E+01  0.7546771E-02  0.2432261E+00
         21   -1    0    0  503  502  0.00000000000E+00  0.00000000000E+00  0.25445415965E+00  0.25445415965E+00  0.00000000000E+00 0. -1.
         21   -1    0    0  501  503 -0.00000000000E+00 -0.00000000000E+00 -0.13559655914E+03  0.13559655914E+03  0.00000000000E+00 0.  1.
          5    1    1    2  501    0  0.10828008592E+01  0.33509450291E+01 -0.68928181220E+02  0.69177926079E+02  0.47000000000E+01 0.  1.
         -5    1    1    2    0  502 -0.10828008592E+01 -0.33509450291E+01 -0.66413923756E+02  0.66673087216E+02  0.47000000000E+01 0. -1.
<mgrwt>
<rscale>  2 0.58729286E+01</rscale>
<asrwt>0</asrwt>
<pdfrwt beam="1">  1       21 0.39146865E-04 0.58729286E+01</pdfrwt>
<pdfrwt beam="2">  1       21 0.20860971E-01 0.58729286E+01</pdfrwt>
<totfact> 0.28015206E+09</totfact>
</mgrwt>
</event>
<event>
 4    1  0.3900819E+006  0.1013608E+02  0.7546771E-02  0.2067325E+00
         21   -1    0    0  501  502  0.00000000000E+00  0.00000000000E+00  0.29232872463E+02  0.29232872463E+02  0.00000000000E+00 0. -1.
         21   -1    0    0  502  503 -0.00000000000E+00 -0.00000000000E+00 -0.46864878721E+01  0.46864878721E+01  0.00000000000E+00 0. -1.
          5    1    1    2  501    0  0.89801071834E+01 -0.88282978210E-01  0.20754209302E+02  0.23097128018E+02  0.47000000000E+01 0. -1.
         -5    1    1    2    0  503 -0.89801071834E+01  0.88282978210E-01  0.37921752887E+01  0.10822232317E+02  0.47000000000E+01 0. -1.
<mgrwt>
<rscale>  2 0.10136080E+02</rscale>
<asrwt>0</asrwt>
<pdfrwt beam="1">  1       21 0.44973649E-02 0.10136080E+02</pdfrwt>
<pdfrwt beam="2">  1       21 0.72099815E-03 0.10136080E+02</pdfrwt>
<totfact> 0.81176357E+08</totfact>
</mgrwt>
</event>
<event>
 4    1  0.3900819E+006  0.6919631E+01  0.7546771E-02  0.2309173E+00
         21   -1    0    0  503  502  0.00000000000E+00  0.00000000000E+00  0.15179349218E+01  0.15179349218E+01  0.00000000000E+00 0.  1.
         21   -1    0    0  501  503 -0.00000000000E+00 -0.00000000000E+00 -0.93658828032E+02  0.93658828032E+02  0.00000000000E+00 0.  1.
          5    1    1    2  501    0 -0.31345018735E+01 -0.39957723438E+01 -0.84825222729E+02  0.85106989782E+02  0.47000000000E+01 0.  1.
         -5    1    1    2    0  502  0.31345018735E+01  0.39957723438E+01 -0.73156703811E+01  0.10069773172E+02  0.47000000000E+01 0.  1.
<mgrwt>
<rscale>  2 0.69196314E+01</rscale>
<asrwt>0</asrwt>
<pdfrwt beam="1">  1       21 0.23352841E-03 0.69196314E+01</pdfrwt>
<pdfrwt beam="2">  1       21 0.14409053E-01 0.69196314E+01</pdfrwt>
<totfact> 0.51426775E+08</totfact>
</mgrwt>
</event>
<event>
 4    1  0.3900819E+006  0.1611173E+02  0.7546771E-02  0.1835924E+00
         21   -1    0    0  503  502  0.00000000000E+00  0.00000000000E+00  0.33977515384E+01  0.33977515384E+01  0.00000000000E+00 0. -1.
         21   -1    0    0  501  503 -0.00000000000E+00 -0.00000000000E+00 -0.14885428668E+03  0.14885428668E+03  0.00000000000E+00 0.  1.
          5    1    1    2  501    0  0.79157060993E+01 -0.13222691255E+02 -0.12583929589E+03  0.12686652970E+03  0.47000000000E+01 0.  1.
         -5    1    1    2    0  502 -0.79157060993E+01  0.13222691255E+02 -0.19617239250E+02  0.25385508521E+02  0.47000000000E+01 0. -1.
<mgrwt>
<rscale>  2 0.16111734E+02</rscale>
<asrwt>0</asrwt>
<pdfrwt beam="1">  1       21 0.52273103E-03 0.16111734E+02</pdfrwt>
<pdfrwt beam="2">  1       21 0.22900659E-01 0.16111734E+02</pdfrwt>
<totfact> 0.11435902E+08</totfact>
</mgrwt>
</event>
<event>
 4    1  0.3900819E+006  0.4723560E+01  0.7546771E-02  0.2618662E+00
         21   -1    0    0  501  502  0.00000000000E+00  0.00000000000E+00  0.45176467807E+00  0.45176467807E+00  0.00000000000E+00 0. -1.
         21   -1    0    0  502  503 -0.00000000000E+00 -0.00000000000E+00 -0.66676129891E+02  0.66676129891E+02  0.00000000000E+00 0. -1.
          5    1    1    2  501    0  0.45298442606E+00 -0.12969860020E+00 -0.16021691491E+02  0.16703491098E+02  0.47000000000E+01 0. -1.
         -5    1    1    2    0  503 -0.45298442606E+00  0.12969860020E+00 -0.50202673721E+02  0.50424403471E+02  0.47000000000E+01 0. -1.
<mgrwt>
<rscale>  2 0.47235597E+01</rscale>
<asrwt>0</asrwt>
<pdfrwt beam="1">  1       21 0.69502295E-04 0.47235597E+01</pdfrwt>
<pdfrwt beam="2">  1       21 0.10257861E-01 0.47235597E+01</pdfrwt>
<totfact> 0.32245393E+09</totfact>
</mgrwt>
</event>
<event>
 4    1  0.3900819E+006  0.1938239E+02  0.7546771E-02  0.1757896E+00
         21   -1    0    0  501  502  0.00000000000E+00  0.00000000000E+00  0.15722095611E+01  0.15722095611E+01  0.00000000000E+00 0.  1.
         21   -1    0    0  502  503 -0.00000000000E+00 -0.00000000000E+00 -0.53368223761E+03  0.53368223761E+03  0.00000000000E+00 0. -1.
          5    1    1    2  501    0 -0.16637523734E+02  0.87624147602E+01 -0.67169183218E+02  0.69909772440E+02  0.47000000000E+01 0.  1.
         -5    1    1    2    0  503  0.16637523734E+02 -0.87624147602E+01 -0.46494084483E+03  0.46534467473E+03  0.47000000000E+01 0. -1.
<mgrwt>
<rscale>  2 0.19382392E+02</rscale>
<asrwt>0</asrwt>
<pdfrwt beam="1">  1       21 0.24187875E-03 0.19382392E+02</pdfrwt>
<pdfrwt beam="2">  1       21 0.82104837E-01 0.19382392E+02</pdfrwt>
<totfact> 0.32851302E+07</totfact>
</mgrwt>
</event>
<event>
 4    1  0.3900819E+006  0.7015814E+01  0.7546771E-02  0.2299402E+00
         21   -1    0    0  503  502  0.00000000000E+00  0.00000000000E+00  0.28182701311E+02  0.28182701311E+02  0.00000000000E+00 0.  1.
         21   -1    0    0  501  503 -0.00000000000E+00 -0.00000000000E+00 -0.33781331653E+01  0.33781331653E+01  0.00000000000E+00 0. -1.
          5    1    1    2  501    0  0.43923577691E+01 -0.27997932939E+01  0.14352621857E+01  0.71611191027E+01  0.47000000000E+01 0. -1.
         -5    1    1    2    0  502 -0.43923577691E+01  0.27997932939E+01  0.23369305960E+02  0.24399715374E+02  0.47000000000E+01 0.  1.
<mgrwt>
<rscale>  2 0.70158142E+01</rscale>
<asrwt>0</asrwt>
<pdfrwt beam="1">  1       21 0.43358000E-02 0.70158142E+01</pdfrwt>
<pdfrwt beam="2">  1       21 0.51971281E-03 0.70158142E+01</pdfrwt>
<totfact> 0.10777429E+09</totfact>
</mgrwt>
</event>
<event>
 4    1  0.3900819E+006  0.6054554E+01  0.7546771E-02  0.2408377E+00
         21   -1    0    0  501  502  0.00000000000E+00  0.00000000000E+00  0.57613571731E+03  0.57613571731E+03  0.00000000000E+00 0. -1.
         21   -1    0    0  502  503 -0.00000000000E+00 -0.00000000000E+00 -0.87631348879E-01  0.87631348879E-01  0.00000000000E+00 0. -1.
          5    1    1    2  501    0 -0.36126720277E+01 -0.12313529448E+01  0.43881613080E+03  0.43885789759E+03  0.47000000000E+01 0. -1.
         -5    1    1    2    0  503  0.36126720277E+01  0.12313529448E+01  0.13723195516E+03  0.13736545106E+03  0.47000000000E+01 0. -1.
<mgrwt>
<rscale>  2 0.60545544E+01</rscale>
<asrwt>0</asrwt>
<pdfrwt beam="1">  1       21 0.88633231E-01 0.60545544E+01</pdfrwt>
<pdfrwt beam="2">  1       21 0.13482207E-04 0.60545544E+01</pdfrwt>
<totfact> 0.91185356E+08</totfact>
</mgrwt>
</event>
<event>
 4    1  0.3900819E+006  0.4928250E+01  0.7546771E-02  0.2580042E+00
         21   -1    0    0  501  502  0.00000000000E+00  0.00000000000E+00  0.43734089692E+02  0.43734089692E+02  0.00000000000E+00 0. -1.
         21   -1    0    0  502  503 -0.00000000000E+00 -0.00000000000E+00 -0.64297585265E+00  0.64297585265E+00  0.00000000000E+00 0. -1.
          5    1    1    2  501    0 -0.61013753822E+00  0.13510678801E+01  0.29736833729E+02  0.30142444036E+02  0.47000000000E+01 0. -1.
         -5    1    1    2    0  503  0.61013753822E+00 -0.13510678801E+01  0.13354280111E+02  0.14234621510E+02  0.47000000000E+01 0. -1.
<mgrwt>
<rscale>  2 0.49282504E+01</rscale>
<asrwt>0</asrwt>
<pdfrwt beam="1">  1       21 0.67283192E-02 0.49282504E+01</pdfrwt>
<pdfrwt beam="2">  1       21 0.98919396E-04 0.49282504E+01</pdfrwt>
<totfact> 0.39633695E+09</totfact>
</mgrwt>
</event>
<event>
 4    1  0.3900819E+006  0.4770562E+01  0.7546771E-02  0.2609539E+00
         21   -1    0    0  501  502  0.00000000000E+00  0.00000000000E+00  0.20455010862E+03  0.20455010862E+03  0.00000000000E+00 0. -1.
         21   -1    0    0  502  503 -0.00000000000E+00 -0.00000000000E+00 -0.68304036257E+00  0.68304036257E+00  0.00000000000E+00 0. -1.
          5    1    1    2  501    0 -0.11463310849E+00  0.80939682453E+00  0.19582127991E+03  0.19587938108E+03  0.47000000000E+01 0. -1.
         -5    1    1    2    0  503  0.11463310849E+00 -0.80939682453E+00  0.80457883458E+01  0.93537679079E+01  0.47000000000E+01 0. -1.
<mgrwt>
<rscale>  2 0.47705622E+01</rscale>
<asrwt>0</asrwt>
<pdfrwt beam="1">  1       21 0.31469199E-01 0.47705622E+01</pdfrwt>
<pdfrwt beam="2">  1       21 0.10508330E-03 0.47705622E+01</pdfrwt>
<totfact> 0.32254797E+08</totfact>
</mgrwt>
</event>
<event>
 4    1  0.3900819E+006  0.5413247E+01  0.7546771E-02  0.2498682E+00
         21   -1    0    0  503  502  0.00000000000E+00  0.00000000000E+00  0.67229984127E-01  0.67229984127E-01  0.00000000000E+00 0. -1.
         21   -1    0    0  501  503 -0.00000000000E+00 -0.00000000000E+00 -0.43964556624E+03  0.43964556624E+03  0.00000000000E+00 0. -1.
          5    1    1    2  501    0 -0.22247943116E+01 -0.15045037884E+01 -0.24017499330E+03  0.24023598949E+03  0.47000000000E+01 0. -1.
         -5    1    1    2    0  502  0.22247943116E+01  0.15045037884E+01 -0.19940334296E+03  0.19947680674E+03  0.47000000000E+01 0. -1.
<mgrwt>
<rscale>  2 0.54132468E+01</rscale>
<asrwt>0</asrwt>
<pdfrwt beam="1">  1       21 0.10343699E-04 0.54132468E+01</pdfrwt>
<pdfrwt beam="2">  1       21 0.67633693E-01 0.54132468E+01</pdfrwt>
<totfact> 0.20100116E+09</totfact>
</mgrwt>
</event>
<event>
 4    1  0.3900819E+006  0.5747906E+01  0.7546771E-02  0.2449436E+00
         21   -1    0    0  501  502  0.00000000000E+00  0.00000000000E+00  0.63017447478E+01  0.63017447478E+01  0.00000000000E+00 0.  1.
         21   -1    0    0  502  503 -0.00000000000E+00 -0.00000000000E+00 -0.52902617640E+01  0.52902617640E+01  0.00000000000E+00 0.  1.
          5    1    1    2  501    0  0.25479322686E+01 -0.21110352318E+01  0.10550575503E+01  0.58439348926E+01  0.47000000000E+01 0.  1.
         -5    1    1    2    0  503 -0.25479322686E+01  0.21110352318E+01 -0.43574566444E-01  0.57480716191E+01  0.47000000000E+01 0.  1.
<mgrwt>
<rscale>  2 0.57479065E+01</rscale>
<asrwt>0</asrwt>
<pdfrwt beam="1">  1       21 0.96949920E-03 0.57479065E+01</pdfrwt>
<pdfrwt beam="2">  1       21 0.81388642E-03 0.57479065E+01</pdfrwt>
<totfact> 0.42349553E+09</totfact>
</mgrwt>
</event>
<event>
 4    1  0.3900819E+006  0.5578331E+01  0.7546771E-02  0.2473764E+00
         21   -1    0    0  503  502  0.00000000000E+00  0.00000000000E+00  0.23086305848E+00  0.23086305848E+00  0.00000000000E+00 0. -1.
         21   -1    0    0  501  503 -0.00000000000E+00 -0.00000000000E+00 -0.73543962450E+03  0.73543962450E+03  0.00000000000E+00 0. -1.
          5    1    1    2  501    0  0.54204179799E+00 -0.29553291399E+01 -0.70002719762E+03  0.70004942339E+03  0.47000000000E+01 0. -1.
         -5    1    1    2    0  502 -0.54204179799E+00  0.29553291399E+01 -0.35181563823E+02  0.35621064171E+02  0.47000000000E+01 0. -1.
<mgrwt>
<rscale>  2 0.55783313E+01</rscale>
<asrwt>0</asrwt>
<pdfrwt beam="1">  1       21 0.35517214E-04 0.55783313E+01</pdfrwt>
<pdfrwt beam="2">  1       21 0.11314513E+00 0.55783313E+01</pdfrwt>
<totfact> 0.14522008E+08</totfact>
</mgrwt>
</event>
<event>
 4    1  0.3900819E+006  0.5918214E+01  0.7546771E-02  0.2426191E+00
         21   -1    0    0  501  502  0.00000000000E+00  0.00000000000E+00  0.64555379017E+00  0.64555379017E+00  0.00000000000E+00 0. -1.
         21   -1    0    0  502  503 -0.00000000000E+00 -0.00000000000E+00 -0.76783185645E+02  0.76783185645E+02  0.00000000000E+00 0. -1.
          5    1    1    2  501    0 -0.34315268403E+01  0.10769769491E+01 -0.17099161931E+02  0.18094380193E+02  0.47000000000E+01 0. -1.
         -5    1    1    2    0  503  0.34315268403E+01 -0.10769769491E+01 -0.59038469923E+02  0.59334359242E+02  0.47000000000E+01 0. -1.
<mgrwt>
<rscale>  2 0.59182139E+01</rscale>
<asrwt>0</asrwt>
<pdfrwt beam="1">  1       21 0.99316002E-04 0.59182139E+01</pdfrwt>
<pdfrwt beam="2">  1       21 0.11812794E-01 0.59182139E+01</pdfrwt>
<totfact> 0.19955034E+09</totfact>
</mgrwt>
</event>
<event>
 4    1  0.3900819E+006  0.5510845E+01  0.7546771E-02  0.2483797E+00
         21   -1    0    0  501  502  0.00000000000E+00  0.00000000000E+00  0.99805886425E+00  0.99805886425E+00  0.00000000000E+00 0.  1.
         21   -1    0    0  502  503 -0.00000000000E+00 -0.00000000000E+00 -0.10980897954E+03  0.10980897954E+03  0.00000000000E+00 0.  1.
          5    1    1    2  501    0  0.54849014390E+00  0.28246365090E+01 -0.72995564741E+01  0.91461979841E+01  0.47000000000E+01 0.  1.
         -5    1    1    2    0  503 -0.54849014390E+00 -0.28246365090E+01 -0.10151136420E+03  0.10166084042E+03  0.47000000000E+01 0.  1.
<mgrwt>
<rscale>  2 0.55108450E+01</rscale>
<asrwt>0</asrwt>
<pdfrwt beam="1">  1       21 0.15354748E-03 0.55108450E+01</pdfrwt>
<pdfrwt beam="2">  1       21 0.16893693E-01 0.55108450E+01</pdfrwt>
<totfact> 0.59895141E+08</totfact>
</mgrwt>
</event>
<event>
 4    1  0.3900819E+006  0.7016529E+01  0.7546771E-02  0.2299331E+00
         21   -1    0    0  503  502  0.00000000000E+00  0.00000000000E+00  0.32799498879E+01  0.32799498879E+01  0.00000000000E+00 0.  1.
         21   -1    0    0  501  503 -0.00000000000E+00 -0.00000000000E+00 -0.29126047717E+02  0.29126047717E+02  0.00000000000E+00 0.  1.
          5    1    1    2  501    0 -0.51803341636E+01  0.55300944491E+00 -0.24203147584E+02  0.25199683221E+02  0.47000000000E+01 0.  1.
         -5    1    1    2    0  502  0.51803341636E+01 -0.55300944491E+00 -0.16429502458E+01  0.72063143841E+01  0.47000000000E+01 0.  1.
<mgrwt>
<rscale>  2 0.70165292E+01</rscale>
<asrwt>0</asrwt>
<pdfrwt beam="1">  1       21 0.50460769E-03 0.70165292E+01</pdfrwt>
<pdfrwt beam="2">  1       21 0.44809303E-02 0.70165292E+01</pdfrwt>
<totfact> 0.10695404E+09</totfact>
</mgrwt>
</event>
<event>
 4    1  0.3900819E+006  0.4763052E+01  0.7546771E-02  0.2610986E+00
         21   -1    0    0  501  502  0.00000000000E+00  0.00000000000E+00  0.30408927984E+00  0.30408927984E+00  0.00000000000E+00 0. -1.
         21   -1    0    0  502  503 -0.00000000000E+00 -0.00000000000E+00 -0.81116965075E+02  0.81116965075E+02  0.00000000000E+00 0. -1.
          5    1    1    2  501    0  0.71984990082E+00 -0.28014771885E+00 -0.28871971960E+02  0.29262218499E+02  0.47000000000E+01 0. -1.
         -5    1    1    2    0  503 -0.71984990082E+00  0.28014771885E+00 -0.51940903835E+02  0.52158835856E+02  0.47000000000E+01 0. -1.
<mgrwt>
<rscale>  2 0.47630522E+01</rscale>
<asrwt>0</asrwt>
<pdfrwt beam="1">  1       21 0.46782952E-04 0.47630522E+01</pdfrwt>
<pdfrwt beam="2">  1       21 0.12479537E-01 0.47630522E+01</pdfrwt>
<totfact> 0.40746881E+09</totfact>
</mgrwt>
</event>
<event>
 4    1  0.3900819E+006  0.5559137E+01  0.7546771E-02  0.2476597E+00
         21   -1    0    0  501  502  0.00000000000E+00  0.00000000000E+00  0.52506544734E+01  0.52506544734E+01  0.00000000000E+00 0. -1.
         21   -1    0    0  502  503 -0.00000000000E+00 -0.00000000000E+00 -0.29270406819E+02  0.29270406819E+02  0.00000000000E+00 0. -1.
          5    1    1    2  501    0  0.87560763455E+00  0.28367792579E+01  0.34179708884E+01  0.65258356002E+01  0.47000000000E+01 0. -1.
         -5    1    1    2    0  503 -0.87560763455E+00 -0.28367792579E+01 -0.27437723234E+02  0.27995225692E+02  0.47000000000E+01 0. -1.
<mgrwt>
<rscale>  2 0.55591371E+01</rscale>
<asrwt>0</asrwt>
<pdfrwt beam="1">  1       21 0.80779301E-03 0.55591371E+01</pdfrwt>
<pdfrwt beam="2">  1       21 0.45031394E-02 0.55591371E+01</pdfrwt>
<totfact> 0.45981109E+08</totfact>
</mgrwt>
</event>
<event>
 4    1  0.3900819E+006  0.8172891E+01  0.7546771E-02  0.2196824E+00
         21   -1    0    0  501  502  0.00000000000E+00  0.00000000000E+00  0.22780957090E+00  0.22780957090E+00  0.00000000000E+00 0. -1.
         21   -1    0    0  502  503 -0.00000000000E+00 -0.00000000000E+00 -0.29354413393E+03  0.29354413393E+03  0.00000000000E+00 0.  1.
          5    1    1    2  501    0 -0.65974609295E+01  0.10861181232E+01 -0.15161062551E+03  0.15183075416E+03  0.47000000000E+01 0.  1.
         -5    1    1    2    0  503  0.65974609295E+01 -0.10861181232E+01 -0.14170569885E+03  0.14194118934E+03  0.47000000000E+01 0. -1.
<mgrwt>
<rscale>  2 0.81728908E+01</rscale>
<asrwt>0</asrwt>
<pdfrwt beam="1">  1       21 0.35047677E-04 0.81728908E+01</pdfrwt>
<pdfrwt beam="2">  1       21 0.45160571E-01 0.81728908E+01</pdfrwt>
<totfact> 0.10991297E+09</totfact>
</mgrwt>
</event>
<event>
 4    1  0.3900819E+006  0.5503581E+01  0.7546771E-02  0.2484890E+00
         21   -1    0    0  503  502  0.00000000000E+00  0.00000000000E+00  0.24250323498E+00  0.24250323498E+00  0.00000000000E+00 0. -1.
         21   -1    0    0  501  503 -0.00000000000E+00 -0.00000000000E+00 -0.38354528084E+03  0.38354528084E+03  0.00000000000E+00 0. -1.
          5    1    1    2  501    0  0.28482300325E+01 -0.29493885306E+00 -0.34923190373E+03  0.34927526678E+03  0.47000000000E+01 0. -1.
         -5    1    1    2    0  502 -0.28482300325E+01  0.29493885306E+00 -0.34070873879E+02  0.34512517296E+02  0.47000000000E+01 0. -1.
<mgrwt>
<rscale>  2 0.55035809E+01</rscale>
<asrwt>0</asrwt>
<pdfrwt beam="1">  1       21 0.37308260E-04 0.55035809E+01</pdfrwt>
<pdfrwt beam="2">  1       21 0.59006856E-01 0.55035809E+01</pdfrwt>
<totfact> 0.47726069E+08</totfact>
</mgrwt>
</event>
<event>
 4    1  0.3900819E+006  0.5821711E+01  0.7546771E-02  0.2439222E+00
         21   -1    0    0  501  502  0.00000000000E+00  0.00000000000E+00  0.11678209633E+02  0.11678209633E+02  0.00000000000E+00 0.  1.
         21   -1    0    0  502  503 -0.00000000000E+00 -0.00000000000E+00 -0.43370146542E+01  0.43370146542E+01  0.00000000000E+00 0.  1.
          5    1    1    2  501    0  0.77775540942E+00 -0.33462531797E+01 -0.93523245786E+00  0.58963525649E+01  0.47000000000E+01 0.  1.
         -5    1    1    2    0  503 -0.77775540942E+00  0.33462531797E+01  0.82764274369E+01  0.10118871723E+02  0.47000000000E+01 0.  1.
<mgrwt>
<rscale>  2 0.58217106E+01</rscale>
<asrwt>0</asrwt>
<pdfrwt beam="1">  1       21 0.17966476E-02 0.58217106E+01</pdfrwt>
<pdfrwt beam="2">  1       21 0.66723303E-03 0.58217106E+01</pdfrwt>
<totfact> 0.23592729E+09</totfact>
</mgrwt>
</event>
<event>
 4    1  0.3900819E+006  0.7469226E+01  0.7546771E-02  0.2256137E+00
         21   -1    0    0  503  502  0.00000000000E+00  0.00000000000E+00  0.13561104190E+01  0.13561104190E+01  0.00000000000E+00 0. -1.
         21   -1    0    0  501  503 -0.00000000000E+00 -0.00000000000E+00 -0.56963819521E+02  0.56963819521E+02  0.00000000000E+00 0. -1.
          5    1    1    2  501    0 -0.58023959382E+01  0.17757862741E+00 -0.43173141918E+02  0.43814489793E+02  0.47000000000E+01 0. -1.
         -5    1    1    2    0  502  0.58023959382E+01 -0.17757862741E+00 -0.12434567184E+02  0.14505440147E+02  0.47000000000E+01 0. -1.
<mgrwt>
<rscale>  2 0.74692257E+01</rscale>
<asrwt>0</asrwt>
<pdfrwt beam="1">  1       21 0.20863233E-03 0.74692257E+01</pdfrwt>
<pdfrwt beam="2">  1       21 0.87636663E-02 0.74692257E+01</pdfrwt>
<totfact> 0.13800030E+09</totfact>
</mgrwt>
</event>
<event>
 4    1  0.3900819E+006  0.4790581E+01  0.7546771E-02  0.2605701E+00
         21   -1    0    0  503  502  0.00000000000E+00  0.00000000000E+00  0.28493297495E+02  0.28493297495E+02  0.00000000000E+00 0. -1.
         21   -1    0    0  501  503 -0.00000000000E+00 -0.00000000000E+00 -0.24422661863E+01  0.24422661863E+01  0.00000000000E+00 0. -1.
          5    1    1    2  501    0 -0.12534949442E-01  0.92709884894E+00  0.36262979528E+00  0.48042866036E+01  0.47000000000E+01 0. -1.
         -5    1    1    2    0  502  0.12534949442E-01 -0.92709884894E+00  0.25688401514E+02  0.26131277078E+02  0.47000000000E+01 0. -1.
<mgrwt>
<rscale>  2 0.47905813E+01</rscale>
<asrwt>0</asrwt>
<pdfrwt beam="1">  1       21 0.43835840E-02 0.47905813E+01</pdfrwt>
<pdfrwt beam="2">  1       21 0.37573328E-03 0.47905813E+01</pdfrwt>
<totfact> 0.12018831E+09</totfact>
</mgrwt>
</event>
<event>
 4    1  0.3900819E+006  0.9947211E+01  0.7546771E-02  0.2078004E+00
         21   -1    0    0  501  502  0.00000000000E+00  0.00000000000E+00  0.40996037033E+02  0.40996037033E+02  0.00000000000E+00 0. -1.
         21   -1    0    0  502  503 -0.00000000000E+00 -0.00000000000E+00 -0.76313400135E+01  0.76313400135E+01  0.00000000000E+00 0.  1.
          5    1    1    2  501    0 -0.79158055248E+01  0.37678950547E+01  0.36786822039E+02  0.38107968799E+02  0.47000000000E+01 0. -1.
         -5    1    1    2    0  503  0.79158055248E+01 -0.37678950547E+01 -0.34221250188E+01  0.10519408248E+02  0.47000000000E+01 0.  1.
<mgrwt>
<rscale>  2 0.99472112E+01</rscale>
<asrwt>0</asrwt>
<pdfrwt beam="1">  1       21 0.63070825E-02 0.99472112E+01</pdfrwt>
<pdfrwt beam="2">  1       21 0.11740523E-02 0.99472112E+01</pdfrwt>
<totfact> 0.23595189E+08</totfact>
</mgrwt>
</event>
<event>
 4    1  0.3900819E+006  0.1547234E+02  0.7546771E-02  0.1853988E+00
         21   -1    0    0  503  502  0.00000000000E+00  0.00000000000E+00  0.35531718137E+02  0.35531718137E+02  0.00000000000E+00 0. -1.
         21   -1    0    0  501  503 -0.00000000000E+00 -0.00000000000E+00 -0.10790444191E+02  0.10790444191E+02  0.00000000000E+00 0.  1.
          5    1    1    2  501    0  0.78738184164E+01  0.12462199224E+02 -0.18240813305E+01  0.15579496098E+02  0.47000000000E+01 0.  1.
         -5    1    1    2    0  502 -0.78738184164E+01 -0.12462199224E+02  0.26565355277E+02  0.30742666230E+02  0.47000000000E+01 0. -1.
<mgrwt>
<rscale>  2 0.15472344E+02</rscale>
<asrwt>0</asrwt>
<pdfrwt beam="1">  1       21 0.54664181E-02 0.15472344E+02</pdfrwt>
<pdfrwt beam="2">  1       21 0.16600684E-02 0.15472344E+02</pdfrwt>
<totfact> 0.21510325E+08</totfact>
</mgrwt>
</event>
<event>
 4    1  0.3900819E+006  0.6740963E+01  0.7546771E-02  0.2327929E+00
         21   -1    0    0  501  502  0.00000000000E+00  0.00000000000E+00  0.87863704528E+01  0.87863704528E+01  0.00000000000E+00 0.  1.
         21   -1    0    0  502  503 -0.00000000000E+00 -0.00000000000E+00 -0.82153211509E+01  0.82153211509E+01  0.00000000000E+00 0. -1.
          5    1    1    2  501    0  0.23977931306E+01 -0.41953750889E+01  0.54597370627E+01  0.86746361784E+01  0.47000000000E+01 0.  1.
         -5    1    1    2    0  503 -0.23977931306E+01  0.41953750889E+01 -0.48886877608E+01  0.83270554253E+01  0.47000000000E+01 0. -1.
<mgrwt>
<rscale>  2 0.67409631E+01</rscale>
<asrwt>0</asrwt>
<pdfrwt beam="1">  1       21 0.13517493E-02 0.67409631E+01</pdfrwt>
<pdfrwt beam="2">  1       21 0.12638956E-02 0.67409631E+01</pdfrwt>
<totfact> 0.16262892E+09</totfact>
</mgrwt>
</event>
<event>
 4    1  0.3900819E+006  0.6980353E+01  0.7546771E-02  0.2302979E+00
         21   -1    0    0  501  502  0.00000000000E+00  0.00000000000E+00  0.38068883955E+01  0.38068883955E+01  0.00000000000E+00 0.  1.
         21   -1    0    0  502  503 -0.00000000000E+00 -0.00000000000E+00 -0.30657433597E+02  0.30657433597E+02  0.00000000000E+00 0. -1.
          5    1    1    2  501    0 -0.35884468147E+00  0.51484523738E+01 -0.27331382093E+00  0.69857019543E+01  0.47000000000E+01 0.  1.
         -5    1    1    2    0  503  0.35884468147E+00 -0.51484523738E+01 -0.26577231381E+02  0.27478620038E+02  0.47000000000E+01 0. -1.
<mgrwt>
<rscale>  2 0.69803532E+01</rscale>
<asrwt>0</asrwt>
<pdfrwt beam="1">  1       21 0.58567513E-03 0.69803532E+01</pdfrwt>
<pdfrwt beam="2">  1       21 0.47165283E-02 0.69803532E+01</pdfrwt>
<totfact> 0.80077999E+08</totfact>
</mgrwt>
</event>
<event>
 4    1  0.3900819E+006  0.5200984E+01  0.7546771E-02  0.2532689E+00
         21   -1    0    0  503  502  0.00000000000E+00  0.00000000000E+00  0.24593551761E-01  0.24593551761E-01  0.00000000000E+00 0. -1.
         21   -1    0    0  501  503 -0.00000000000E+00 -0.00000000000E+00 -0.17861788109E+04  0.17861788109E+04  0.00000000000E+00 0. -1.
          5    1    1    2  501    0  0.18554916808E+01 -0.12318213965E+01 -0.14466712713E+04  0.14466806204E+04  0.47000000000E+01 0. -1.
         -5    1    1    2    0  502 -0.18554916808E+01  0.12318213965E+01 -0.33948294601E+03  0.33952278402E+03  0.47000000000E+01 0. -1.
<mgrwt>
<rscale>  2 0.52009839E+01</rscale>
<asrwt>0</asrwt>
<pdfrwt beam="1">  1       21 0.37829264E-05 0.52009839E+01</pdfrwt>
<pdfrwt beam="2">  1       21 0.27484736E+00 0.52009839E+01</pdfrwt>
<totfact> 0.39949712E+08</totfact>
</mgrwt>
</event>
<event>
 4    1  0.3900819E+006  0.6167255E+01  0.7546771E-02  0.2394150E+00
         21   -1    0    0  501  502  0.00000000000E+00  0.00000000000E+00  0.28116762720E+02  0.28116762720E+02  0.00000000000E+00 0.  1.
         21   -1    0    0  502  503 -0.00000000000E+00 -0.00000000000E+00 -0.22221349458E+01  0.22221349458E+01  0.00000000000E+00 0.  1.
          5    1    1    2  501    0 -0.14726697115E+01  0.37116414437E+01  0.22435645773E+02  0.23267858508E+02  0.47000000000E+01 0.  1.
         -5    1    1    2    0  503  0.14726697115E+01 -0.37116414437E+01  0.34589820005E+01  0.70710391574E+01  0.47000000000E+01 0.  1.
<mgrwt>
<rscale>  2 0.61672553E+01</rscale>
<asrwt>0</asrwt>
<pdfrwt beam="1">  1       21 0.43256556E-02 0.61672553E+01</pdfrwt>
<pdfrwt beam="2">  1       21 0.34186693E-03 0.61672553E+01</pdfrwt>
<totfact> 0.17520071E+09</totfact>
</mgrwt>
</event>
<event>
 4    1  0.3900819E+006  0.4928774E+01  0.7546771E-02  0.2579946E+00
         21   -1    0    0  501  502  0.00000000000E+00  0.00000000000E+00  0.59565894324E+00  0.59565894324E+00  0.00000000000E+00 0. -1.
         21   -1    0    0  502  503 -0.00000000000E+00 -0.00000000000E+00 -0.51578598131E+02  0.51578598131E+02  0.00000000000E+00 0. -1.
          5    1    1    2  501    0 -0.53891428182E+00  0.13828899789E+01 -0.13556727968E+02  0.14424898145E+02  0.47000000000E+01 0. -1.
         -5    1    1    2    0  503  0.53891428182E+00 -0.13828899789E+01 -0.37426211220E+02  0.37749358929E+02  0.47000000000E+01 0. -1.
<mgrwt>
<rscale>  2 0.49287740E+01</rscale>
<asrwt>0</asrwt>
<pdfrwt beam="1">  1       21 0.91639825E-04 0.49287740E+01</pdfrwt>
<pdfrwt beam="2">  1       21 0.79351700E-02 0.49287740E+01</pdfrwt>
<totfact> 0.34334447E+09</totfact>
</mgrwt>
</event>
<event>
 4    1  0.3900819E+006  0.5306510E+01  0.7546771E-02  0.2515492E+00
         21   -1    0    0  503  502  0.00000000000E+00  0.00000000000E+00  0.84404081327E-01  0.84404081327E-01  0.00000000000E+00 0.  1.
         21   -1    0    0  501  503 -0.00000000000E+00 -0.00000000000E+00 -0.34877994714E+03  0.34877994714E+03  0.00000000000E+00 0.  1.
          5    1    1    2  501    0  0.75905282619E+00 -0.23436899895E+01 -0.21071192587E+03  0.21077873409E+03  0.47000000000E+01 0.  1.
         -5    1    1    2    0  502 -0.75905282619E+00  0.23436899895E+01 -0.13798361720E+03  0.13808561713E+03  0.47000000000E+01 0.  1.
<mgrwt>
<rscale>  2 0.53065096E+01</rscale>
<asrwt>0</asrwt>
<pdfrwt beam="1">  1       21 0.12985218E-04 0.53065096E+01</pdfrwt>
<pdfrwt beam="2">  1       21 0.53658560E-01 0.53065096E+01</pdfrwt>
<totfact> 0.22387498E+09</totfact>
</mgrwt>
</event>
<event>
 4    1  0.3900819E+006  0.5168389E+01  0.7546771E-02  0.2538122E+00
         21   -1    0    0  503  502  0.00000000000E+00  0.00000000000E+00  0.45806348305E+02  0.45806348305E+02  0.00000000000E+00 0. -1.
         21   -1    0    0  501  503 -0.00000000000E+00 -0.00000000000E+00 -0.19008603156E+01  0.19008603156E+01  0.00000000000E+00 0. -1.
          5    1    1    2  501    0 -0.16727892658E+01  0.13505623772E+01  0.20923477984E+01  0.55758552682E+01  0.47000000000E+01 0. -1.
         -5    1    1    2    0  502  0.16727892658E+01 -0.13505623772E+01  0.41813140191E+02  0.42131353352E+02  0.47000000000E+01 0. -1.
<mgrwt>
<rscale>  2 0.51683888E+01</rscale>
<asrwt>0</asrwt>
<pdfrwt beam="1">  1       21 0.70471297E-02 0.51683888E+01</pdfrwt>
<pdfrwt beam="2">  1       21 0.29244008E-03 0.51683888E+01</pdfrwt>
<totfact> 0.90434106E+08</totfact>
</mgrwt>
</event>
<event>
 4    1  0.3900819E+006  0.9200735E+01  0.7546771E-02  0.2123548E+00
         21   -1    0    0  503  502  0.00000000000E+00  0.00000000000E+00  0.69187756368E+01  0.69187756368E+01  0.00000000000E+00 0.  1.
         21   -1    0    0  501  503 -0.00000000000E+00 -0.00000000000E+00 -0.28308578323E+02  0.28308578323E+02  0.00000000000E+00 0. -1.
          5    1    1    2  501    0 -0.59899920040E+01 -0.51656095116E+01 -0.23967097160E+02  0.25672461357E+02  0.47000000000E+01 0. -1.
         -5    1    1    2    0  502  0.59899920040E+01  0.51656095116E+01  0.25772944746E+01  0.95548926024E+01  0.47000000000E+01 0.  1.
<mgrwt>
<rscale>  2 0.92007351E+01</rscale>
<asrwt>0</asrwt>
<pdfrwt beam="1">  1       21 0.10644270E-02 0.92007351E+01</pdfrwt>
<pdfrwt beam="2">  1       21 0.43551659E-02 0.92007351E+01</pdfrwt>
<totfact> 0.45971944E+08</totfact>
</mgrwt>
</event>
<event>
 4    1  0.3900819E+006  0.6473925E+01  0.7546771E-02  0.2357541E+00
         21   -1    0    0  503  502  0.00000000000E+00  0.00000000000E+00  0.35048048532E+00  0.35048048532E+00  0.00000000000E+00 0. -1.
         21   -1    0    0  501  503 -0.00000000000E+00 -0.00000000000E+00 -0.11958469997E+03  0.11958469997E+03  0.00000000000E+00 0. -1.
          5    1    1    2  501    0 -0.42985714501E+01  0.11593059370E+01 -0.59801652182E+02  0.60151054110E+02  0.47000000000E+01 0. -1.
         -5    1    1    2    0  502  0.42985714501E+01 -0.11593059370E+01 -0.59432567306E+02  0.59784126350E+02  0.47000000000E+01 0. -1.
<mgrwt>
<rscale>  2 0.64739251E+01</rscale>
<asrwt>0</asrwt>
<pdfrwt beam="1">  1       21 0.53920085E-04 0.64739251E+01</pdfrwt>
<pdfrwt beam="2">  1       21 0.18397643E-01 0.64739251E+01</pdfrwt>
<totfact> 0.24195799E+09</totfact>
</mgrwt>
</event>
<event>
 4    1  0.3900819E+006  0.6314383E+01  0.7546771E-02  0.2376218E+00
         21   -1    0    0  501  502  0.00000000000E+00  0.00000000000E+00  0.12178736760E+00  0.12178736760E+00  0.00000000000E+00 0.  1.
         21   -1    0    0  502  503 -0.00000000000E+00 -0.00000000000E+00 -0.44825630975E+03  0.44825630975E+03  0.00000000000E+00 0.  1.
          5    1    1    2  501    0  0.35505943392E+01  0.22748007418E+01 -0.10765154780E+03  0.10783657628E+03  0.47000000000E+01 0.  1.
         -5    1    1    2    0  503 -0.35505943392E+01 -0.22748007418E+01 -0.34048297458E+03  0.34054152084E+03  0.47000000000E+01 0.  1.
<mgrwt>
<rscale>  2 0.63143835E+01</rscale>
<asrwt>0</asrwt>
<pdfrwt beam="1">  1       21 0.18736517E-04 0.63143835E+01</pdfrwt>
<pdfrwt beam="2">  1       21 0.68962515E-01 0.63143835E+01</pdfrwt>
<totfact> 0.98468312E+08</totfact>
</mgrwt>
</event>
<event>
 4    1  0.3900819E+006  0.9675450E+01  0.7546771E-02  0.2093943E+00
         21   -1    0    0  503  502  0.00000000000E+00  0.00000000000E+00  0.44676702700E+01  0.44676702700E+01  0.00000000000E+00 0. -1.
         21   -1    0    0  501  503 -0.00000000000E+00 -0.00000000000E+00 -0.45541872980E+02  0.45541872980E+02  0.00000000000E+00 0.  1.
          5    1    1    2  501    0 -0.69831485676E+01 -0.47707403468E+01 -0.38910113884E+02  0.40095028243E+02  0.47000000000E+01 0.  1.
         -5    1    1    2    0  502  0.69831485676E+01  0.47707403468E+01 -0.21640888264E+01  0.99145150069E+01  0.47000000000E+01 0. -1.
<mgrwt>
<rscale>  2 0.96754497E+01</rscale>
<asrwt>0</asrwt>
<pdfrwt beam="1">  1       21 0.68733384E-03 0.96754497E+01</pdfrwt>
<pdfrwt beam="2">  1       21 0.70064425E-02 0.96754497E+01</pdfrwt>
<totfact> 0.42854590E+08</totfact>
</mgrwt>
</event>
<event>
 4    1  0.3900819E+006  0.7746310E+01  0.7546771E-02  0.2231743E+00
         21   -1    0    0  503  502  0.00000000000E+00  0.00000000000E+00  0.17457849550E+02  0.17457849550E+02  0.00000000000E+00 0. -1.
         21   -1    0    0  501  503 -0.00000000000E+00 -0.00000000000E+00 -0.34379157604E+01  0.34379157604E+01  0.00000000000E+00 0.  1.
          5    1    1    2  501    0 -0.60760891318E+01  0.99822664385E+00  0.71654989710E+01  0.10552236307E+02  0.47000000000E+01 0.  1.
         -5    1    1    2    0  502  0.60760891318E+01 -0.99822664385E+00  0.68544348190E+01  0.10343529004E+02  0.47000000000E+01 0. -1.
<mgrwt>
<rscale>  2 0.77463098E+01</rscale>
<asrwt>0</asrwt>
<pdfrwt beam="1">  1       21 0.26858230E-02 0.77463098E+01</pdfrwt>
<pdfrwt beam="2">  1       21 0.52891013E-03 0.77463098E+01</pdfrwt>
<totfact> 0.22982573E+09</totfact>
</mgrwt>
</event>
<event>
 4    1  0.3900819E+006  0.5263660E+01  0.7546771E-02  0.2522404E+00
         21   -1    0    0  503  502  0.00000000000E+00  0.00000000000E+00  0.45836567086E+01  0.45836567086E+01  0.00000000000E+00 0.  1.
         21   -1    0    0  501  503 -0.00000000000E+00 -0.00000000000E+00 -0.72412800667E+01  0.72412800667E+01  0.00000000000E+00 0.  1.
          5    1    1    2  501    0  0.66145748538E+00 -0.22756510117E+01 -0.37324017079E+01  0.64526689084E+01  0.47000000000E+01 0.  1.
         -5    1    1    2    0  502 -0.66145748538E+00  0.22756510117E+01  0.10747783498E+01  0.53722678668E+01  0.47000000000E+01 0.  1.
<mgrwt>
<rscale>  2 0.52636597E+01</rscale>
<asrwt>0</asrwt>
<pdfrwt beam="1">  1       21 0.70517796E-03 0.52636597E+01</pdfrwt>
<pdfrwt beam="2">  1       21 0.11140431E-02 0.52636597E+01</pdfrwt>
<totfact> 0.39076971E+09</totfact>
</mgrwt>
</event>
<event>
 4    1  0.3900819E+006  0.7763792E+01  0.7546771E-02  0.2230251E+00
         21   -1    0    0  501  502  0.00000000000E+00  0.00000000000E+00  0.70686542681E+02  0.70686542681E+02  0.00000000000E+00 0.  1.
         21   -1    0    0  502  503 -0.00000000000E+00 -0.00000000000E+00 -0.10093005500E+01  0.10093005500E+01  0.00000000000E+00 0. -1.
          5    1    1    2  501    0 -0.60980992819E+01 -0.99982317724E+00  0.48957825378E+02  0.49569598818E+02  0.47000000000E+01 0.  1.
         -5    1    1    2    0  503  0.60980992819E+01  0.99982317724E+00  0.20719416754E+02  0.22126244414E+02  0.47000000000E+01 0. -1.
<mgrwt>
<rscale>  2 0.77637917E+01</rscale>
<asrwt>0</asrwt>
<pdfrwt beam="1">  1       21 0.10874849E-01 0.77637917E+01</pdfrwt>
<pdfrwt beam="2">  1       21 0.15527706E-03 0.77637917E+01</pdfrwt>
<totfact> 0.15206212E+09</totfact>
</mgrwt>
</event>
<event>
 4    1  0.3900819E+006  0.5755823E+01  0.7546771E-02  0.2448330E+00
         21   -1    0    0  501  502  0.00000000000E+00  0.00000000000E+00  0.42269902600E+03  0.42269902600E+03  0.00000000000E+00 0.  1.
         21   -1    0    0  502  503 -0.00000000000E+00 -0.00000000000E+00 -0.24699185051E+00  0.24699185051E+00  0.00000000000E+00 0.  1.
          5    1    1    2  501    0 -0.32587759901E+01 -0.64797539070E+00  0.38595410614E+03  0.38599702271E+03  0.47000000000E+01 0.  1.
         -5    1    1    2    0  503  0.32587759901E+01  0.64797539070E+00  0.36497928009E+02  0.36948995142E+02  0.47000000000E+01 0.  1.
<mgrwt>
<rscale>  2 0.57558225E+01</rscale>
<asrwt>0</asrwt>
<pdfrwt beam="1">  1       21 0.65030040E-01 0.57558225E+01</pdfrwt>
<pdfrwt beam="2">  1       21 0.37999085E-04 0.57558225E+01</pdfrwt>
<totfact> 0.40163423E+08</totfact>
</mgrwt>
</event>
<event>
 4    1  0.3900819E+006  0.5384560E+01  0.7546771E-02  0.2503144E+00
         21   -1    0    0  503  502  0.00000000000E+00  0.00000000000E+00  0.17640635641E+03  0.17640635641E+03  0.00000000000E+00 0. -1.
         21   -1    0    0  501  503 -0.00000000000E+00 -0.00000000000E+00 -0.16525726748E+00  0.16525726748E+00  0.00000000000E+00 0. -1.
          5    1    1    2  501    0 -0.60928525354E+00 -0.25558287678E+01  0.94639452141E+02  0.94792507039E+02  0.47000000000E+01 0. -1.
         -5    1    1    2    0  502  0.60928525354E+00  0.25558287678E+01  0.81601647005E+02  0.81779106642E+02  0.47000000000E+01 0. -1.
<mgrwt>
<rscale>  2 0.53845603E+01</rscale>
<asrwt>0</asrwt>
<pdfrwt beam="1">  1       21 0.27139289E-01 0.53845603E+01</pdfrwt>
<pdfrwt beam="2">  1       21 0.25424336E-04 0.53845603E+01</pdfrwt>
<totfact> 0.30055087E+09</totfact>
</mgrwt>
</event>
<event>
 4    1  0.3900819E+006  0.1829069E+02  0.7546771E-02  0.1781625E+00
         21   -1    0    0  503  502  0.00000000000E+00  0.00000000000E+00  0.28076645943E+01  0.28076645943E+01  0.00000000000E+00 0.  1.
         21   -1    0    0  501  503 -0.00000000000E+00 -0.00000000000E+00 -0.30280008797E+03  0.30280008797E+03  0.00000000000E+00 0. -1.
          5    1    1    2  501    0 -0.14389607760E+02  0.10266372356E+02 -0.26899573317E+03  0.26961686460E+03  0.47000000000E+01 0. -1.
         -5    1    1    2    0  502  0.14389607760E+02 -0.10266372356E+02 -0.30996690213E+02  0.35990887972E+02  0.47000000000E+01 0.  1.
<mgrwt>
<rscale>  2 0.18290687E+02</rscale>
<asrwt>0</asrwt>
<pdfrwt beam="1">  1       21 0.43194861E-03 0.18290687E+02</pdfrwt>
<pdfrwt beam="2">  1       21 0.46584606E-01 0.18290687E+02</pdfrwt>
<totfact> 0.43219939E+07</totfact>
</mgrwt>
</event>
<event>
 4    1  0.3900819E+006  0.4857782E+01  0.7546771E-02  0.2593019E+00
         21   -1    0    0  503  502  0.00000000000E+00  0.00000000000E+00  0.14659481839E+04  0.14659481839E+04  0.00000000000E+00 0.  1.
         21   -1    0    0  501  503 -0.00000000000E+00 -0.00000000000E+00 -0.16487574875E-01  0.16487574875E-01  0.00000000000E+00 0.  1.
          5    1    1    2  501    0  0.29370030845E+00  0.11923858514E+01  0.62021735365E+03  0.62023637737E+03  0.47000000000E+01 0.  1.
         -5    1    1    2    0  502 -0.29370030845E+00 -0.11923858514E+01  0.84571434272E+03  0.84572829415E+03  0.47000000000E+01 0.  1.
<mgrwt>
<rscale>  2 0.48577818E+01</rscale>
<asrwt>0</asrwt>
<pdfrwt beam="1">  1       21 0.22542614E+00 0.48577818E+01</pdfrwt>
<pdfrwt beam="2">  1       21 0.25377241E-05 0.48577818E+01</pdfrwt>
<totfact> 0.10461769E+09</totfact>
</mgrwt>
</event>
<event>
 4    1  0.3900819E+006  0.5176088E+01  0.7546771E-02  0.2536833E+00
         21   -1    0    0  503  502  0.00000000000E+00  0.00000000000E+00  0.27598749593E+01  0.27598749593E+01  0.00000000000E+00 0. -1.
         21   -1    0    0  501  503 -0.00000000000E+00 -0.00000000000E+00 -0.16186530917E+02  0.16186530917E+02  0.00000000000E+00 0. -1.
          5    1    1    2  501    0  0.21467541009E+01  0.30550959421E+00 -0.12706684062E+02  0.13720485019E+02  0.47000000000E+01 0. -1.
         -5    1    1    2    0  502 -0.21467541009E+01 -0.30550959421E+00 -0.71997189539E+00  0.52259208578E+01  0.47000000000E+01 0. -1.
<mgrwt>
<rscale>  2 0.51760882E+01</rscale>
<asrwt>0</asrwt>
<pdfrwt beam="1">  1       21 0.42459616E-03 0.51760882E+01</pdfrwt>
<pdfrwt beam="2">  1       21 0.24902354E-02 0.51760882E+01</pdfrwt>
<totfact> 0.24771746E+09</totfact>
</mgrwt>
</event>
<event>
 4    1  0.3900819E+006  0.5188784E+01  0.7546771E-02  0.2534715E+00
         21   -1    0    0  501  502  0.00000000000E+00  0.00000000000E+00  0.88007697136E+03  0.88007697136E+03  0.00000000000E+00 0. -1.
         21   -1    0    0  502  503 -0.00000000000E+00 -0.00000000000E+00 -0.42784532132E-01  0.42784532132E-01  0.00000000000E+00 0.  1.
          5    1    1    2  501    0 -0.18530558454E+01  0.11830718651E+01  0.67493281947E+03  0.67495276448E+03  0.47000000000E+01 0. -1.
         -5    1    1    2    0  503  0.18530558454E+01 -0.11830718651E+01  0.20510136735E+03  0.20516699141E+03  0.47000000000E+01 0.  1.
<mgrwt>
<rscale>  2 0.51887836E+01</rscale>
<asrwt>0</asrwt>
<pdfrwt beam="1">  1       21 0.13538196E+00 0.51887836E+01</pdfrwt>
<pdfrwt beam="2">  1       21 0.65829406E-05 0.51887836E+01</pdfrwt>
<totfact> 0.89385435E+08</totfact>
</mgrwt>
</event>
<event>
 4    1  0.3900819E+006  0.1219904E+02  0.7546771E-02  0.1967918E+00
         21   -1    0    0  503  502  0.00000000000E+00  0.00000000000E+00  0.10781895104E+01  0.10781895104E+01  0.00000000000E+00 0.  1.
         21   -1    0    0  501  503 -0.00000000000E+00 -0.00000000000E+00 -0.14034814577E+03  0.14034814577E+03  0.00000000000E+00 0. -1.
          5    1    1    2  501    0  0.90893781257E+01  0.66415176815E+01 -0.78733761455E+02  0.79673218491E+02  0.47000000000E+01 0.  1.
         -5    1    1    2    0  502 -0.90893781257E+01 -0.66415176815E+01 -0.60536194808E+02  0.61753116793E+02  0.47000000000E+01 0. -1.
<mgrwt>
<rscale>  2 0.12199039E+02</rscale>
<asrwt>0</asrwt>
<pdfrwt beam="1">  1       21 0.16587529E-03 0.12199039E+02</pdfrwt>
<pdfrwt beam="2">  1       21 0.21592025E-01 0.12199039E+02</pdfrwt>
<totfact> 0.58483872E+08</totfact>
</mgrwt>
</event>
<event>
 4    1  0.3900819E+006  0.5824245E+01  0.7546771E-02  0.2438875E+00
         21   -1    0    0  503  502  0.00000000000E+00  0.00000000000E+00  0.44867473653E+01  0.44867473653E+01  0.00000000000E+00 0. -1.
         21   -1    0    0  501  503 -0.00000000000E+00 -0.00000000000E+00 -0.82280552098E+01  0.82280552098E+01  0.00000000000E+00 0. -1.
          5    1    1    2  501    0 -0.31866140328E+01 -0.12951153926E+01 -0.36815378460E+01  0.68902506330E+01  0.47000000000E+01 0. -1.
         -5    1    1    2    0  502  0.31866140328E+01  0.12951153926E+01 -0.59769998487E-01  0.58245519422E+01  0.47000000000E+01 0. -1.
<mgrwt>
<rscale>  2 0.58242453E+01</rscale>
<asrwt>0</asrwt>
<pdfrwt beam="1">  1       21 0.69026884E-03 0.58242453E+01</pdfrwt>
<pdfrwt beam="2">  1       21 0.12658546E-02 0.58242453E+01</pdfrwt>
<totfact> 0.37044985E+09</totfact>
</mgrwt>
</event>
<event>
 4    1  0.3900819E+006  0.6060146E+01  0.7546771E-02  0.2407661E+00
         21   -1    0    0  503  502  0.00000000000E+00  0.00000000000E+00  0.10060751090E+02  0.10060751090E+02  0.00000000000E+00 0. -1.
         21   -1    0    0  501  503 -0.00000000000E+00 -0.00000000000E+00 -0.37697126743E+01  0.37697126743E+01  0.00000000000E+00 0. -1.
          5    1    1    2  501    0  0.37679200304E+01 -0.66192866103E+00  0.19150596807E+01  0.63555349490E+01  0.47000000000E+01 0. -1.
         -5    1    1    2    0  502 -0.37679200304E+01  0.66192866103E+00  0.43759787353E+01  0.74749288156E+01  0.47000000000E+01 0. -1.
<mgrwt>
<rscale>  2 0.60601461E+01</rscale>
<asrwt>0</asrwt>
<pdfrwt beam="1">  1       21 0.15478078E-02 0.60601461E+01</pdfrwt>
<pdfrwt beam="2">  1       21 0.57995580E-03 0.60601461E+01</pdfrwt>
<totfact> 0.36790142E+09</totfact>
</mgrwt>
</event>
<event>
 4    1  0.3900819E+006  0.6442188E+01  0.7546771E-02  0.2361195E+00
         21   -1    0    0  503  502  0.00000000000E+00  0.00000000000E+00  0.37364621099E+03  0.37364621099E+03  0.00000000000E+00 0. -1.
         21   -1    0    0  501  503 -0.00000000000E+00 -0.00000000000E+00 -0.11216693990E+00  0.11216693990E+00  0.00000000000E+00 0. -1.
          5    1    1    2  501    0  0.30371355013E+01 -0.31918015034E+01  0.16830665506E+03  0.16842990212E+03  0.47000000000E+01 0. -1.
         -5    1    1    2    0  502 -0.30371355013E+01  0.31918015034E+01  0.20522738899E+03  0.20532847581E+03  0.47000000000E+01 0. -1.
<mgrwt>
<rscale>  2 0.64421882E+01</rscale>
<asrwt>0</asrwt>
<pdfrwt beam="1">  1       21 0.57483036E-01 0.64421882E+01</pdfrwt>
<pdfrwt beam="2">  1       21 0.17256751E-04 0.64421882E+01</pdfrwt>
<totfact> 0.15681296E+09</totfact>
</mgrwt>
</event>
<event>
 4    1  0.3900819E+006  0.5596848E+01  0.7546771E-02  0.2471047E+00
         21   -1    0    0  503  502  0.00000000000E+00  0.00000000000E+00  0.74367761986E+02  0.74367761986E+02  0.00000000000E+00 0. -1.
         21   -1    0    0  501  503 -0.00000000000E+00 -0.00000000000E+00 -0.10180365521E+01  0.10180365521E+01  0.00000000000E+00 0. -1.
          5    1    1    2  501    0  0.40039088388E+00  0.30123740876E+01  0.78145769259E+01  0.96120925419E+01  0.47000000000E+01 0. -1.
         -5    1    1    2    0  502 -0.40039088388E+00 -0.30123740876E+01  0.65535148508E+02  0.65773705997E+02  0.47000000000E+01 0. -1.
<mgrwt>
<rscale>  2 0.55968483E+01</rscale>
<asrwt>0</asrwt>
<pdfrwt beam="1">  1       21 0.11441190E-01 0.55968483E+01</pdfrwt>
<pdfrwt beam="2">  1       21 0.15662107E-03 0.55968483E+01</pdfrwt>
<totfact> 0.10843904E+09</totfact>
</mgrwt>
</event>
<event>
 4    1  0.3900819E+006  0.5718642E+01  0.7546771E-02  0.2453547E+00
         21   -1    0    0  501  502  0.00000000000E+00  0.00000000000E+00  0.51991980769E+02  0.51991980769E+02  0.00000000000E+00 0. -1.
         21   -1    0    0  502  503 -0.00000000000E+00 -0.00000000000E+00 -0.72819763962E+00  0.72819763962E+00  0.00000000000E+00 0. -1.
          5    1    1    2  501    0  0.20906936585E+01 -0.24983725995E+01  0.35361082187E+02  0.35820510871E+02  0.47000000000E+01 0. -1.
         -5    1    1    2    0  503 -0.20906936585E+01  0.24983725995E+01  0.15902700942E+02  0.16899667537E+02  0.47000000000E+01 0. -1.
<mgrwt>
<rscale>  2 0.57186419E+01</rscale>
<asrwt>0</asrwt>
<pdfrwt beam="1">  1       21 0.79987634E-02 0.57186419E+01</pdfrwt>
<pdfrwt beam="2">  1       21 0.11203045E-03 0.57186419E+01</pdfrwt>
<totfact> 0.29915208E+09</totfact>
</mgrwt>
</event>
<event>
 4    1  0.3900819E+006  0.5658197E+01  0.7546771E-02  0.2462153E+00
         21   -1    0    0  503  502  0.00000000000E+00  0.00000000000E+00  0.78113519257E+00  0.78113519257E+00  0.00000000000E+00 0. -1.
         21   -1    0    0  501  503 -0.00000000000E+00 -0.00000000000E+00 -0.46448907857E+02  0.46448907857E+02  0.00000000000E+00 0. -1.
          5    1    1    2  501    0  0.31198387956E+01 -0.43794448674E+00 -0.30932930642E+02  0.31446166501E+02  0.47000000000E+01 0. -1.
         -5    1    1    2    0  502 -0.31198387956E+01  0.43794448674E+00 -0.14734842022E+02  0.15783876548E+02  0.47000000000E+01 0. -1.
<mgrwt>
<rscale>  2 0.56581967E+01</rscale>
<asrwt>0</asrwt>
<pdfrwt beam="1">  1       21 0.12017465E-03 0.56581967E+01</pdfrwt>
<pdfrwt beam="2">  1       21 0.71459858E-02 0.56581967E+01</pdfrwt>
<totfact> 0.31955092E+09</totfact>
</mgrwt>
</event>
<event>
 4    1  0.3900819E+006  0.7917452E+01  0.7546771E-02  0.2217369E+00
         21   -1    0    0  501  502  0.00000000000E+00  0.00000000000E+00  0.13952946889E+02  0.13952946889E+02  0.00000000000E+00 0. -1.
         21   -1    0    0  502  503 -0.00000000000E+00 -0.00000000000E+00 -0.20453566397E+02  0.20453566397E+02  0.00000000000E+00 0.  1.
          5    1    1    2  501    0 -0.52139077390E+01  0.36621331095E+01  0.11946580244E+02  0.14332021224E+02  0.47000000000E+01 0. -1.
         -5    1    1    2    0  503  0.52139077390E+01 -0.36621331095E+01 -0.18447199753E+02  0.20074492062E+02  0.47000000000E+01 0.  1.
<mgrwt>
<rscale>  2 0.79174524E+01</rscale>
<asrwt>0</asrwt>
<pdfrwt beam="1">  1       21 0.21466072E-02 0.79174524E+01</pdfrwt>
<pdfrwt beam="2">  1       21 0.31467025E-02 0.79174524E+01</pdfrwt>
<totfact> 0.24695711E+08</totfact>
</mgrwt>
</event>
<event>
 4    1  0.3900819E+006  0.5450738E+01  0.7546771E-02  0.2492911E+00
         21   -1    0    0  503  502  0.00000000000E+00  0.00000000000E+00  0.83887298156E+03  0.83887298156E+03  0.00000000000E+00 0. -1.
         21   -1    0    0  501  503 -0.00000000000E+00 -0.00000000000E+00 -0.51433633858E-01  0.51433633858E-01  0.00000000000E+00 0. -1.
          5    1    1    2  501    0 -0.27598467170E+01  0.61543520064E-01  0.18533741086E+03  0.18541754611E+03  0.47000000000E+01 0. -1.
         -5    1    1    2    0  502  0.27598467170E+01 -0.61543520064E-01  0.65348413706E+03  0.65350686908E+03  0.47000000000E+01 0. -1.
<mgrwt>
<rscale>  2 0.54507377E+01</rscale>
<asrwt>0</asrwt>
<pdfrwt beam="1">  1       21 0.12904642E+00 0.54507377E+01</pdfrwt>
<pdfrwt beam="2">  1       21 0.79135386E-05 0.54507377E+01</pdfrwt>
<totfact> 0.80030050E+08</totfact>
</mgrwt>
</event>
<event>
 4    1  0.3900819E+006  0.9413561E+01  0.7546771E-02  0.2109984E+00
         21   -1    0    0  501  502  0.00000000000E+00  0.00000000000E+00  0.61139380980E+01  0.61139380980E+01  0.00000000000E+00 0. -1.
         21   -1    0    0  502  503 -0.00000000000E+00 -0.00000000000E+00 -0.16007591729E+02  0.16007591729E+02  0.00000000000E+00 0.  1.
          5    1    1    2  501    0  0.81485316436E+01 -0.35574690596E+00 -0.83480368919E+01  0.12581925280E+02  0.47000000000E+01 0.  1.
         -5    1    1    2    0  503 -0.81485316436E+01  0.35574690596E+00 -0.15456167392E+01  0.95396045469E+01  0.47000000000E+01 0.  1.
<mgrwt>
<rscale>  2 0.94135606E+01</rscale>
<asrwt>0</asrwt>
<pdfrwt beam="1">  1       21 0.94060589E-03 0.94135606E+01</pdfrwt>
<pdfrwt beam="2">  1       21 0.24627063E-02 0.94135606E+01</pdfrwt>
<totfact> 0.13102056E+09</totfact>
</mgrwt>
</event>
<event>
 4    1  0.3900819E+006  0.6017726E+01  0.7546771E-02  0.2413122E+00
         21   -1    0    0  503  502  0.00000000000E+00  0.00000000000E+00  0.90486655078E+01  0.90486655078E+01  0.00000000000E+00 0. -1.
         21   -1    0    0  501  503 -0.00000000000E+00 -0.00000000000E+00 -0.70082560027E+01  0.70082560027E+01  0.00000000000E+00 0. -1.
          5    1    1    2  501    0  0.22183207590E+01 -0.30334927313E+01 -0.42380081776E+01  0.73602811396E+01  0.47000000000E+01 0. -1.
         -5    1    1    2    0  502 -0.22183207590E+01  0.30334927313E+01  0.62784176827E+01  0.86966403708E+01  0.47000000000E+01 0. -1.
<mgrwt>
<rscale>  2 0.60177259E+01</rscale>
<asrwt>0</asrwt>
<pdfrwt beam="1">  1       21 0.13921024E-02 0.60177259E+01</pdfrwt>
<pdfrwt beam="2">  1       21 0.10781932E-02 0.60177259E+01</pdfrwt>
<totfact> 0.17804660E+09</totfact>
</mgrwt>
</event>
<event>
 4    1  0.3900819E+006  0.1177272E+02  0.7546771E-02  0.1986229E+00
         21   -1    0    0  501  502  0.00000000000E+00  0.00000000000E+00  0.41532691517E+00  0.41532691517E+00  0.00000000000E+00 0.  1.
         21   -1    0    0  502  503 -0.00000000000E+00 -0.00000000000E+00 -0.34478352092E+03  0.34478352092E+03  0.00000000000E+00 0. -1.
          5    1    1    2  501    0 -0.10595716952E+02 -0.20585994855E+01 -0.14124632851E+03  0.14173610114E+03  0.47000000000E+01 0.  1.
         -5    1    1    2    0  503  0.10595716952E+02  0.20585994855E+01 -0.20312186549E+03  0.20346274669E+03  0.47000000000E+01 0. -1.
<mgrwt>
<rscale>  2 0.11772725E+02</rscale>
<asrwt>0</asrwt>
<pdfrwt beam="1">  1       21 0.63896341E-04 0.11772725E+02</pdfrwt>
<pdfrwt beam="2">  1       21 0.53043708E-01 0.11772725E+02</pdfrwt>
<totfact> 0.43376207E+08</totfact>
</mgrwt>
</event>
<event>
 4    1  0.3900819E+006  0.7275514E+01  0.7546771E-02  0.2274083E+00
         21   -1    0    0  503  502  0.00000000000E+00  0.00000000000E+00  0.10168102909E+02  0.10168102909E+02  0.00000000000E+00 0. -1.
         21   -1    0    0  501  503 -0.00000000000E+00 -0.00000000000E+00 -0.55455200530E+01  0.55455200530E+01  0.00000000000E+00 0.  1.
          5    1    1    2  501    0 -0.26182593865E+01 -0.48977369273E+01  0.42559163216E+01  0.84288749522E+01  0.47000000000E+01 0.  1.
         -5    1    1    2    0  502  0.26182593865E+01  0.48977369273E+01  0.36666653483E+00  0.72847480102E+01  0.47000000000E+01 0. -1.
<mgrwt>
<rscale>  2 0.72755144E+01</rscale>
<asrwt>0</asrwt>
<pdfrwt beam="1">  1       21 0.15643235E-02 0.72755144E+01</pdfrwt>
<pdfrwt beam="2">  1       21 0.85315693E-03 0.72755144E+01</pdfrwt>
<totfact> 0.24485285E+09</totfact>
</mgrwt>
</event>
<event>
 4    1  0.3900819E+006  0.5388907E+01  0.7546771E-02  0.2502465E+00
         21   -1    0    0  501  502  0.00000000000E+00  0.00000000000E+00  0.71937232030E-01  0.71937232030E-01  0.00000000000E+00 0.  1.
         21   -1    0    0  502  503 -0.00000000000E+00 -0.00000000000E+00 -0.18329770758E+04  0.18329770758E+04  0.00000000000E+00 0.  1.
          5    1    1    2  501    0 -0.25062943167E+01  0.81780837283E+00 -0.10712312731E+03  0.10725858813E+03  0.47000000000E+01 0.  1.
         -5    1    1    2    0  503  0.25062943167E+01 -0.81780837283E+00 -0.17257820113E+04  0.17257904249E+04  0.47000000000E+01 0.  1.
<mgrwt>
<rscale>  2 0.53889073E+01</rscale>
<asrwt>0</asrwt>
<pdfrwt beam="1">  1       21 0.11066657E-04 0.53889073E+01</pdfrwt>
<pdfrwt beam="2">  1       21 0.28201199E+00 0.53889073E+01</pdfrwt>
<totfact> 0.90331479E+07</totfact>
</mgrwt>
</event>
<event>
 4    1  0.3900819E+006  0.7601421E+01  0.7546771E-02  0.2244319E+00
         21   -1    0    0  501  502  0.00000000000E+00  0.00000000000E+00  0.21366849881E+03  0.21366849881E+03  0.00000000000E+00 0.  1.
         21   -1    0    0  502  503 -0.00000000000E+00 -0.00000000000E+00 -0.27063963463E+00  0.27063963463E+00  0.00000000000E+00 0. -1.
          5    1    1    2  501    0 -0.32632494091E+01 -0.50042783560E+01  0.10970164503E+03  0.10996468760E+03  0.47000000000E+01 0.  1.
         -5    1    1    2    0  503  0.32632494091E+01  0.50042783560E+01  0.10369621415E+03  0.10397445084E+03  0.47000000000E+01 0. -1.
<mgrwt>
<rscale>  2 0.76014208E+01</rscale>
<asrwt>0</asrwt>
<pdfrwt beam="1">  1       21 0.32871942E-01 0.76014208E+01</pdfrwt>
<pdfrwt beam="2">  1       21 0.41637037E-04 0.76014208E+01</pdfrwt>
<totfact> 0.14600270E+09</totfact>
</mgrwt>
</event>
<event>
 4    1  0.3900819E+006  0.8925247E+01  0.7546771E-02  0.2141864E+00
         21   -1    0    0  503  502  0.00000000000E+00  0.00000000000E+00  0.25197493759E+02  0.25197493759E+02  0.00000000000E+00 0.  1.
         21   -1    0    0  501  503 -0.00000000000E+00 -0.00000000000E+00 -0.31614798251E+01  0.31614798251E+01  0.00000000000E+00 0. -1.
          5    1    1    2  501    0 -0.15957454402E+01 -0.74177919080E+01  0.10960115710E+02  0.14134503058E+02  0.47000000000E+01 0.  1.
         -5    1    1    2    0  502  0.15957454402E+01  0.74177919080E+01  0.11075898224E+02  0.14224470527E+02  0.47000000000E+01 0. -1.
<mgrwt>
<rscale>  2 0.89252474E+01</rscale>
<asrwt>0</asrwt>
<pdfrwt beam="1">  1       21 0.38765374E-02 0.89252474E+01</pdfrwt>
<pdfrwt beam="2">  1       21 0.48638153E-03 0.89252474E+01</pdfrwt>
<totfact> 0.16517419E+09</totfact>
</mgrwt>
</event>
<event>
 4    1  0.3900819E+006  0.4998724E+01  0.7546771E-02  0.2567380E+00
         21   -1    0    0  501  502  0.00000000000E+00  0.00000000000E+00  0.73974292311E-01  0.73974292311E-01  0.00000000000E+00 0. -1.
         21   -1    0    0  502  503 -0.00000000000E+00 -0.00000000000E+00 -0.39212432621E+03  0.39212432621E+03  0.00000000000E+00 0. -1.
          5    1    1    2  501    0 -0.16293619394E+01  0.49236073817E+00 -0.12302398262E+03  0.12312549509E+03  0.47000000000E+01 0. -1.
         -5    1    1    2    0  503  0.16293619394E+01 -0.49236073817E+00 -0.26902636929E+03  0.26907280541E+03  0.47000000000E+01 0. -1.
<mgrwt>
<rscale>  2 0.49987238E+01</rscale>
<asrwt>0</asrwt>
<pdfrwt beam="1">  1       21 0.11380371E-04 0.49987238E+01</pdfrwt>
<pdfrwt beam="2">  1       21 0.60328355E-01 0.49987238E+01</pdfrwt>
<totfact> 0.20495665E+09</totfact>
</mgrwt>
</event>
<event>
 4    1  0.3900819E+006  0.7677273E+01  0.7546771E-02  0.2237687E+00
         21   -1    0    0  501  502  0.00000000000E+00  0.00000000000E+00  0.49558803111E+02  0.49558803111E+02  0.00000000000E+00 0.  1.
         21   -1    0    0  502  503 -0.00000000000E+00 -0.00000000000E+00 -0.32649640388E+01  0.32649640388E+01  0.00000000000E+00 0. -1.
          5    1    1    2  501    0  0.20493493951E+01  0.57140779536E+01  0.44205941962E+02  0.44867647861E+02  0.47000000000E+01 0.  1.
         -5    1    1    2    0  503 -0.20493493951E+01 -0.57140779536E+01  0.20878971104E+01  0.79561192894E+01  0.47000000000E+01 0. -1.
<mgrwt>
<rscale>  2 0.76772729E+01</rscale>
<asrwt>0</asrwt>
<pdfrwt beam="1">  1       21 0.76244307E-02 0.76772729E+01</pdfrwt>
<pdfrwt beam="2">  1       21 0.50230220E-03 0.76772729E+01</pdfrwt>
<totfact> 0.51218854E+08</totfact>
</mgrwt>
</event>
<event>
 4    1  0.3900819E+006  0.6122768E+01  0.7546771E-02  0.2399714E+00
         21   -1    0    0  501  502  0.00000000000E+00  0.00000000000E+00  0.17806652791E+02  0.17806652791E+02  0.00000000000E+00 0. -1.
         21   -1    0    0  502  503 -0.00000000000E+00 -0.00000000000E+00 -0.58602247715E+01  0.58602247715E+01  0.00000000000E+00 0.  1.
          5    1    1    2  501    0  0.36611984530E+00 -0.39069482931E+01  0.15445496428E+02  0.16614802093E+02  0.47000000000E+01 0. -1.
         -5    1    1    2    0  503 -0.36611984530E+00  0.39069482931E+01 -0.34990684077E+01  0.70520754695E+01  0.47000000000E+01 0.  1.
<mgrwt>
<rscale>  2 0.61227681E+01</rscale>
<asrwt>0</asrwt>
<pdfrwt beam="1">  1       21 0.27394850E-02 0.61227681E+01</pdfrwt>
<pdfrwt beam="2">  1       21 0.90157305E-03 0.61227681E+01</pdfrwt>
<totfact> 0.87916692E+08</totfact>
</mgrwt>
</event>
<event>
 4    1  0.3900819E+006  0.6446292E+01  0.7546771E-02  0.2360721E+00
         21   -1    0    0  503  502  0.00000000000E+00  0.00000000000E+00  0.17215733144E+02  0.17215733144E+02  0.00000000000E+00 0. -1.
         21   -1    0    0  501  503 -0.00000000000E+00 -0.00000000000E+00 -0.24207642418E+01  0.24207642418E+01  0.00000000000E+00 0.  1.
          5    1    1    2  501    0  0.32005496147E+01 -0.30366370297E+01  0.79255364027E+01  0.10216105401E+02  0.47000000000E+01 0.  1.
         -5    1    1    2    0  502 -0.32005496147E+01  0.30366370297E+01  0.68694324991E+01  0.94203919847E+01  0.47000000000E+01 0. -1.
<mgrwt>
<rscale>  2 0.64462921E+01</rscale>
<asrwt>0</asrwt>
<pdfrwt beam="1">  1       21 0.26485743E-02 0.64462921E+01</pdfrwt>
<pdfrwt beam="2">  1       21 0.37242528E-03 0.64462921E+01</pdfrwt>
<totfact> 0.33154965E+09</totfact>
</mgrwt>
</event>
<event>
 4    1  0.3900819E+006  0.5491625E+01  0.7546771E-02  0.2486693E+00
         21   -1    0    0  503  502  0.00000000000E+00  0.00000000000E+00  0.62046161950E+01  0.62046161950E+01  0.00000000000E+00 0. -1.
         21   -1    0    0  501  503 -0.00000000000E+00 -0.00000000000E+00 -0.78161071556E+02  0.78161071556E+02  0.00000000000E+00 0. -1.
          5    1    1    2  501    0 -0.24030895930E+01  0.15142990580E+01 -0.76828418611E+02  0.77024436691E+02  0.47000000000E+01 0. -1.
         -5    1    1    2    0  502  0.24030895930E+01 -0.15142990580E+01  0.48719632497E+01  0.73412510606E+01  0.47000000000E+01 0. -1.
<mgrwt>
<rscale>  2 0.54916246E+01</rscale>
<asrwt>0</asrwt>
<pdfrwt beam="1">  1       21 0.95455625E-03 0.54916246E+01</pdfrwt>
<pdfrwt beam="2">  1       21 0.12024781E-01 0.54916246E+01</pdfrwt>
<totfact> 0.82561205E+07</totfact>
</mgrwt>
</event>
<event>
 4    1  0.3900819E+006  0.5591801E+01  0.7546771E-02  0.2471786E+00
         21   -1    0    0  501  502  0.00000000000E+00  0.00000000000E+00  0.11067664512E+01  0.11067664512E+01  0.00000000000E+00 0. -1.
         21   -1    0    0  502  503 -0.00000000000E+00 -0.00000000000E+00 -0.32266641630E+02  0.32266641630E+02  0.00000000000E+00 0. -1.
          5    1    1    2  501    0  0.42086629246E+00 -0.30001857728E+01 -0.96938995104E+01  0.11191064776E+02  0.47000000000E+01 0. -1.
         -5    1    1    2    0  503 -0.42086629246E+00  0.30001857728E+01 -0.21465975668E+02  0.22182343305E+02  0.47000000000E+01 0. -1.
<mgrwt>
<rscale>  2 0.55918014E+01</rscale>
<asrwt>0</asrwt>
<pdfrwt beam="1">  1       21 0.17027174E-03 0.55918014E+01</pdfrwt>
<pdfrwt beam="2">  1       21 0.49640994E-02 0.55918014E+01</pdfrwt>
<totfact> 0.33991438E+09</totfact>
</mgrwt>
</event>
<event>
 4    1  0.3900819E+006  0.7227675E+01  0.7546771E-02  0.2278635E+00
         21   -1    0    0  503  502  0.00000000000E+00  0.00000000000E+00  0.20157761259E+04  0.20157761259E+04  0.00000000000E+00 0.  1.
         21   -1    0    0  501  503 -0.00000000000E+00 -0.00000000000E+00 -0.42921547208E-01  0.42921547208E-01  0.00000000000E+00 0. -1.
          5    1    1    2  501    0  0.81988806470E+00  0.54292783952E+01  0.37342867282E+03  0.37349861173E+03  0.47000000000E+01 0. -1.
         -5    1    1    2    0  502 -0.81988806470E+00 -0.54292783952E+01  0.16423045316E+04  0.16423204358E+04  0.47000000000E+01 0.  1.
<mgrwt>
<rscale>  2 0.72276746E+01</rscale>
<asrwt>0</asrwt>
<pdfrwt beam="1">  1       21 0.31004360E+00 0.72276746E+01</pdfrwt>
<pdfrwt beam="2">  1       21 0.66049294E-05 0.72276746E+01</pdfrwt>
<totfact> 0.15653995E+08</totfact>
</mgrwt>
</event>
<event>
 4    1  0.3900819E+006  0.1196267E+02  0.7546771E-02  0.1977946E+00
         21   -1    0    0  501  502  0.00000000000E+00  0.00000000000E+00  0.38147762712E+02  0.38147762712E+02  0.00000000000E+00 0.  1.
         21   -1    0    0  502  503 -0.00000000000E+00 -0.00000000000E+00 -0.68969915191E+01  0.68969915191E+01  0.00000000000E+00 0. -1.
          5    1    1    2  501    0  0.43070330644E+01 -0.10122500203E+02  0.30835732275E+02  0.33074883660E+02  0.47000000000E+01 0. -1.
         -5    1    1    2    0  503 -0.43070330644E+01  0.10122500203E+02  0.41503891721E+00  0.11969870571E+02  0.47000000000E+01 0.  1.
<mgrwt>
<rscale>  2 0.11962673E+02</rscale>
<asrwt>0</asrwt>
<pdfrwt beam="1">  1       21 0.58688865E-02 0.11962673E+02</pdfrwt>
<pdfrwt beam="2">  1       21 0.10610756E-02 0.11962673E+02</pdfrwt>
<totfact> 0.33483578E+08</totfact>
</mgrwt>
</event>
<event>
 4    1  0.3900819E+006  0.9208023E+01  0.7546771E-02  0.2123076E+00
         21   -1    0    0  501  502  0.00000000000E+00  0.00000000000E+00  0.78403842898E+00  0.78403842898E+00  0.00000000000E+00 0.  1.
         21   -1    0    0  502  503 -0.00000000000E+00 -0.00000000000E+00 -0.18535267173E+03  0.18535267173E+03  0.00000000000E+00 0. -1.
          5    1    1    2  501    0  0.65941877846E+01  0.43834211403E+01 -0.32216682596E+02  0.33506750528E+02  0.47000000000E+01 0.  1.
         -5    1    1    2    0  503 -0.65941877846E+01 -0.43834211403E+01 -0.15235195070E+03  0.15262995963E+03  0.47000000000E+01 0. -1.
<mgrwt>
<rscale>  2 0.92080233E+01</rscale>
<asrwt>0</asrwt>
<pdfrwt beam="1">  1       21 0.12062132E-03 0.92080233E+01</pdfrwt>
<pdfrwt beam="2">  1       21 0.28515791E-01 0.92080233E+01</pdfrwt>
<totfact> 0.49124277E+08</totfact>
</mgrwt>
</event>
<event>
 4    1  0.3900819E+006  0.4814554E+01  0.7546771E-02  0.2601142E+00
         21   -1    0    0  503  502  0.00000000000E+00  0.00000000000E+00  0.66185136756E+00  0.66185136756E+00  0.00000000000E+00 0.  1.
         21   -1    0    0  501  503 -0.00000000000E+00 -0.00000000000E+00 -0.35074109086E+02  0.35074109086E+02  0.00000000000E+00 0.  1.
          5    1    1    2  501    0  0.34150776919E+00  0.98656325056E+00 -0.17889067295E+02  0.18525621806E+02  0.47000000000E+01 0.  1.
         -5    1    1    2    0  502 -0.34150776919E+00 -0.98656325056E+00 -0.16523190423E+02  0.17210338648E+02  0.47000000000E+01 0.  1.
<mgrwt>
<rscale>  2 0.48145545E+01</rscale>
<asrwt>0</asrwt>
<pdfrwt beam="1">  1       21 0.10182329E-03 0.48145545E+01</pdfrwt>
<pdfrwt beam="2">  1       21 0.53960167E-02 0.48145545E+01</pdfrwt>
<totfact> 0.51480546E+09</totfact>
</mgrwt>
</event>
<event>
 4    1  0.3900819E+006  0.5241704E+01  0.7546771E-02  0.2525983E+00
         21   -1    0    0  503  502  0.00000000000E+00  0.00000000000E+00  0.15152220533E+00  0.15152220533E+00  0.00000000000E+00 0.  1.
         21   -1    0    0  501  503 -0.00000000000E+00 -0.00000000000E+00 -0.38439234144E+03  0.38439234144E+03  0.00000000000E+00 0.  1.
          5    1    1    2  501    0  0.22848512293E+01  0.40609469811E+00 -0.33186778796E+03  0.33190918056E+03  0.47000000000E+01 0.  1.
         -5    1    1    2    0  502 -0.22848512293E+01 -0.40609469811E+00 -0.52373031280E+02  0.52634683085E+02  0.47000000000E+01 0.  1.
<mgrwt>
<rscale>  2 0.52417037E+01</rscale>
<asrwt>0</asrwt>
<pdfrwt beam="1">  1       21 0.23311217E-04 0.52417037E+01</pdfrwt>
<pdfrwt beam="2">  1       21 0.59137007E-01 0.52417037E+01</pdfrwt>
<totfact> 0.85519908E+08</totfact>
</mgrwt>
</event>
<event>
 4    1  0.3900819E+006  0.7837735E+01  0.7546771E-02  0.2224001E+00
         21   -1    0    0  501  502  0.00000000000E+00  0.00000000000E+00  0.20819882304E+00  0.20819882304E+00  0.00000000000E+00 0.  1.
         21   -1    0    0  502  503 -0.00000000000E+00 -0.00000000000E+00 -0.63135883922E+03  0.63135883922E+03  0.00000000000E+00 0.  1.
          5    1    1    2  501    0 -0.60755714129E+01 -0.15580530663E+01 -0.85103803446E+02  0.85463954147E+02  0.47000000000E+01 0.  1.
         -5    1    1    2    0  503  0.60755714129E+01  0.15580530663E+01 -0.54604683695E+03  0.54610308389E+03  0.47000000000E+01 0.  1.
<mgrwt>
<rscale>  2 0.78377355E+01</rscale>
<asrwt>0</asrwt>
<pdfrwt beam="1">  1       21 0.32030665E-04 0.78377355E+01</pdfrwt>
<pdfrwt beam="2">  1       21 0.97131895E-01 0.78377355E+01</pdfrwt>
<totfact> 0.27774136E+08</totfact>
</mgrwt>
</event>
<event>
 4    1  0.3900819E+006  0.5496741E+01  0.7546771E-02  0.2485920E+00
         21   -1    0    0  503  502  0.00000000000E+00  0.00000000000E+00  0.16297749010E+02  0.16297749010E+02  0.00000000000E+00 0.  1.
         21   -1    0    0  501  503 -0.00000000000E+00 -0.00000000000E+00 -0.18939635905E+01  0.18939635905E+01  0.00000000000E+00 0. -1.
          5    1    1    2  501    0 -0.16057723798E+01  0.23549228097E+01  0.58787418626E+01  0.80482154707E+01  0.47000000000E+01 0.  1.
         -5    1    1    2    0  502  0.16057723798E+01 -0.23549228097E+01  0.85250435571E+01  0.10143497130E+02  0.47000000000E+01 0.  1.
<mgrwt>
<rscale>  2 0.54967414E+01</rscale>
<asrwt>0</asrwt>
<pdfrwt beam="1">  1       21 0.25073459E-02 0.54967414E+01</pdfrwt>
<pdfrwt beam="2">  1       21 0.29137902E-03 0.54967414E+01</pdfrwt>
<totfact> 0.43562475E+09</totfact>
</mgrwt>
</event>
<event>
 4    1  0.3900819E+006  0.4988295E+01  0.7546771E-02  0.2569234E+00
         21   -1    0    0  503  502  0.00000000000E+00  0.00000000000E+00  0.71231671610E-01  0.71231671610E-01  0.00000000000E+00 0.  1.
         21   -1    0    0  501  503 -0.00000000000E+00 -0.00000000000E+00 -0.66550218689E+03  0.66550218689E+03  0.00000000000E+00 0.  1.
          5    1    1    2  501    0 -0.90957164380E+00  0.14020583777E+01 -0.56209554701E+03  0.56211768079E+03  0.47000000000E+01 0.  1.
         -5    1    1    2    0  502  0.90957164380E+00 -0.14020583777E+01 -0.10333540820E+03  0.10345573777E+03  0.47000000000E+01 0.  1.
<mgrwt>
<rscale>  2 0.49882951E+01</rscale>
<asrwt>0</asrwt>
<pdfrwt beam="1">  1       21 0.10958504E-04 0.49882951E+01</pdfrwt>
<pdfrwt beam="2">  1       21 0.10238696E+00 0.49882951E+01</pdfrwt>
<totfact> 0.78194776E+08</totfact>
</mgrwt>
</event>
<event>
 4    1  0.3900819E+006  0.7776994E+01  0.7546771E-02  0.2229128E+00
         21   -1    0    0  501  502  0.00000000000E+00  0.00000000000E+00  0.11077843128E+00  0.11077843128E+00  0.00000000000E+00 0.  1.
         21   -1    0    0  502  503 -0.00000000000E+00 -0.00000000000E+00 -0.56203361634E+03  0.56203361634E+03  0.00000000000E+00 0. -1.
          5    1    1    2  501    0  0.22721616522E-01 -0.61960572273E+01 -0.32848023005E+03  0.32857227999E+03  0.47000000000E+01 0. -1.
         -5    1    1    2    0  503 -0.22721616522E-01  0.61960572273E+01 -0.23344260786E+03  0.23357211479E+03  0.47000000000E+01 0.  1.
<mgrwt>
<rscale>  2 0.77769944E+01</rscale>
<asrwt>0</asrwt>
<pdfrwt beam="1">  1       21 0.17042775E-04 0.77769944E+01</pdfrwt>
<pdfrwt beam="2">  1       21 0.86467018E-01 0.77769944E+01</pdfrwt>
<totfact> 0.81920472E+08</totfact>
</mgrwt>
</event>
<event>
 4    1  0.3900819E+006  0.1138357E+02  0.7546771E-02  0.2003861E+00
         21   -1    0    0  503  502  0.00000000000E+00  0.00000000000E+00  0.49960705114E+00  0.49960705114E+00  0.00000000000E+00 0. -1.
         21   -1    0    0  501  503 -0.00000000000E+00 -0.00000000000E+00 -0.45362710503E+03  0.45362710503E+03  0.00000000000E+00 0.  1.
          5    1    1    2  501    0 -0.10214903531E+02  0.17751905042E+01 -0.37515063239E+03  0.37532330402E+03  0.47000000000E+01 0.  1.
         -5    1    1    2    0  502  0.10214903531E+02 -0.17751905042E+01 -0.77976865582E+02  0.78803408058E+02  0.47000000000E+01 0. -1.
<mgrwt>
<rscale>  2 0.11383565E+02</rscale>
<asrwt>0</asrwt>
<pdfrwt beam="1">  1       21 0.76862738E-04 0.11383565E+02</pdfrwt>
<pdfrwt beam="2">  1       21 0.69788681E-01 0.11383565E+02</pdfrwt>
<totfact> 0.19471124E+08</totfact>
</mgrwt>
</event>
<event>
 4    1  0.3900819E+006  0.4823985E+01  0.7546771E-02  0.2599359E+00
         21   -1    0    0  501  502  0.00000000000E+00  0.00000000000E+00  0.39406759435E+03  0.39406759435E+03  0.00000000000E+00 0.  1.
         21   -1    0    0  502  503 -0.00000000000E+00 -0.00000000000E+00 -0.31692188556E+00  0.31692188556E+00  0.00000000000E+00 0.  1.
          5    1    1    2  501    0  0.90825763611E+00  0.59657519469E+00  0.37474967610E+03  0.37478072332E+03  0.47000000000E+01 0.  1.
         -5    1    1    2    0  503 -0.90825763611E+00 -0.59657519469E+00  0.19000996359E+02  0.19603792912E+02  0.47000000000E+01 0.  1.
<mgrwt>
<rscale>  2 0.48239853E+01</rscale>
<asrwt>0</asrwt>
<pdfrwt beam="1">  1       21 0.60625391E-01 0.48239853E+01</pdfrwt>
<pdfrwt beam="2">  1       21 0.48757529E-04 0.48239853E+01</pdfrwt>
<totfact> 0.28771817E+08</totfact>
</mgrwt>
</event>
<event>
 4    1  0.3900819E+006  0.7816287E+01  0.7546771E-02  0.2225804E+00
         21   -1    0    0  501  502  0.00000000000E+00  0.00000000000E+00  0.48856104248E+02  0.48856104248E+02  0.00000000000E+00 0. -1.
         21   -1    0    0  502  503 -0.00000000000E+00 -0.00000000000E+00 -0.17854106202E+01  0.17854106202E+01  0.00000000000E+00 0.  1.
          5    1    1    2  501    0  0.59937971927E+01 -0.17546318295E+01  0.37394927150E+02  0.38203074669E+02  0.47000000000E+01 0. -1.
         -5    1    1    2    0  503 -0.59937971927E+01  0.17546318295E+01  0.96757664778E+01  0.12438440199E+02  0.47000000000E+01 0.  1.
<mgrwt>
<rscale>  2 0.78162867E+01</rscale>
<asrwt>0</asrwt>
<pdfrwt beam="1">  1       21 0.75163227E-02 0.78162867E+01</pdfrwt>
<pdfrwt beam="2">  1       21 0.27467859E-03 0.78162867E+01</pdfrwt>
<totfact> 0.12333650E+09</totfact>
</mgrwt>
</event>
<event>
 4    1  0.3900819E+006  0.5821534E+01  0.7546771E-02  0.2439246E+00
         21   -1    0    0  501  502  0.00000000000E+00  0.00000000000E+00  0.54156960541E+02  0.54156960541E+02  0.00000000000E+00 0. -1.
         21   -1    0    0  502  503 -0.00000000000E+00 -0.00000000000E+00 -0.92740543675E+00  0.92740543675E+00  0.00000000000E+00 0.  1.
          5    1    1    2  501    0 -0.33661564089E+01  0.68501526842E+00  0.42321974552E+02  0.42720484371E+02  0.47000000000E+01 0. -1.
         -5    1    1    2    0  503  0.33661564089E+01 -0.68501526842E+00  0.10907580552E+02  0.12363881606E+02  0.47000000000E+01 0.  1.
<mgrwt>
<rscale>  2 0.58215337E+01</rscale>
<asrwt>0</asrwt>
<pdfrwt beam="1">  1       21 0.83318376E-02 0.58215337E+01</pdfrwt>
<pdfrwt beam="2">  1       21 0.14267780E-03 0.58215337E+01</pdfrwt>
<totfact> 0.20630672E+09</totfact>
</mgrwt>
</event>
<event>
 4    1  0.3900819E+006  0.5373249E+01  0.7546771E-02  0.2504915E+00
         21   -1    0    0  501  502  0.00000000000E+00  0.00000000000E+00  0.42044173888E-01  0.42044173888E-01  0.00000000000E+00 0.  1.
         21   -1    0    0  502  503 -0.00000000000E+00 -0.00000000000E+00 -0.17392184283E+04  0.17392184283E+04  0.00000000000E+00 0. -1.
          5    1    1    2  501    0 -0.11357601797E+01 -0.23434698431E+01 -0.19308151360E+03  0.19315626496E+03  0.47000000000E+01 0.  1.
         -5    1    1    2    0  503  0.11357601797E+01  0.23434698431E+01 -0.15460948705E+04  0.15461042075E+04  0.47000000000E+01 0. -1.
<mgrwt>
<rscale>  2 0.53732487E+01</rscale>
<asrwt>0</asrwt>
<pdfrwt beam="1">  1       21 0.64684596E-05 0.53732487E+01</pdfrwt>
<pdfrwt beam="2">  1       21 0.26756689E+00 0.53732487E+01</pdfrwt>
<totfact> 0.20950423E+08</totfact>
</mgrwt>
</event>
<event>
 4    1  0.3900819E+006  0.5431462E+01  0.7546771E-02  0.2495869E+00
         21   -1    0    0  501  502  0.00000000000E+00  0.00000000000E+00  0.10440933080E+03  0.10440933080E+03  0.00000000000E+00 0.  1.
         21   -1    0    0  502  503 -0.00000000000E+00 -0.00000000000E+00 -0.41869481243E+00  0.41869481243E+00  0.00000000000E+00 0.  1.
          5    1    1    2  501    0 -0.42118737225E+00 -0.26894935126E+01  0.81883563778E+02  0.82063504623E+02  0.47000000000E+01 0.  1.
         -5    1    1    2    0  503  0.42118737225E+00  0.26894935126E+01  0.22107072206E+02  0.22764520985E+02  0.47000000000E+01 0.  1.
<mgrwt>
<rscale>  2 0.54314615E+01</rscale>
<asrwt>0</asrwt>
<pdfrwt beam="1">  1       21 0.16062953E-01 0.54314615E+01</pdfrwt>
<pdfrwt beam="2">  1       21 0.64414670E-04 0.54314615E+01</pdfrwt>
<totfact> 0.20470762E+09</totfact>
</mgrwt>
</event>
<event>
 4    1  0.3900819E+006  0.4922198E+01  0.7546771E-02  0.2581143E+00
         21   -1    0    0  503  502  0.00000000000E+00  0.00000000000E+00  0.37712039226E+00  0.37712039226E+00  0.00000000000E+00 0.  1.
         21   -1    0    0  501  503 -0.00000000000E+00 -0.00000000000E+00 -0.13647000200E+03  0.13647000200E+03  0.00000000000E+00 0.  1.
          5    1    1    2  501    0 -0.12430781101E+01 -0.76993169685E+00 -0.11782374208E+03  0.11792651202E+03  0.47000000000E+01 0.  1.
         -5    1    1    2    0  502  0.12430781101E+01  0.76993169685E+00 -0.18269139524E+02  0.18920610375E+02  0.47000000000E+01 0.  1.
<mgrwt>
<rscale>  2 0.49221985E+01</rscale>
<asrwt>0</asrwt>
<pdfrwt beam="1">  1       21 0.58018497E-04 0.49221985E+01</pdfrwt>
<pdfrwt beam="2">  1       21 0.20995394E-01 0.49221985E+01</pdfrwt>
<totfact> 0.14063613E+09</totfact>
</mgrwt>
</event>
<event>
 4    1  0.3900819E+006  0.7852973E+01  0.7546771E-02  0.2222725E+00
         21   -1    0    0  503  502  0.00000000000E+00  0.00000000000E+00  0.79478386789E+01  0.79478386789E+01  0.00000000000E+00 0. -1.
         21   -1    0    0  501  503 -0.00000000000E+00 -0.00000000000E+00 -0.89373640185E+01  0.89373640185E+01  0.00000000000E+00 0.  1.
          5    1    1    2  501    0  0.18822214419E+01  0.60030352531E+01 -0.35600205497E+01  0.86222349841E+01  0.47000000000E+01 0.  1.
         -5    1    1    2    0  502 -0.18822214419E+01 -0.60030352531E+01  0.25704952101E+01  0.82629677133E+01  0.47000000000E+01 0. -1.
<mgrwt>
<rscale>  2 0.78529733E+01</rscale>
<asrwt>0</asrwt>
<pdfrwt beam="1">  1       21 0.12227444E-02 0.78529733E+01</pdfrwt>
<pdfrwt beam="2">  1       21 0.13749791E-02 0.78529733E+01</pdfrwt>
<totfact> 0.18666171E+09</totfact>
</mgrwt>
</event>
<event>
 4    1  0.3900819E+006  0.4980142E+01  0.7546771E-02  0.2570689E+00
         21   -1    0    0  501  502  0.00000000000E+00  0.00000000000E+00  0.42093710385E-01  0.42093710385E-01  0.00000000000E+00 0.  1.
         21   -1    0    0  502  503 -0.00000000000E+00 -0.00000000000E+00 -0.73600517162E+03  0.73600517162E+03  0.00000000000E+00 0.  1.
          5    1    1    2  501    0 -0.15791339662E+01 -0.46706868539E+00 -0.20362052337E+03  0.20368141633E+03  0.47000000000E+01 0.  1.
         -5    1    1    2    0  503  0.15791339662E+01  0.46706868539E+00 -0.53234255453E+03  0.53236584900E+03  0.47000000000E+01 0.  1.
<mgrwt>
<rscale>  2 0.49801423E+01</rscale>
<asrwt>0</asrwt>
<pdfrwt beam="1">  1       21 0.64760306E-05 0.49801423E+01</pdfrwt>
<pdfrwt beam="2">  1       21 0.11323025E+00 0.49801423E+01</pdfrwt>
<totfact> 0.12825760E+09</totfact>
</mgrwt>
</event>
<event>
 4    1  0.3900819E+006  0.4929051E+01  0.7546771E-02  0.2579896E+00
         21   -1    0    0  501  502  0.00000000000E+00  0.00000000000E+00  0.80122622869E-01  0.80122622869E-01  0.00000000000E+00 0.  1.
         21   -1    0    0  502  503 -0.00000000000E+00 -0.00000000000E+00 -0.34243354433E+03  0.34243354433E+03  0.00000000000E+00 0.  1.
          5    1    1    2  501    0  0.12438303402E+01 -0.81143770635E+00 -0.22912292182E+03  0.22917593427E+03  0.47000000000E+01 0.  1.
         -5    1    1    2    0  503 -0.12438303402E+01  0.81143770635E+00 -0.11323049989E+03  0.11333773268E+03  0.47000000000E+01 0.  1.
<mgrwt>
<rscale>  2 0.49290511E+01</rscale>
<asrwt>0</asrwt>
<pdfrwt beam="1">  1       21 0.12326304E-04 0.49290511E+01</pdfrwt>
<pdfrwt beam="2">  1       21 0.52683167E-01 0.49290511E+01</pdfrwt>
<totfact> 0.23271881E+09</totfact>
</mgrwt>
</event>
<event>
 4    1  0.3900819E+006  0.5296352E+01  0.7546771E-02  0.2517122E+00
         21   -1    0    0  501  502  0.00000000000E+00  0.00000000000E+00  0.41305527009E+02  0.41305527009E+02  0.00000000000E+00 0. -1.
         21   -1    0    0  502  503 -0.00000000000E+00 -0.00000000000E+00 -0.16027699117E+01  0.16027699117E+01  0.00000000000E+00 0. -1.
          5    1    1    2  501    0  0.18986243742E+01 -0.15351132622E+01  0.36137952739E+02  0.36524005467E+02  0.47000000000E+01 0. -1.
         -5    1    1    2    0  503 -0.18986243742E+01  0.15351132622E+01  0.35648043582E+01  0.63842914528E+01  0.47000000000E+01 0. -1.
<mgrwt>
<rscale>  2 0.52963523E+01</rscale>
<asrwt>0</asrwt>
<pdfrwt beam="1">  1       21 0.63546957E-02 0.52963523E+01</pdfrwt>
<pdfrwt beam="2">  1       21 0.24658002E-03 0.52963523E+01</pdfrwt>
<totfact> 0.13597483E+09</totfact>
</mgrwt>
</event>
<event>
 4    1  0.3900819E+006  0.9074574E+01  0.7546771E-02  0.2131827E+00
         21   -1    0    0  501  502  0.00000000000E+00  0.00000000000E+00  0.21070967227E+00  0.21070967227E+00  0.00000000000E+00 0. -1.
         21   -1    0    0  502  503 -0.00000000000E+00 -0.00000000000E+00 -0.44405563080E+03  0.44405563080E+03  0.00000000000E+00 0.  1.
          5    1    1    2  501    0 -0.75024075043E+01 -0.19929291865E+01 -0.14500441630E+03  0.14528808841E+03  0.47000000000E+01 0. -1.
         -5    1    1    2    0  503  0.75024075043E+01  0.19929291865E+01 -0.29884050482E+03  0.29897825206E+03  0.47000000000E+01 0.  1.
<mgrwt>
<rscale>  2 0.90745735E+01</rscale>
<asrwt>0</asrwt>
<pdfrwt beam="1">  1       21 0.32416716E-04 0.90745735E+01</pdfrwt>
<pdfrwt beam="2">  1       21 0.68316580E-01 0.90745735E+01</pdfrwt>
<totfact> 0.59574510E+08</totfact>
</mgrwt>
</event>
<event>
 4    1  0.3900819E+006  0.4973347E+01  0.7546771E-02  0.2571904E+00
         21   -1    0    0  501  502  0.00000000000E+00  0.00000000000E+00  0.32745609495E+00  0.32745609495E+00  0.00000000000E+00 0. -1.
         21   -1    0    0  502  503 -0.00000000000E+00 -0.00000000000E+00 -0.11622241004E+03  0.11622241004E+03  0.00000000000E+00 0. -1.
          5    1    1    2  501    0  0.15539737617E+01  0.47890126398E+00 -0.23467229350E+02  0.23988435427E+02  0.47000000000E+01 0. -1.
         -5    1    1    2    0  503 -0.15539737617E+01 -0.47890126398E+00 -0.92427724596E+02  0.92561430709E+02  0.47000000000E+01 0. -1.
<mgrwt>
<rscale>  2 0.49733470E+01</rscale>
<asrwt>0</asrwt>
<pdfrwt beam="1">  1       21 0.50377912E-04 0.49733470E+01</pdfrwt>
<pdfrwt beam="2">  1       21 0.17880353E-01 0.49733470E+01</pdfrwt>
<totfact> 0.22084993E+09</totfact>
</mgrwt>
</event>
<event>
 4    1  0.3900819E+006  0.1494908E+02  0.7546771E-02  0.1869626E+00
         21   -1    0    0  501  502  0.00000000000E+00  0.00000000000E+00  0.14927610245E+01  0.14927610245E+01  0.00000000000E+00 0.  1.
         21   -1    0    0  502  503 -0.00000000000E+00 -0.00000000000E+00 -0.15474357677E+03  0.15474357677E+03  0.00000000000E+00 0. -1.
          5    1    1    2  501    0  0.11657925595E+02  0.80918307027E+01 -0.62530375820E+02  0.64292478980E+02  0.47000000000E+01 0. -1.
         -5    1    1    2    0  503 -0.11657925595E+02 -0.80918307027E+01 -0.90720439925E+02  0.91943858813E+02  0.47000000000E+01 0.  1.
<mgrwt>
<rscale>  2 0.14949079E+02</rscale>
<asrwt>0</asrwt>
<pdfrwt beam="1">  1       21 0.22965571E-03 0.14949079E+02</pdfrwt>
<pdfrwt beam="2">  1       21 0.23806687E-01 0.14949079E+02</pdfrwt>
<totfact> 0.34039837E+08</totfact>
</mgrwt>
</event>
<event>
 4    1  0.3900819E+006  0.4811739E+01  0.7546771E-02  0.2601675E+00
         21   -1    0    0  503  502  0.00000000000E+00  0.00000000000E+00  0.26203956661E+03  0.26203956661E+03  0.00000000000E+00 0. -1.
         21   -1    0    0  501  503 -0.00000000000E+00 -0.00000000000E+00 -0.36994859336E+00  0.36994859336E+00  0.00000000000E+00 0. -1.
          5    1    1    2  501    0  0.10130600275E+01  0.19115870402E+00  0.16365432446E+02  0.17058142086E+02  0.47000000000E+01 0. -1.
         -5    1    1    2    0  502 -0.10130600275E+01 -0.19115870402E+00  0.24530418557E+03  0.24535137312E+03  0.47000000000E+01 0. -1.
<mgrwt>
<rscale>  2 0.48117390E+01</rscale>
<asrwt>0</asrwt>
<pdfrwt beam="1">  1       21 0.40313631E-01 0.48117390E+01</pdfrwt>
<pdfrwt beam="2">  1       21 0.56915378E-04 0.48117390E+01</pdfrwt>
<totfact> 0.48144588E+08</totfact>
</mgrwt>
</event>
<event>
 4    1  0.3900819E+006  0.1743419E+02  0.7546771E-02  0.1801760E+00
         21   -1    0    0  501  502  0.00000000000E+00  0.00000000000E+00  0.28757791979E+02  0.28757791979E+02  0.00000000000E+00 0.  1.
         21   -1    0    0  502  503 -0.00000000000E+00 -0.00000000000E+00 -0.13290334216E+02  0.13290334216E+02  0.00000000000E+00 0. -1.
          5    1    1    2  501    0  0.43915744743E+01 -0.16204164084E+02  0.17246620917E+02  0.24523392773E+02  0.47000000000E+01 0.  1.
         -5    1    1    2    0  503 -0.43915744743E+01  0.16204164084E+02 -0.17791631545E+01  0.17524733423E+02  0.47000000000E+01 0. -1.
<mgrwt>
<rscale>  2 0.17434187E+02</rscale>
<asrwt>0</asrwt>
<pdfrwt beam="1">  1       21 0.44242757E-02 0.17434187E+02</pdfrwt>
<pdfrwt beam="2">  1       21 0.20446668E-02 0.17434187E+02</pdfrwt>
<totfact> 0.22895137E+08</totfact>
</mgrwt>
</event>
<event>
 4    1  0.3900819E+006  0.5631424E+01  0.7546771E-02  0.2466014E+00
         21   -1    0    0  501  502  0.00000000000E+00  0.00000000000E+00  0.15065637059E+04  0.15065637059E+04  0.00000000000E+00 0.  1.
         21   -1    0    0  502  503 -0.00000000000E+00 -0.00000000000E+00 -0.39753713491E-01  0.39753713491E-01  0.00000000000E+00 0. -1.
          5    1    1    2  501    0  0.74932092950E+00 -0.30102246317E+01  0.12699707310E+04  0.12699832166E+04  0.47000000000E+01 0.  1.
         -5    1    1    2    0  503 -0.74932092950E+00  0.30102246317E+01  0.23655322126E+03  0.23662024305E+03  0.47000000000E+01 0. -1.
<mgrwt>
<rscale>  2 0.56314238E+01</rscale>
<asrwt>0</asrwt>
<pdfrwt beam="1">  1       21 0.23173331E+00 0.56314238E+01</pdfrwt>
<pdfrwt beam="2">  1       21 0.61171626E-05 0.56314238E+01</pdfrwt>
<totfact> 0.32286800E+08</totfact>
</mgrwt>
</event>
<event>
 4    1  0.3900819E+006  0.6996990E+01  0.7546771E-02  0.2301297E+00
         21   -1    0    0  501  502  0.00000000000E+00  0.00000000000E+00  0.31743136872E+02  0.31743136872E+02  0.00000000000E+00 0. -1.
         21   -1    0    0  502  503 -0.00000000000E+00 -0.00000000000E+00 -0.18503679216E+01  0.18503679216E+01  0.00000000000E+00 0.  1.
          5    1    1    2  501    0  0.51827804827E+01 -0.81595932966E-01  0.21799845288E+02  0.22895220594E+02  0.47000000000E+01 0. -1.
         -5    1    1    2    0  503 -0.51827804827E+01  0.81595932966E-01  0.80929236624E+01  0.10698284200E+02  0.47000000000E+01 0.  1.
<mgrwt>
<rscale>  2 0.69969902E+01</rscale>
<asrwt>0</asrwt>
<pdfrwt beam="1">  1       21 0.48835591E-02 0.69969902E+01</pdfrwt>
<pdfrwt beam="2">  1       21 0.28467201E-03 0.69969902E+01</pdfrwt>
<totfact> 0.20832510E+09</totfact>
</mgrwt>
</event>
<event>
 4    1  0.3900819E+006  0.1614788E+02  0.7546771E-02  0.1834935E+00
         21   -1    0    0  501  502  0.00000000000E+00  0.00000000000E+00  0.15557654699E+03  0.15557654699E+03  0.00000000000E+00 0.  1.
         21   -1    0    0  502  503 -0.00000000000E+00 -0.00000000000E+00 -0.23326363420E+01  0.23326363420E+01  0.00000000000E+00 0.  1.
          5    1    1    2  501    0  0.39102379022E+01 -0.14945704698E+02  0.11851094084E+03  0.11960600799E+03  0.47000000000E+01 0.  1.
         -5    1    1    2    0  503 -0.39102379022E+01  0.14945704698E+02  0.34732969813E+02  0.38303175344E+02  0.47000000000E+01 0.  1.
<mgrwt>
<rscale>  2 0.16147881E+02</rscale>
<asrwt>0</asrwt>
<pdfrwt beam="1">  1       21 0.23934845E-01 0.16147881E+02</pdfrwt>
<pdfrwt beam="2">  1       21 0.35886725E-03 0.16147881E+02</pdfrwt>
<totfact> 0.18290195E+08</totfact>
</mgrwt>
</event>
<event>
 4    1  0.3900819E+006  0.6460195E+01  0.7546771E-02  0.2359119E+00
         21   -1    0    0  503  502  0.00000000000E+00  0.00000000000E+00  0.22589667586E+03  0.22589667586E+03  0.00000000000E+00 0.  1.
         21   -1    0    0  501  503 -0.00000000000E+00 -0.00000000000E+00 -0.34789974498E+00  0.34789974498E+00  0.00000000000E+00 0. -1.
          5    1    1    2  501    0  0.35313723860E+01 -0.26783448998E+01  0.35307515327E+02  0.35893659063E+02  0.47000000000E+01 0. -1.
         -5    1    1    2    0  502 -0.35313723860E+01  0.26783448998E+01  0.19024126079E+03  0.19035091655E+03  0.47000000000E+01 0.  1.
<mgrwt>
<rscale>  2 0.64601952E+01</rscale>
<asrwt>0</asrwt>
<pdfrwt beam="1">  1       21 0.34753218E-01 0.64601952E+01</pdfrwt>
<pdfrwt beam="2">  1       21 0.53523218E-04 0.64601952E+01</pdfrwt>
<totfact> 0.84668835E+08</totfact>
</mgrwt>
</event>
<event>
 4    1  0.3900819E+006  0.5831675E+01  0.7546771E-02  0.2437860E+00
         21   -1    0    0  501  502  0.00000000000E+00  0.00000000000E+00  0.13080904538E+03  0.13080904538E+03  0.00000000000E+00 0. -1.
         21   -1    0    0  502  503 -0.00000000000E+00 -0.00000000000E+00 -0.71372640044E+00  0.71372640044E+00  0.00000000000E+00 0.  1.
          5    1    1    2  501    0 -0.14607435861E+00  0.34492166102E+01  0.11748119249E+03  0.11762584334E+03  0.47000000000E+01 0. -1.
         -5    1    1    2    0  503  0.14607435861E+00 -0.34492166102E+01  0.12614126490E+02  0.13896928440E+02  0.47000000000E+01 0.  1.
<mgrwt>
<rscale>  2 0.58316750E+01</rscale>
<asrwt>0</asrwt>
<pdfrwt beam="1">  1       21 0.20124449E-01 0.58316750E+01</pdfrwt>
<pdfrwt beam="2">  1       21 0.10980417E-03 0.58316750E+01</pdfrwt>
<totfact> 0.74300660E+08</totfact>
</mgrwt>
</event>
<event>
 4    1  0.3900819E+006  0.4798458E+01  0.7546771E-02  0.2604199E+00
         21   -1    0    0  503  502  0.00000000000E+00  0.00000000000E+00  0.47592001269E+00  0.47592001269E+00  0.00000000000E+00 0.  1.
         21   -1    0    0  501  503 -0.00000000000E+00 -0.00000000000E+00 -0.17862076473E+03  0.17862076473E+03  0.00000000000E+00 0.  1.
          5    1    1    2  501    0 -0.71617188850E+00 -0.64984436798E+00 -0.16553771997E+03  0.16560725206E+03  0.47000000000E+01 0.  1.
         -5    1    1    2    0  502  0.71617188850E+00  0.64984436798E+00 -0.12607124745E+02  0.13489432687E+02  0.47000000000E+01 0.  1.
<mgrwt>
<rscale>  2 0.47984581E+01</rscale>
<asrwt>0</asrwt>
<pdfrwt beam="1">  1       21 0.73218291E-04 0.47984581E+01</pdfrwt>
<pdfrwt beam="2">  1       21 0.27480182E-01 0.47984581E+01</pdfrwt>
<totfact> 0.65393226E+08</totfact>
</mgrwt>
</event>
<event>
 4    1  0.3900819E+006  0.6630885E+01  0.7546771E-02  0.2339897E+00
         21   -1    0    0  501  502  0.00000000000E+00  0.00000000000E+00  0.89379567731E-01  0.89379567731E-01  0.00000000000E+00 0.  1.
         21   -1    0    0  502  503 -0.00000000000E+00 -0.00000000000E+00 -0.88545700432E+03  0.88545700432E+03  0.00000000000E+00 0. -1.
          5    1    1    2  501    0  0.32184834744E+01  0.33941127187E+01 -0.14750583931E+03  0.14765480442E+03  0.47000000000E+01 0.  1.
         -5    1    1    2    0  503 -0.32184834744E+01 -0.33941127187E+01 -0.73786178544E+03  0.73789157947E+03  0.47000000000E+01 0. -1.
<mgrwt>
<rscale>  2 0.66308851E+01</rscale>
<asrwt>0</asrwt>
<pdfrwt beam="1">  1       21 0.13750959E-04 0.66308851E+01</pdfrwt>
<pdfrwt beam="2">  1       21 0.13622162E+00 0.66308851E+01</pdfrwt>
<totfact> 0.38740812E+08</totfact>
</mgrwt>
</event>
<event>
 4    1  0.3900819E+006  0.9242703E+01  0.7546771E-02  0.2120835E+00
         21   -1    0    0  503  502  0.00000000000E+00  0.00000000000E+00  0.11465725562E+02  0.11465725562E+02  0.00000000000E+00 0.  1.
         21   -1    0    0  501  503 -0.00000000000E+00 -0.00000000000E+00 -0.74513220171E+01  0.74513220171E+01  0.00000000000E+00 0.  1.
          5    1    1    2  501    0 -0.46895843611E+00  0.79446604474E+01  0.20944033984E+01  0.94770289244E+01  0.47000000000E+01 0.  1.
         -5    1    1    2    0  502  0.46895843611E+00 -0.79446604474E+01  0.19200001466E+01  0.94400186547E+01  0.47000000000E+01 0.  1.
<mgrwt>
<rscale>  2 0.92427026E+01</rscale>
<asrwt>0</asrwt>
<pdfrwt beam="1">  1       21 0.17639578E-02 0.92427026E+01</pdfrwt>
<pdfrwt beam="2">  1       21 0.11463572E-02 0.92427026E+01</pdfrwt>
<totfact> 0.15915018E+09</totfact>
</mgrwt>
</event>
<event>
 4    1  0.3900819E+006  0.4878606E+01  0.7546771E-02  0.2589150E+00
         21   -1    0    0  501  502  0.00000000000E+00  0.00000000000E+00  0.30137704988E+02  0.30137704988E+02  0.00000000000E+00 0.  1.
         21   -1    0    0  502  503 -0.00000000000E+00 -0.00000000000E+00 -0.86022601269E+00  0.86022601269E+00  0.00000000000E+00 0.  1.
          5    1    1    2  501    0  0.65120401293E+00 -0.11343432111E+01  0.19075471788E+02  0.19689449589E+02  0.47000000000E+01 0.  1.
         -5    1    1    2    0  503 -0.65120401293E+00  0.11343432111E+01  0.10202007188E+02  0.11308481412E+02  0.47000000000E+01 0.  1.
<mgrwt>
<rscale>  2 0.48786065E+01</rscale>
<asrwt>0</asrwt>
<pdfrwt beam="1">  1       21 0.46365692E-02 0.48786065E+01</pdfrwt>
<pdfrwt beam="2">  1       21 0.13234249E-03 0.48786065E+01</pdfrwt>
<totfact> 0.45972238E+09</totfact>
</mgrwt>
</event>
<event>
 4    1  0.3900819E+006  0.5746046E+01  0.7546771E-02  0.2449696E+00
         21   -1    0    0  501  502  0.00000000000E+00  0.00000000000E+00  0.38732525591E+01  0.38732525591E+01  0.00000000000E+00 0. -1.
         21   -1    0    0  502  503 -0.00000000000E+00 -0.00000000000E+00 -0.11057909856E+02  0.11057909856E+02  0.00000000000E+00 0.  1.
          5    1    1    2  501    0 -0.11248019708E+01  0.31083543988E+01 -0.18853379816E-01  0.57460770959E+01  0.47000000000E+01 0. -1.
         -5    1    1    2    0  503  0.11248019708E+01 -0.31083543988E+01 -0.71658039173E+01  0.91850853193E+01  0.47000000000E+01 0. -1.
<mgrwt>
<rscale>  2 0.57460462E+01</rscale>
<asrwt>0</asrwt>
<pdfrwt beam="1">  1       21 0.59588502E-03 0.57460462E+01</pdfrwt>
<pdfrwt beam="2">  1       21 0.17012169E-02 0.57460462E+01</pdfrwt>
<totfact> 0.29508534E+09</totfact>
</mgrwt>
</event>
<event>
 4    1  0.3900819E+006  0.6753541E+01  0.7546771E-02  0.2326581E+00
         21   -1    0    0  503  502  0.00000000000E+00  0.00000000000E+00  0.23148220095E+00  0.23148220095E+00  0.00000000000E+00 0. -1.
         21   -1    0    0  501  503 -0.00000000000E+00 -0.00000000000E+00 -0.43773658446E+03  0.43773658446E+03  0.00000000000E+00 0.  1.
          5    1    1    2  501    0 -0.44289730990E+01  0.19759844621E+01 -0.38113707567E+03  0.38119690550E+03  0.47000000000E+01 0.  1.
         -5    1    1    2    0  502  0.44289730990E+01 -0.19759844621E+01 -0.56368026594E+02  0.56771161160E+02  0.47000000000E+01 0. -1.
<mgrwt>
<rscale>  2 0.67535411E+01</rscale>
<asrwt>0</asrwt>
<pdfrwt beam="1">  1       21 0.35613032E-04 0.67535411E+01</pdfrwt>
<pdfrwt beam="2">  1       21 0.67343361E-01 0.67535411E+01</pdfrwt>
<totfact> 0.45561885E+08</totfact>
</mgrwt>
</event>
<event>
 4    1  0.3900819E+006  0.5853906E+01  0.7546771E-02  0.2434835E+00
         21   -1    0    0  503  502  0.00000000000E+00  0.00000000000E+00  0.12297816868E+03  0.12297816868E+03  0.00000000000E+00 0. -1.
         21   -1    0    0  501  503 -0.00000000000E+00 -0.00000000000E+00 -0.46253639109E+00  0.46253639109E+00  0.00000000000E+00 0. -1.
          5    1    1    2  501    0  0.25781697041E+01  0.23518635276E+01  0.22341937879E+02  0.23096112428E+02  0.47000000000E+01 0. -1.
         -5    1    1    2    0  502 -0.25781697041E+01 -0.23518635276E+01  0.10017369441E+03  0.10034459264E+03  0.47000000000E+01 0. -1.
<mgrwt>
<rscale>  2 0.58539065E+01</rscale>
<asrwt>0</asrwt>
<pdfrwt beam="1">  1       21 0.18919692E-01 0.58539065E+01</pdfrwt>
<pdfrwt beam="2">  1       21 0.71159542E-04 0.58539065E+01</pdfrwt>
<totfact> 0.14719314E+09</totfact>
</mgrwt>
</event>
<event>
 4    1  0.3900819E+006  0.6078202E+01  0.7546771E-02  0.2405355E+00
         21   -1    0    0  501  502  0.00000000000E+00  0.00000000000E+00  0.18580117363E+01  0.18580117363E+01  0.00000000000E+00 0. -1.
         21   -1    0    0  502  503 -0.00000000000E+00 -0.00000000000E+00 -0.22760795373E+02  0.22760795373E+02  0.00000000000E+00 0. -1.
          5    1    1    2  501    0 -0.32793754330E+01 -0.20249042197E+01 -0.60751180449E+01  0.85936953396E+01  0.47000000000E+01 0. -1.
         -5    1    1    2    0  503  0.32793754330E+01  0.20249042197E+01 -0.14827665592E+02  0.16025111769E+02  0.47000000000E+01 0. -1.
<mgrwt>
<rscale>  2 0.60782021E+01</rscale>
<asrwt>0</asrwt>
<pdfrwt beam="1">  1       21 0.28584797E-03 0.60782021E+01</pdfrwt>
<pdfrwt beam="2">  1       21 0.35016607E-02 0.60782021E+01</pdfrwt>
<totfact> 0.30199888E+09</totfact>
</mgrwt>
</event>
<event>
 4    1  0.3900819E+006  0.6901060E+01  0.7546771E-02  0.2311085E+00
         21   -1    0    0  503  502  0.00000000000E+00  0.00000000000E+00  0.20375410476E+01  0.20375410476E+01  0.00000000000E+00 0. -1.
         21   -1    0    0  501  503 -0.00000000000E+00 -0.00000000000E+00 -0.27920859436E+02  0.27920859436E+02  0.00000000000E+00 0.  1.
          5    1    1    2  501    0  0.46173852562E+01  0.20528971623E+01 -0.18986709886E+02  0.20201974796E+02  0.47000000000E+01 0.  1.
         -5    1    1    2    0  502 -0.46173852562E+01 -0.20528971623E+01 -0.68966085026E+01  0.97564256878E+01  0.47000000000E+01 0. -1.
<mgrwt>
<rscale>  2 0.69010603E+01</rscale>
<asrwt>0</asrwt>
<pdfrwt beam="1">  1       21 0.31346786E-03 0.69010603E+01</pdfrwt>
<pdfrwt beam="2">  1       21 0.42955168E-02 0.69010603E+01</pdfrwt>
<totfact> 0.21843422E+09</totfact>
</mgrwt>
</event>
<event>
 4    1  0.3900819E+006  0.5938245E+01  0.7546771E-02  0.2423531E+00
         21   -1    0    0  501  502  0.00000000000E+00  0.00000000000E+00  0.38672499670E+03  0.38672499670E+03  0.00000000000E+00 0. -1.
         21   -1    0    0  502  503 -0.00000000000E+00 -0.00000000000E+00 -0.13710358797E+00  0.13710358797E+00  0.00000000000E+00 0. -1.
          5    1    1    2  501    0 -0.27411418305E+01  0.23788427579E+01  0.30523913347E+03  0.30529689050E+03  0.47000000000E+01 0. -1.
         -5    1    1    2    0  503  0.27411418305E+01 -0.23788427579E+01  0.81348759640E+02  0.81565209779E+02  0.47000000000E+01 0. -1.
<mgrwt>
<rscale>  2 0.59382448E+01</rscale>
<asrwt>0</asrwt>
<pdfrwt beam="1">  1       21 0.59495280E-01 0.59382448E+01</pdfrwt>
<pdfrwt beam="2">  1       21 0.21093169E-04 0.59382448E+01</pdfrwt>
<totfact> 0.10621588E+09</totfact>
</mgrwt>
</event>
<event>
 4    1  0.3900819E+006  0.5299339E+01  0.7546771E-02  0.2516642E+00
         21   -1    0    0  503  502  0.00000000000E+00  0.00000000000E+00  0.86927661919E+01  0.86927661919E+01  0.00000000000E+00 0.  1.
         21   -1    0    0  501  503 -0.00000000000E+00 -0.00000000000E+00 -0.34205174957E+01  0.34205174957E+01  0.00000000000E+00 0.  1.
          5    1    1    2  501    0 -0.17219730329E+01 -0.17400567900E+01  0.12090379048E+01  0.54355093058E+01  0.47000000000E+01 0.  1.
         -5    1    1    2    0  502  0.17219730329E+01  0.17400567900E+01  0.40632107914E+01  0.66777743818E+01  0.47000000000E+01 0.  1.
<mgrwt>
<rscale>  2 0.52993385E+01</rscale>
<asrwt>0</asrwt>
<pdfrwt beam="1">  1       21 0.13373486E-02 0.52993385E+01</pdfrwt>
<pdfrwt beam="2">  1       21 0.52623346E-03 0.52993385E+01</pdfrwt>
<totfact> 0.45636520E+09</totfact>
</mgrwt>
</event>
<event>
 4    1  0.3900819E+006  0.4707711E+01  0.7546771E-02  0.2621773E+00
         21   -1    0    0  501  502  0.00000000000E+00  0.00000000000E+00  0.49071711901E+02  0.49071711901E+02  0.00000000000E+00 0. -1.
         21   -1    0    0  502  503 -0.00000000000E+00 -0.00000000000E+00 -0.59678699422E+00  0.59678699422E+00  0.00000000000E+00 0. -1.
          5    1    1    2  501    0  0.70126093062E-01  0.26005272629E+00  0.36485078761E+02  0.36787545682E+02  0.47000000000E+01 0. -1.
         -5    1    1    2    0  503 -0.70126093062E-01 -0.26005272629E+00  0.11989846146E+02  0.12880953214E+02  0.47000000000E+01 0. -1.
<mgrwt>
<rscale>  2 0.47077112E+01</rscale>
<asrwt>0</asrwt>
<pdfrwt beam="1">  1       21 0.75494910E-02 0.47077112E+01</pdfrwt>
<pdfrwt beam="2">  1       21 0.91813422E-04 0.47077112E+01</pdfrwt>
<totfact> 0.35167142E+09</totfact>
</mgrwt>
</event>
<event>
 4    1  0.3900819E+006  0.1425762E+02  0.7546771E-02  0.1891605E+00
         21   -1    0    0  503  502  0.00000000000E+00  0.00000000000E+00  0.26617399149E+02  0.26617399149E+02  0.00000000000E+00 0.  1.
         21   -1    0    0  501  503 -0.00000000000E+00 -0.00000000000E+00 -0.14029259406E+02  0.14029259406E+02  0.00000000000E+00 0. -1.
          5    1    1    2  501    0  0.10134682765E+02 -0.88587700307E+01 -0.74242667420E+01  0.16074804442E+02  0.47000000000E+01 0. -1.
         -5    1    1    2    0  502 -0.10134682765E+02  0.88587700307E+01  0.20012406485E+02  0.24571854113E+02  0.47000000000E+01 0.  1.
<mgrwt>
<rscale>  2 0.14257616E+02</rscale>
<asrwt>0</asrwt>
<pdfrwt beam="1">  1       21 0.40949845E-02 0.14257616E+02</pdfrwt>
<pdfrwt beam="2">  1       21 0.21583476E-02 0.14257616E+02</pdfrwt>
<totfact> 0.22005465E+08</totfact>
</mgrwt>
</event>
<event>
 4    1  0.3900819E+006  0.7255705E+01  0.7546771E-02  0.2275962E+00
         21   -1    0    0  501  502  0.00000000000E+00  0.00000000000E+00  0.11662567531E+03  0.11662567531E+03  0.00000000000E+00 0.  1.
         21   -1    0    0  502  503 -0.00000000000E+00 -0.00000000000E+00 -0.97097671270E+00  0.97097671270E+00  0.00000000000E+00 0.  1.
          5    1    1    2  501    0 -0.15084424248E+01 -0.53178810175E+01  0.10083877741E+03  0.10109947719E+03  0.47000000000E+01 0.  1.
         -5    1    1    2    0  503  0.15084424248E+01  0.53178810175E+01  0.14815921185E+02  0.16497174837E+02  0.47000000000E+01 0.  1.
<mgrwt>
<rscale>  2 0.72557051E+01</rscale>
<asrwt>0</asrwt>
<pdfrwt beam="1">  1       21 0.17942400E-01 0.72557051E+01</pdfrwt>
<pdfrwt beam="2">  1       21 0.14938113E-03 0.72557051E+01</pdfrwt>
<totfact> 0.68893909E+08</totfact>
</mgrwt>
</event>
<event>
 4    1  0.3900819E+006  0.5297425E+01  0.7546771E-02  0.2516949E+00
         21   -1    0    0  501  502  0.00000000000E+00  0.00000000000E+00  0.49068925528E+02  0.49068925528E+02  0.00000000000E+00 0. -1.
         21   -1    0    0  502  503 -0.00000000000E+00 -0.00000000000E+00 -0.57279795842E+00  0.57279795842E+00  0.00000000000E+00 0. -1.
          5    1    1    2  501    0 -0.15545390806E+01  0.18857686993E+01  0.23267508613E+02  0.23862935117E+02  0.47000000000E+01 0. -1.
         -5    1    1    2    0  503  0.15545390806E+01 -0.18857686993E+01  0.25228618956E+02  0.25778788369E+02  0.47000000000E+01 0. -1.
<mgrwt>
<rscale>  2 0.52974254E+01</rscale>
<asrwt>0</asrwt>
<pdfrwt beam="1">  1       21 0.75490621E-02 0.52974254E+01</pdfrwt>
<pdfrwt beam="2">  1       21 0.88122802E-04 0.52974254E+01</pdfrwt>
<totfact> 0.41889874E+09</totfact>
</mgrwt>
</event>
<event>
 4    1  0.3900819E+006  0.9038306E+01  0.7546771E-02  0.2134240E+00
         21   -1    0    0  503  502  0.00000000000E+00  0.00000000000E+00  0.68058388532E+00  0.68058388532E+00  0.00000000000E+00 0.  1.
         21   -1    0    0  501  503 -0.00000000000E+00 -0.00000000000E+00 -0.12411454506E+03  0.12411454506E+03  0.00000000000E+00 0. -1.
          5    1    1    2  501    0  0.17820841967E+01  0.75116678728E+01 -0.73035497105E+02  0.73592627455E+02  0.47000000000E+01 0. -1.
         -5    1    1    2    0  502 -0.17820841967E+01 -0.75116678728E+01 -0.50398464072E+02  0.51202501493E+02  0.47000000000E+01 0.  1.
<mgrwt>
<rscale>  2 0.90383062E+01</rscale>
<asrwt>0</asrwt>
<pdfrwt beam="1">  1       21 0.10470520E-03 0.90383062E+01</pdfrwt>
<pdfrwt beam="2">  1       21 0.19094548E-01 0.90383062E+01</pdfrwt>
<totfact> 0.11623597E+09</totfact>
</mgrwt>
</event>
<event>
 4    1  0.3900819E+006  0.6207435E+01  0.7546771E-02  0.2389183E+00
         21   -1    0    0  503  502  0.00000000000E+00  0.00000000000E+00  0.18688401765E+01  0.18688401765E+01  0.00000000000E+00 0.  1.
         21   -1    0    0  501  503 -0.00000000000E+00 -0.00000000000E+00 -0.27644736910E+02  0.27644736910E+02  0.00000000000E+00 0. -1.
          5    1    1    2  501    0  0.32539344965E+01 -0.24195380042E+01 -0.20327625434E+02  0.21254284501E+02  0.47000000000E+01 0. -1.
         -5    1    1    2    0  502 -0.32539344965E+01  0.24195380042E+01 -0.54482712997E+01  0.82592925857E+01  0.47000000000E+01 0.  1.
<mgrwt>
<rscale>  2 0.62074354E+01</rscale>
<asrwt>0</asrwt>
<pdfrwt beam="1">  1       21 0.28751388E-03 0.62074354E+01</pdfrwt>
<pdfrwt beam="2">  1       21 0.42530364E-02 0.62074354E+01</pdfrwt>
<totfact> 0.22925946E+09</totfact>
</mgrwt>
</event>
<event>
 4    1  0.3900819E+006  0.5052099E+01  0.7546771E-02  0.2557994E+00
         21   -1    0    0  501  502  0.00000000000E+00  0.00000000000E+00  0.27190982055E+03  0.27190982055E+03  0.00000000000E+00 0.  1.
         21   -1    0    0  502  503 -0.00000000000E+00 -0.00000000000E+00 -0.14150074028E+00  0.14150074028E+00  0.00000000000E+00 0.  1.
          5    1    1    2  501    0  0.70006959270E+00  0.17156937501E+01  0.21480524968E+03  0.21486465273E+03  0.47000000000E+01 0.  1.
         -5    1    1    2    0  503 -0.70006959270E+00 -0.17156937501E+01  0.56963070130E+02  0.57186668561E+02  0.47000000000E+01 0.  1.
<mgrwt>
<rscale>  2 0.50520988E+01</rscale>
<asrwt>0</asrwt>
<pdfrwt beam="1">  1       21 0.41831862E-01 0.50520988E+01</pdfrwt>
<pdfrwt beam="2">  1       21 0.21769562E-04 0.50520988E+01</pdfrwt>
<totfact> 0.16810847E+09</totfact>
</mgrwt>
</event>
<event>
 4    1  0.3900819E+006  0.8625891E+01  0.7546771E-02  0.2162813E+00
         21   -1    0    0  501  502  0.00000000000E+00  0.00000000000E+00  0.57186981812E+01  0.57186981812E+01  0.00000000000E+00 0.  1.
         21   -1    0    0  502  503 -0.00000000000E+00 -0.00000000000E+00 -0.30825769569E+02  0.30825769569E+02  0.00000000000E+00 0.  1.
          5    1    1    2  501    0 -0.72099817901E+01  0.57632679354E+00  0.13371846903E+01  0.87289204878E+01  0.47000000000E+01 0.  1.
         -5    1    1    2    0  503  0.72099817901E+01 -0.57632679354E+00 -0.26444256078E+02  0.27815547263E+02  0.47000000000E+01 0.  1.
<mgrwt>
<rscale>  2 0.86258907E+01</rscale>
<asrwt>0</asrwt>
<pdfrwt beam="1">  1       21 0.87979970E-03 0.86258907E+01</pdfrwt>
<pdfrwt beam="2">  1       21 0.47424262E-02 0.86258907E+01</pdfrwt>
<totfact> 0.51188197E+08</totfact>
</mgrwt>
</event>
<event>
 4    1  0.3900819E+006  0.5467141E+01  0.7546771E-02  0.2490407E+00
         21   -1    0    0  501  502  0.00000000000E+00  0.00000000000E+00  0.79685761361E+00  0.79685761361E+00  0.00000000000E+00 0. -1.
         21   -1    0    0  502  503 -0.00000000000E+00 -0.00000000000E+00 -0.11642935444E+03  0.11642935444E+03  0.00000000000E+00 0.  1.
          5    1    1    2  501    0  0.25744918195E+01  0.10824162717E+01 -0.95596210457E+01  0.11012537748E+02  0.47000000000E+01 0. -1.
         -5    1    1    2    0  503 -0.25744918195E+01 -0.10824162717E+01 -0.10607287578E+03  0.10621367431E+03  0.47000000000E+01 0.  1.
<mgrwt>
<rscale>  2 0.54671412E+01</rscale>
<asrwt>0</asrwt>
<pdfrwt beam="1">  1       21 0.12259349E-03 0.54671412E+01</pdfrwt>
<pdfrwt beam="2">  1       21 0.17912207E-01 0.54671412E+01</pdfrwt>
<totfact> 0.73397993E+08</totfact>
</mgrwt>
</event>
<event>
 4    1  0.3900819E+006  0.5099265E+01  0.7546771E-02  0.2549840E+00
         21   -1    0    0  503  502  0.00000000000E+00  0.00000000000E+00  0.55028332837E+01  0.55028332837E+01  0.00000000000E+00 0.  1.
         21   -1    0    0  501  503 -0.00000000000E+00 -0.00000000000E+00 -0.50130377582E+01  0.50130377582E+01  0.00000000000E+00 0.  1.
          5    1    1    2  501    0  0.27680328459E+00 -0.19585407302E+01 -0.10148052540E+01  0.51992625971E+01  0.47000000000E+01 0.  1.
         -5    1    1    2    0  502 -0.27680328459E+00  0.19585407302E+01  0.15046007795E+01  0.53166084448E+01  0.47000000000E+01 0.  1.
<mgrwt>
<rscale>  2 0.50992648E+01</rscale>
<asrwt>0</asrwt>
<pdfrwt beam="1">  1       21 0.84658973E-03 0.50992648E+01</pdfrwt>
<pdfrwt beam="2">  1       21 0.77123658E-03 0.50992648E+01</pdfrwt>
<totfact> 0.49002837E+09</totfact>
</mgrwt>
</event>
<event>
 4    1  0.3900819E+006  0.5018834E+01  0.7546771E-02  0.2563823E+00
         21   -1    0    0  501  502  0.00000000000E+00  0.00000000000E+00  0.24848891287E+03  0.24848891287E+03  0.00000000000E+00 0. -1.
         21   -1    0    0  502  503 -0.00000000000E+00 -0.00000000000E+00 -0.11330497922E+00  0.11330497922E+00  0.00000000000E+00 0. -1.
          5    1    1    2  501    0  0.17422718071E+01 -0.25136291492E+00  0.83841177898E+02  0.83991260293E+02  0.47000000000E+01 0. -1.
         -5    1    1    2    0  503 -0.17422718071E+01  0.25136291492E+00  0.16453443000E+03  0.16461095756E+03  0.47000000000E+01 0. -1.
<mgrwt>
<rscale>  2 0.50188340E+01</rscale>
<asrwt>0</asrwt>
<pdfrwt beam="1">  1       21 0.38228627E-01 0.50188340E+01</pdfrwt>
<pdfrwt beam="2">  1       21 0.17431734E-04 0.50188340E+01</pdfrwt>
<totfact> 0.26189877E+09</totfact>
</mgrwt>
</event>
<event>
 4    1  0.3900819E+006  0.5363462E+01  0.7546771E-02  0.2506452E+00
         21   -1    0    0  501  502  0.00000000000E+00  0.00000000000E+00  0.28514631509E+01  0.28514631509E+01  0.00000000000E+00 0. -1.
         21   -1    0    0  502  503 -0.00000000000E+00 -0.00000000000E+00 -0.10088549130E+02  0.10088549130E+02  0.00000000000E+00 0. -1.
          5    1    1    2  501    0  0.84793821056E-01  0.25825434432E+01 -0.35942527772E+01  0.64564211181E+01  0.47000000000E+01 0. -1.
         -5    1    1    2    0  503 -0.84793821056E-01 -0.25825434432E+01 -0.36428332015E+01  0.64835911625E+01  0.47000000000E+01 0. -1.
<mgrwt>
<rscale>  2 0.53634616E+01</rscale>
<asrwt>0</asrwt>
<pdfrwt beam="1">  1       21 0.43868664E-03 0.53634616E+01</pdfrwt>
<pdfrwt beam="2">  1       21 0.15520845E-02 0.53634616E+01</pdfrwt>
<totfact> 0.48102275E+09</totfact>
</mgrwt>
</event>
<event>
 4    1  0.3900819E+006  0.1097604E+02  0.7546771E-02  0.2023355E+00
         21   -1    0    0  501  502  0.00000000000E+00  0.00000000000E+00  0.21307892376E+00  0.21307892376E+00  0.00000000000E+00 0. -1.
         21   -1    0    0  502  503 -0.00000000000E+00 -0.00000000000E+00 -0.66263949325E+03  0.66263949325E+03  0.00000000000E+00 0.  1.
          5    1    1    2  501    0 -0.67425954377E+01 -0.72746762680E+01 -0.20424838129E+03  0.20454308780E+03  0.47000000000E+01 0.  1.
         -5    1    1    2    0  503  0.67425954377E+01  0.72746762680E+01 -0.45817803304E+03  0.45830948437E+03  0.47000000000E+01 0. -1.
<mgrwt>
<rscale>  2 0.10976042E+02</rscale>
<asrwt>0</asrwt>
<pdfrwt beam="1">  1       21 0.32781121E-04 0.10976042E+02</pdfrwt>
<pdfrwt beam="2">  1       21 0.10194532E+00 0.10976042E+02</pdfrwt>
<totfact> 0.28525817E+08</totfact>
</mgrwt>
</event>
<event>
 4    1  0.3900819E+006  0.5590392E+01  0.7546771E-02  0.2471992E+00
         21   -1    0    0  501  502  0.00000000000E+00  0.00000000000E+00  0.94211154287E+02  0.94211154287E+02  0.00000000000E+00 0.  1.
         21   -1    0    0  502  503 -0.00000000000E+00 -0.00000000000E+00 -0.33173550690E+00  0.33173550690E+00  0.00000000000E+00 0.  1.
          5    1    1    2  501    0 -0.29166555273E+01 -0.80969504791E+00  0.47163345395E+02  0.47493511498E+02  0.47000000000E+01 0.  1.
         -5    1    1    2    0  503  0.29166555273E+01  0.80969504791E+00  0.46716073386E+02  0.47049378297E+02  0.47000000000E+01 0.  1.
<mgrwt>
<rscale>  2 0.55903923E+01</rscale>
<asrwt>0</asrwt>
<pdfrwt beam="1">  1       21 0.14494002E-01 0.55903923E+01</pdfrwt>
<pdfrwt beam="2">  1       21 0.51036307E-04 0.55903923E+01</pdfrwt>
<totfact> 0.33639768E+09</totfact>
</mgrwt>
</event>
<event>
 4    1  0.3900819E+006  0.6792620E+01  0.7546771E-02  0.2322423E+00
         21   -1    0    0  501  502  0.00000000000E+00  0.00000000000E+00  0.63117210348E+02  0.63117210348E+02  0.00000000000E+00 0.  1.
         21   -1    0    0  502  503 -0.00000000000E+00 -0.00000000000E+00 -0.12497833884E+01  0.12497833884E+01  0.00000000000E+00 0. -1.
          5    1    1    2  501    0  0.21349726516E+01 -0.44149271625E+01  0.51668625333E+02  0.52113208824E+02  0.47000000000E+01 0.  1.
         -5    1    1    2    0  503 -0.21349726516E+01  0.44149271625E+01  0.10198801626E+02  0.12253784912E+02  0.47000000000E+01 0. -1.
<mgrwt>
<rscale>  2 0.67926203E+01</rscale>
<asrwt>0</asrwt>
<pdfrwt beam="1">  1       21 0.97103376E-02 0.67926203E+01</pdfrwt>
<pdfrwt beam="2">  1       21 0.19227442E-03 0.67926203E+01</pdfrwt>
<totfact> 0.12304530E+09</totfact>
</mgrwt>
</event>
<event>
 4    1  0.3900819E+006  0.4745077E+01  0.7546771E-02  0.2614466E+00
         21   -1    0    0  501  502  0.00000000000E+00  0.00000000000E+00  0.45238796892E+00  0.45238796892E+00  0.00000000000E+00 0. -1.
         21   -1    0    0  502  503 -0.00000000000E+00 -0.00000000000E+00 -0.50380196985E+02  0.50380196985E+02  0.00000000000E+00 0. -1.
          5    1    1    2  501    0  0.45328750072E-01 -0.65092566337E+00 -0.22168821098E+02  0.22670959128E+02  0.47000000000E+01 0. -1.
         -5    1    1    2    0  503 -0.45328750072E-01  0.65092566337E+00 -0.27758987918E+02  0.28161625825E+02  0.47000000000E+01 0. -1.
<mgrwt>
<rscale>  2 0.47450773E+01</rscale>
<asrwt>0</asrwt>
<pdfrwt beam="1">  1       21 0.69598182E-04 0.47450773E+01</pdfrwt>
<pdfrwt beam="2">  1       21 0.77507959E-02 0.47450773E+01</pdfrwt>
<totfact> 0.49186069E+09</totfact>
</mgrwt>
</event>
<event>
 4    1  0.3900819E+006  0.7288903E+01  0.7546771E-02  0.2272817E+00
         21   -1    0    0  503  502  0.00000000000E+00  0.00000000000E+00  0.16744369020E+02  0.16744369020E+02  0.00000000000E+00 0.  1.
         21   -1    0    0  501  503 -0.00000000000E+00 -0.00000000000E+00 -0.47571595617E+01  0.47571595617E+01  0.00000000000E+00 0. -1.
          5    1    1    2  501    0  0.42588528603E+01 -0.35916956904E+01 -0.21050529767E+00  0.72919419978E+01  0.47000000000E+01 0. -1.
         -5    1    1    2    0  502 -0.42588528603E+01  0.35916956904E+01  0.12197714756E+02  0.14209586584E+02  0.47000000000E+01 0.  1.
<mgrwt>
<rscale>  2 0.72889029E+01</rscale>
<asrwt>0</asrwt>
<pdfrwt beam="1">  1       21 0.25760567E-02 0.72889029E+01</pdfrwt>
<pdfrwt beam="2">  1       21 0.73187071E-03 0.72889029E+01</pdfrwt>
<totfact> 0.14757676E+09</totfact>
</mgrwt>
</event>
<event>
 4    1  0.3900819E+006  0.6661837E+01  0.7546771E-02  0.2336499E+00
         21   -1    0    0  501  502  0.00000000000E+00  0.00000000000E+00  0.36565363014E+02  0.36565363014E+02  0.00000000000E+00 0. -1.
         21   -1    0    0  502  503 -0.00000000000E+00 -0.00000000000E+00 -0.43902095444E+01  0.43902095444E+01  0.00000000000E+00 0.  1.
          5    1    1    2  501    0 -0.33991768419E+01  0.32765328631E+01  0.33506213954E+02  0.34162061477E+02  0.47000000000E+01 0. -1.
         -5    1    1    2    0  503  0.33991768419E+01 -0.32765328631E+01 -0.13310604844E+01  0.67935110818E+01  0.47000000000E+01 0.  1.
<mgrwt>
<rscale>  2 0.66618369E+01</rscale>
<asrwt>0</asrwt>
<pdfrwt beam="1">  1       21 0.56254403E-02 0.66618369E+01</pdfrwt>
<pdfrwt beam="2">  1       21 0.67541687E-03 0.66618369E+01</pdfrwt>
<totfact> 0.48703272E+08</totfact>
</mgrwt>
</event>
<event>
 4    1  0.3900819E+006  0.7675529E+01  0.7546771E-02  0.2237838E+00
         21   -1    0    0  503  502  0.00000000000E+00  0.00000000000E+00  0.25047715282E+01  0.25047715282E+01  0.00000000000E+00 0. -1.
         21   -1    0    0  501  503 -0.00000000000E+00 -0.00000000000E+00 -0.23521196570E+02  0.23521196570E+02  0.00000000000E+00 0.  1.
          5    1    1    2  501    0 -0.72583135658E+00 -0.60246921481E+01 -0.10573364880E+02  0.13065595720E+02  0.47000000000E+01 0. -1.
         -5    1    1    2    0  502  0.72583135658E+00  0.60246921481E+01 -0.10443060162E+02  0.12960372378E+02  0.47000000000E+01 0. -1.
<mgrwt>
<rscale>  2 0.76755291E+01</rscale>
<asrwt>0</asrwt>
<pdfrwt beam="1">  1       21 0.38534948E-03 0.76755291E+01</pdfrwt>
<pdfrwt beam="2">  1       21 0.36186455E-02 0.76755291E+01</pdfrwt>
<totfact> 0.22915244E+09</totfact>
</mgrwt>
</event>
<event>
 4    1  0.3900819E+006  0.4764251E+01  0.7546771E-02  0.2610755E+00
         21   -1    0    0  501  502  0.00000000000E+00  0.00000000000E+00  0.82061904728E+01  0.82061904728E+01  0.00000000000E+00 0.  1.
         21   -1    0    0  502  503 -0.00000000000E+00 -0.00000000000E+00 -0.14979145880E+02  0.14979145880E+02  0.00000000000E+00 0.  1.
          5    1    1    2  501    0  0.36737602809E+00 -0.68783864715E+00  0.70812920819E+01  0.85347984569E+01  0.47000000000E+01 0.  1.
         -5    1    1    2    0  503 -0.36737602809E+00  0.68783864715E+00 -0.13854247489E+02  0.14650537896E+02  0.47000000000E+01 0.  1.
<mgrwt>
<rscale>  2 0.47642510E+01</rscale>
<asrwt>0</asrwt>
<pdfrwt beam="1">  1       21 0.12624909E-02 0.47642510E+01</pdfrwt>
<pdfrwt beam="2">  1       21 0.23044839E-02 0.47642510E+01</pdfrwt>
<totfact> 0.56489204E+08</totfact>
</mgrwt>
</event>
<event>
 4    1  0.3900819E+006  0.6920658E+01  0.7546771E-02  0.2309068E+00
         21   -1    0    0  503  502  0.00000000000E+00  0.00000000000E+00  0.83456821667E+01  0.83456821667E+01  0.00000000000E+00 0.  1.
         21   -1    0    0  501  503 -0.00000000000E+00 -0.00000000000E+00 -0.88896459091E+01  0.88896459091E+01  0.00000000000E+00 0.  1.
          5    1    1    2  501    0  0.43190695292E+01  0.26741624831E+01 -0.54023688778E+01  0.87795840492E+01  0.47000000000E+01 0.  1.
         -5    1    1    2    0  502 -0.43190695292E+01 -0.26741624831E+01  0.48584051353E+01  0.84557440266E+01  0.47000000000E+01 0.  1.
<mgrwt>
<rscale>  2 0.69206580E+01</rscale>
<asrwt>0</asrwt>
<pdfrwt beam="1">  1       21 0.12839511E-02 0.69206580E+01</pdfrwt>
<pdfrwt beam="2">  1       21 0.13676378E-02 0.69206580E+01</pdfrwt>
<totfact> 0.15955950E+09</totfact>
</mgrwt>
</event>
<event>
 4    1  0.3900819E+006  0.5622488E+01  0.7546771E-02  0.2467310E+00
         21   -1    0    0  503  502  0.00000000000E+00  0.00000000000E+00  0.14610627389E+03  0.14610627389E+03  0.00000000000E+00 0. -1.
         21   -1    0    0  501  503 -0.00000000000E+00 -0.00000000000E+00 -0.18215814737E+01  0.18215814737E+01  0.00000000000E+00 0. -1.
          5    1    1    2  501    0  0.25734523126E+01  0.17028543358E+01  0.27099122703E+01  0.62414737207E+01  0.47000000000E+01 0. -1.
         -5    1    1    2    0  502 -0.25734523126E+01 -0.17028543358E+01  0.14157478015E+03  0.14168638165E+03  0.47000000000E+01 0. -1.
<mgrwt>
<rscale>  2 0.56224879E+01</rscale>
<asrwt>0</asrwt>
<pdfrwt beam="1">  1       21 0.22477879E-01 0.56224879E+01</pdfrwt>
<pdfrwt beam="2">  1       21 0.28024342E-03 0.56224879E+01</pdfrwt>
<totfact> 0.17013465E+08</totfact>
</mgrwt>
</event>
<event>
 4    1  0.3900819E+006  0.5803336E+01  0.7546771E-02  0.2441745E+00
         21   -1    0    0  503  502  0.00000000000E+00  0.00000000000E+00  0.42718118838E+01  0.42718118838E+01  0.00000000000E+00 0.  1.
         21   -1    0    0  501  503 -0.00000000000E+00 -0.00000000000E+00 -0.92457679394E+01  0.92457679394E+01  0.00000000000E+00 0.  1.
          5    1    1    2  501    0 -0.32802453032E+01  0.91033038057E+00 -0.50809094824E+01  0.77132581844E+01  0.47000000000E+01 0.  1.
         -5    1    1    2    0  502  0.32802453032E+01 -0.91033038057E+00  0.10695342686E+00  0.58043216388E+01  0.47000000000E+01 0.  1.
<mgrwt>
<rscale>  2 0.58033362E+01</rscale>
<asrwt>0</asrwt>
<pdfrwt beam="1">  1       21 0.65720183E-03 0.58033362E+01</pdfrwt>
<pdfrwt beam="2">  1       21 0.14224258E-02 0.58033362E+01</pdfrwt>
<totfact> 0.33513965E+09</totfact>
</mgrwt>
</event>
<event>
 4    1  0.3900819E+006  0.4738835E+01  0.7546771E-02  0.2615680E+00
         21   -1    0    0  503  502  0.00000000000E+00  0.00000000000E+00  0.17183600103E+00  0.17183600103E+00  0.00000000000E+00 0. -1.
         21   -1    0    0  501  503 -0.00000000000E+00 -0.00000000000E+00 -0.17057843285E+03  0.17057843285E+03  0.00000000000E+00 0. -1.
          5    1    1    2  501    0 -0.14242912942E+00  0.58844628350E+00 -0.12649043328E+03  0.12657916995E+03  0.47000000000E+01 0. -1.
         -5    1    1    2    0  502  0.14242912942E+00 -0.58844628350E+00 -0.43916163573E+02  0.44171098901E+02  0.47000000000E+01 0. -1.
<mgrwt>
<rscale>  2 0.47388348E+01</rscale>
<asrwt>0</asrwt>
<pdfrwt beam="1">  1       21 0.26436300E-04 0.47388348E+01</pdfrwt>
<pdfrwt beam="2">  1       21 0.26242843E-01 0.47388348E+01</pdfrwt>
<totfact> 0.26777032E+09</totfact>
</mgrwt>
</event>
<event>
 4    1  0.3900819E+006  0.5077941E+01  0.7546771E-02  0.2553510E+00
         21   -1    0    0  501  502  0.00000000000E+00  0.00000000000E+00  0.37197588904E+02  0.37197588904E+02  0.00000000000E+00 0. -1.
         21   -1    0    0  502  503 -0.00000000000E+00 -0.00000000000E+00 -0.80370449665E+00  0.80370449665E+00  0.00000000000E+00 0. -1.
          5    1    1    2  501    0  0.18597988832E+01 -0.48645353983E+00  0.25242312168E+02  0.25748005991E+02  0.47000000000E+01 0. -1.
         -5    1    1    2    0  503 -0.18597988832E+01  0.48645353983E+00  0.11151572240E+02  0.12253287410E+02  0.47000000000E+01 0. -1.
<mgrwt>
<rscale>  2 0.50779414E+01</rscale>
<asrwt>0</asrwt>
<pdfrwt beam="1">  1       21 0.57227046E-02 0.50779414E+01</pdfrwt>
<pdfrwt beam="2">  1       21 0.12364687E-03 0.50779414E+01</pdfrwt>
<totfact> 0.38561697E+09</totfact>
</mgrwt>
</event>
<event>
 4    1  0.3900819E+006  0.5678550E+01  0.7546771E-02  0.2459238E+00
         21   -1    0    0  501  502  0.00000000000E+00  0.00000000000E+00  0.62933237409E+00  0.62933237409E+00  0.00000000000E+00 0. -1.
         21   -1    0    0  502  503 -0.00000000000E+00 -0.00000000000E+00 -0.82686833572E+02  0.82686833572E+02  0.00000000000E+00 0. -1.
          5    1    1    2  501    0 -0.30708833312E+01 -0.85182602390E+00 -0.15337740567E+02  0.16355189321E+02  0.47000000000E+01 0. -1.
         -5    1    1    2    0  503  0.30708833312E+01  0.85182602390E+00 -0.66719760630E+02  0.66960976625E+02  0.47000000000E+01 0. -1.
<mgrwt>
<rscale>  2 0.56785502E+01</rscale>
<asrwt>0</asrwt>
<pdfrwt beam="1">  1       21 0.96820295E-04 0.56785502E+01</pdfrwt>
<pdfrwt beam="2">  1       21 0.12721061E-01 0.56785502E+01</pdfrwt>
<totfact> 0.17777217E+09</totfact>
</mgrwt>
</event>
<event>
 4    1  0.3900819E+006  0.5261106E+01  0.7546771E-02  0.2522819E+00
         21   -1    0    0  501  502  0.00000000000E+00  0.00000000000E+00  0.59311168637E+01  0.59311168637E+01  0.00000000000E+00 0.  1.
         21   -1    0    0  502  503 -0.00000000000E+00 -0.00000000000E+00 -0.21654327685E+02  0.21654327685E+02  0.00000000000E+00 0.  1.
          5    1    1    2  501    0 -0.43047185798E+00 -0.23246346409E+01  0.43547863673E+01  0.68295970993E+01  0.47000000000E+01 0.  1.
         -5    1    1    2    0  503  0.43047185798E+00  0.23246346409E+01 -0.20077997189E+02  0.20755847449E+02  0.47000000000E+01 0.  1.
<mgrwt>
<rscale>  2 0.52611056E+01</rscale>
<asrwt>0</asrwt>
<pdfrwt beam="1">  1       21 0.91247954E-03 0.52611056E+01</pdfrwt>
<pdfrwt beam="2">  1       21 0.33314349E-02 0.52611056E+01</pdfrwt>
<totfact> 0.57423825E+08</totfact>
</mgrwt>
</event>
<event>
 4    1  0.3900819E+006  0.5086726E+01  0.7546771E-02  0.2551995E+00
         21   -1    0    0  501  502  0.00000000000E+00  0.00000000000E+00  0.15267184077E+02  0.15267184077E+02  0.00000000000E+00 0.  1.
         21   -1    0    0  502  503 -0.00000000000E+00 -0.00000000000E+00 -0.26325190533E+01  0.26325190533E+01  0.00000000000E+00 0. -1.
          5    1    1    2  501    0 -0.14469297964E+01 -0.13004529150E+01  0.11658879427E+02  0.12720230073E+02  0.47000000000E+01 0.  1.
         -5    1    1    2    0  503  0.14469297964E+01  0.13004529150E+01  0.97578559670E+00  0.51794730572E+01  0.47000000000E+01 0. -1.
<mgrwt>
<rscale>  2 0.50867262E+01</rscale>
<asrwt>0</asrwt>
<pdfrwt beam="1">  1       21 0.23487975E-02 0.50867262E+01</pdfrwt>
<pdfrwt beam="2">  1       21 0.40500294E-03 0.50867262E+01</pdfrwt>
<totfact> 0.28233523E+09</totfact>
</mgrwt>
</event>
<event>
 4    1  0.3900819E+006  0.5394124E+01  0.7546771E-02  0.2501652E+00
         21   -1    0    0  503  502  0.00000000000E+00  0.00000000000E+00  0.54190276403E+02  0.54190276403E+02  0.00000000000E+00 0. -1.
         21   -1    0    0  501  503 -0.00000000000E+00 -0.00000000000E+00 -0.15285349175E+01  0.15285349175E+01  0.00000000000E+00 0. -1.
          5    1    1    2  501    0 -0.25842802306E+01  0.57277049413E+00  0.38919092933E+01  0.66515808870E+01  0.47000000000E+01 0. -1.
         -5    1    1    2    0  502  0.25842802306E+01 -0.57277049413E+00  0.48769832192E+02  0.49067230434E+02  0.47000000000E+01 0. -1.
<mgrwt>
<rscale>  2 0.53941237E+01</rscale>
<asrwt>0</asrwt>
<pdfrwt beam="1">  1       21 0.83369641E-02 0.53941237E+01</pdfrwt>
<pdfrwt beam="2">  1       21 0.23515926E-03 0.53941237E+01</pdfrwt>
<totfact> 0.98241761E+08</totfact>
</mgrwt>
</event>
<event>
 4    1  0.3900819E+006  0.8679453E+01  0.7546771E-02  0.2158980E+00
         21   -1    0    0  503  502  0.00000000000E+00  0.00000000000E+00  0.24739549866E+03  0.24739549866E+03  0.00000000000E+00 0.  1.
         21   -1    0    0  501  503 -0.00000000000E+00 -0.00000000000E+00 -0.62922887407E+00  0.62922887407E+00  0.00000000000E+00 0.  1.
          5    1    1    2  501    0 -0.18066124007E+01  0.70695868240E+01  0.34295285159E+02  0.35376538699E+02  0.47000000000E+01 0.  1.
         -5    1    1    2    0  502  0.18066124007E+01 -0.70695868240E+01  0.21247098462E+03  0.21264818883E+03  0.47000000000E+01 0.  1.
<mgrwt>
<rscale>  2 0.86794531E+01</rscale>
<asrwt>0</asrwt>
<pdfrwt beam="1">  1       21 0.38060768E-01 0.86794531E+01</pdfrwt>
<pdfrwt beam="2">  1       21 0.96804640E-04 0.86794531E+01</pdfrwt>
<totfact> 0.38828039E+08</totfact>
</mgrwt>
</event>
<event>
 4    1  0.3900819E+006  0.5821521E+01  0.7546771E-02  0.2439248E+00
         21   -1    0    0  503  502  0.00000000000E+00  0.00000000000E+00  0.19241559362E+01  0.19241559362E+01  0.00000000000E+00 0. -1.
         21   -1    0    0  501  503 -0.00000000000E+00 -0.00000000000E+00 -0.28095208577E+02  0.28095208577E+02  0.00000000000E+00 0. -1.
          5    1    1    2  501    0  0.21545004394E+00  0.34283644415E+01 -0.22253690482E+02  0.23002539893E+02  0.47000000000E+01 0. -1.
         -5    1    1    2    0  502 -0.21545004394E+00 -0.34283644415E+01 -0.39173621587E+01  0.70168246200E+01  0.47000000000E+01 0. -1.
<mgrwt>
<rscale>  2 0.58215205E+01</rscale>
<asrwt>0</asrwt>
<pdfrwt beam="1">  1       21 0.29602402E-03 0.58215205E+01</pdfrwt>
<pdfrwt beam="2">  1       21 0.43223394E-02 0.58215205E+01</pdfrwt>
<totfact> 0.20357912E+09</totfact>
</mgrwt>
</event>
<event>
 4    1  0.3900819E+006  0.8480636E+01  0.7546771E-02  0.2173402E+00
         21   -1    0    0  501  502  0.00000000000E+00  0.00000000000E+00  0.14663729939E+04  0.14663729939E+04  0.00000000000E+00 0. -1.
         21   -1    0    0  502  503 -0.00000000000E+00 -0.00000000000E+00 -0.10087996865E+00  0.10087996865E+00  0.00000000000E+00 0. -1.
          5    1    1    2  501    0 -0.62525114427E+00  0.70313762420E+01  0.12587234289E+04  0.12587519977E+04  0.47000000000E+01 0. -1.
         -5    1    1    2    0  503  0.62525114427E+00 -0.70313762420E+01  0.20754868497E+03  0.20772187613E+03  0.47000000000E+01 0. -1.
<mgrwt>
<rscale>  2 0.84806362E+01</rscale>
<asrwt>0</asrwt>
<pdfrwt beam="1">  1       21 0.22557877E+00 0.84806362E+01</pdfrwt>
<pdfrwt beam="2">  1       21 0.15521170E-04 0.84806362E+01</pdfrwt>
<totfact> 0.11910241E+08</totfact>
</mgrwt>
</event>
<event>
 4    1  0.3900819E+006  0.5877215E+01  0.7546771E-02  0.2431683E+00
         21   -1    0    0  503  502  0.00000000000E+00  0.00000000000E+00  0.44905642836E+00  0.44905642836E+00  0.00000000000E+00 0. -1.
         21   -1    0    0  501  503 -0.00000000000E+00 -0.00000000000E+00 -0.79023074979E+02  0.79023074979E+02  0.00000000000E+00 0.  1.
          5    1    1    2  501    0 -0.95293379231E+00  0.33975837949E+01 -0.45768584314E+02  0.46144392602E+02  0.47000000000E+01 0.  1.
         -5    1    1    2    0  502  0.95293379231E+00 -0.33975837949E+01 -0.32805434237E+02  0.33327738806E+02  0.47000000000E+01 0. -1.
<mgrwt>
<rscale>  2 0.58772152E+01</rscale>
<asrwt>0</asrwt>
<pdfrwt beam="1">  1       21 0.69085590E-04 0.58772152E+01</pdfrwt>
<pdfrwt beam="2">  1       21 0.12157399E-01 0.58772152E+01</pdfrwt>
<totfact> 0.30855725E+09</totfact>
</mgrwt>
</event>
<event>
 4    1  0.3900819E+006  0.6993650E+01  0.7546771E-02  0.2301634E+00
         21   -1    0    0  503  502  0.00000000000E+00  0.00000000000E+00  0.11729170244E+02  0.11729170244E+02  0.00000000000E+00 0. -1.
         21   -1    0    0  501  503 -0.00000000000E+00 -0.00000000000E+00 -0.47896351441E+01  0.47896351441E+01  0.00000000000E+00 0.  1.
          5    1    1    2  501    0 -0.34843589536E+01  0.38314989214E+01  0.49912453608E+00  0.70114382693E+01  0.47000000000E+01 0.  1.
         -5    1    1    2    0  502  0.34843589536E+01 -0.38314989214E+01  0.64404105643E+01  0.95073671192E+01  0.47000000000E+01 0.  1.
<mgrwt>
<rscale>  2 0.69936501E+01</rscale>
<asrwt>0</asrwt>
<pdfrwt beam="1">  1       21 0.18044877E-02 0.69936501E+01</pdfrwt>
<pdfrwt beam="2">  1       21 0.73686695E-03 0.69936501E+01</pdfrwt>
<totfact> 0.23779092E+09</totfact>
</mgrwt>
</event>
<event>
 4    1  0.3900819E+006  0.1452408E+02  0.7546771E-02  0.1882949E+00
         21   -1    0    0  503  502  0.00000000000E+00  0.00000000000E+00  0.11603630102E+03  0.11603630102E+03  0.00000000000E+00 0.  1.
         21   -1    0    0  501  503 -0.00000000000E+00 -0.00000000000E+00 -0.26225793274E+01  0.26225793274E+01  0.00000000000E+00 0. -1.
          5    1    1    2  501    0  0.13714891827E+02 -0.87208436008E+00  0.23844218712E+02  0.27919447612E+02  0.47000000000E+01 0. -1.
         -5    1    1    2    0  502 -0.13714891827E+02  0.87208436008E+00  0.89569502976E+02  0.90739432731E+02  0.47000000000E+01 0.  1.
<mgrwt>
<rscale>  2 0.14524076E+02</rscale>
<asrwt>0</asrwt>
<pdfrwt beam="1">  1       21 0.17851735E-01 0.14524076E+02</pdfrwt>
<pdfrwt beam="2">  1       21 0.40347383E-03 0.14524076E+02</pdfrwt>
<totfact> 0.24565708E+08</totfact>
</mgrwt>
</event>
<event>
 4    1  0.3900819E+006  0.6273637E+01  0.7546771E-02  0.2381114E+00
         21   -1    0    0  503  502  0.00000000000E+00  0.00000000000E+00  0.33415892865E+01  0.33415892865E+01  0.00000000000E+00 0.  1.
         21   -1    0    0  501  503 -0.00000000000E+00 -0.00000000000E+00 -0.24293231715E+02  0.24293231715E+02  0.00000000000E+00 0. -1.
          5    1    1    2  501    0  0.19272350520E+01  0.36816144683E+01 -0.20393197867E+02  0.21336378308E+02  0.47000000000E+01 0. -1.
         -5    1    1    2    0  502 -0.19272350520E+01 -0.36816144683E+01 -0.55844456128E+00  0.62984426938E+01  0.47000000000E+01 0. -1.
<mgrwt>
<rscale>  2 0.62736369E+01</rscale>
<asrwt>0</asrwt>
<pdfrwt beam="1">  1       21 0.51409067E-03 0.62736369E+01</pdfrwt>
<pdfrwt beam="2">  1       21 0.37374202E-02 0.62736369E+01</pdfrwt>
<totfact> 0.12515715E+09</totfact>
</mgrwt>
</event>
<event>
 4    1  0.3900819E+006  0.4727868E+01  0.7546771E-02  0.2617819E+00
         21   -1    0    0  503  502  0.00000000000E+00  0.00000000000E+00  0.20917202932E+02  0.20917202932E+02  0.00000000000E+00 0. -1.
         21   -1    0    0  501  503 -0.00000000000E+00 -0.00000000000E+00 -0.25254004606E+01  0.25254004606E+01  0.00000000000E+00 0. -1.
          5    1    1    2  501    0 -0.16946066037E+00  0.48375648400E+00  0.29351617931E+00  0.47369704452E+01  0.47000000000E+01 0. -1.
         -5    1    1    2    0  502  0.16946066037E+00 -0.48375648400E+00  0.18098286292E+02  0.18705632947E+02  0.47000000000E+01 0. -1.
<mgrwt>
<rscale>  2 0.47278682E+01</rscale>
<asrwt>0</asrwt>
<pdfrwt beam="1">  1       21 0.32180311E-02 0.47278682E+01</pdfrwt>
<pdfrwt beam="2">  1       21 0.38852316E-03 0.47278682E+01</pdfrwt>
<totfact> 0.17689274E+09</totfact>
</mgrwt>
</event>
<event>
 4    1  0.3900819E+006  0.8738427E+01  0.7546771E-02  0.2154804E+00
         21   -1    0    0  501  502  0.00000000000E+00  0.00000000000E+00  0.14101359365E+01  0.14101359365E+01  0.00000000000E+00 0.  1.
         21   -1    0    0  502  503 -0.00000000000E+00 -0.00000000000E+00 -0.25227642855E+03  0.25227642855E+03  0.00000000000E+00 0. -1.
          5    1    1    2  501    0 -0.39121202800E+01  0.62422285140E+01 -0.13024588628E+02  0.15684387487E+02  0.47000000000E+01 0.  1.
         -5    1    1    2    0  503  0.39121202800E+01 -0.62422285140E+01 -0.23784170399E+03  0.23800217700E+03  0.47000000000E+01 0. -1.
<mgrwt>
<rscale>  2 0.87384267E+01</rscale>
<asrwt>0</asrwt>
<pdfrwt beam="1">  1       21 0.21694386E-03 0.87384267E+01</pdfrwt>
<pdfrwt beam="2">  1       21 0.38811781E-01 0.87384267E+01</pdfrwt>
<totfact> 0.12358325E+08</totfact>
</mgrwt>
</event>
<event>
 4    1  0.3900819E+006  0.7279944E+01  0.7546771E-02  0.2273664E+00
         21   -1    0    0  503  502  0.00000000000E+00  0.00000000000E+00  0.40500579235E+01  0.40500579235E+01  0.00000000000E+00 0. -1.
         21   -1    0    0  501  503 -0.00000000000E+00 -0.00000000000E+00 -0.13589674528E+03  0.13589674528E+03  0.00000000000E+00 0. -1.
          5    1    1    2  501    0 -0.44292109101E+00  0.55417876737E+01 -0.13244258440E+03  0.13264251111E+03  0.47000000000E+01 0. -1.
         -5    1    1    2    0  502  0.44292109101E+00 -0.55417876737E+01  0.59589704734E+00  0.73042920946E+01  0.47000000000E+01 0. -1.
<mgrwt>
<rscale>  2 0.72799443E+01</rscale>
<asrwt>0</asrwt>
<pdfrwt beam="1">  1       21 0.62308584E-03 0.72799443E+01</pdfrwt>
<pdfrwt beam="2">  1       21 0.20907191E-01 0.72799443E+01</pdfrwt>
<totfact> 0.73960699E+07</totfact>
</mgrwt>
</event>
<event>
 4    1  0.3900819E+006  0.8967391E+01  0.7546771E-02  0.2139004E+00
         21   -1    0    0  503  502  0.00000000000E+00  0.00000000000E+00  0.35097119377E+01  0.35097119377E+01  0.00000000000E+00 0.  1.
         21   -1    0    0  501  503 -0.00000000000E+00 -0.00000000000E+00 -0.82626813164E+02  0.82626813164E+02  0.00000000000E+00 0. -1.
          5    1    1    2  501    0  0.53842923877E+01 -0.54160411129E+01 -0.76171803768E+02  0.76697834357E+02  0.47000000000E+01 0. -1.
         -5    1    1    2    0  502 -0.53842923877E+01  0.54160411129E+01 -0.29452974587E+01  0.94386907446E+01  0.47000000000E+01 0.  1.
<mgrwt>
<rscale>  2 0.89673913E+01</rscale>
<asrwt>0</asrwt>
<pdfrwt beam="1">  1       21 0.53995576E-03 0.89673913E+01</pdfrwt>
<pdfrwt beam="2">  1       21 0.12711816E-01 0.89673913E+01</pdfrwt>
<totfact> 0.22698089E+08</totfact>
</mgrwt>
</event>
<event>
 4    1  0.3900819E+006  0.7551942E+01  0.7546771E-02  0.2248703E+00
         21   -1    0    0  503  502  0.00000000000E+00  0.00000000000E+00  0.18401634485E+02  0.18401634485E+02  0.00000000000E+00 0. -1.
         21   -1    0    0  501  503 -0.00000000000E+00 -0.00000000000E+00 -0.43140777860E+01  0.43140777860E+01  0.00000000000E+00 0. -1.
          5    1    1    2  501    0 -0.37512724637E+01  0.45683463503E+01  0.10167363128E+01  0.76200778345E+01  0.47000000000E+01 0. -1.
         -5    1    1    2    0  502  0.37512724637E+01 -0.45683463503E+01  0.13070820387E+02  0.15095634437E+02  0.47000000000E+01 0. -1.
<mgrwt>
<rscale>  2 0.75519424E+01</rscale>
<asrwt>0</asrwt>
<pdfrwt beam="1">  1       21 0.28310206E-02 0.75519424E+01</pdfrwt>
<pdfrwt beam="2">  1       21 0.66370429E-03 0.75519424E+01</pdfrwt>
<totfact> 0.15144085E+09</totfact>
</mgrwt>
</event>
<event>
 4    1  0.3900819E+006  0.5466767E+01  0.7546771E-02  0.2490464E+00
         21   -1    0    0  501  502  0.00000000000E+00  0.00000000000E+00  0.13136006531E+02  0.13136006531E+02  0.00000000000E+00 0.  1.
         21   -1    0    0  502  503 -0.00000000000E+00 -0.00000000000E+00 -0.24045210965E+01  0.24045210965E+01  0.00000000000E+00 0.  1.
          5    1    1    2  501    0 -0.26157915574E+01 -0.97630490589E+00  0.71685466293E+01  0.90151870484E+01  0.47000000000E+01 0.  1.
         -5    1    1    2    0  503  0.26157915574E+01  0.97630490589E+00  0.35629388047E+01  0.65253405786E+01  0.47000000000E+01 0.  1.
<mgrwt>
<rscale>  2 0.54667666E+01</rscale>
<asrwt>0</asrwt>
<pdfrwt beam="1">  1       21 0.20209240E-02 0.54667666E+01</pdfrwt>
<pdfrwt beam="2">  1       21 0.36992633E-03 0.54667666E+01</pdfrwt>
<totfact> 0.42573124E+09</totfact>
</mgrwt>
</event>
<event>
 4    1  0.3900819E+006  0.5842826E+01  0.7546771E-02  0.2436340E+00
         21   -1    0    0  503  502  0.00000000000E+00  0.00000000000E+00  0.17849695510E+04  0.17849695510E+04  0.00000000000E+00 0. -1.
         21   -1    0    0  501  503 -0.00000000000E+00 -0.00000000000E+00 -0.45318529549E-01  0.45318529549E-01  0.00000000000E+00 0. -1.
          5    1    1    2  501    0  0.26280697418E+01 -0.22675675547E+01  0.21393692332E+03  0.21401669508E+03  0.47000000000E+01 0. -1.
         -5    1    1    2    0  502 -0.26280697418E+01  0.22675675547E+01  0.15709873092E+04  0.15709981745E+04  0.47000000000E+01 0. -1.
<mgrwt>
<rscale>  2 0.58428258E+01</rscale>
<asrwt>0</asrwt>
<pdfrwt beam="1">  1       21 0.27455440E+00 0.58428258E+01</pdfrwt>
<pdfrwt beam="2">  1       21 0.69735111E-05 0.58428258E+01</pdfrwt>
<totfact> 0.18542240E+08</totfact>
</mgrwt>
</event>
<event>
 4    1  0.3900819E+006  0.5579952E+01  0.7546771E-02  0.2473526E+00
         21   -1    0    0  503  502  0.00000000000E+00  0.00000000000E+00  0.90903702133E+01  0.90903702133E+01  0.00000000000E+00 0.  1.
         21   -1    0    0  501  503 -0.00000000000E+00 -0.00000000000E+00 -0.80488689589E+01  0.80488689589E+01  0.00000000000E+00 0. -1.
          5    1    1    2  501    0 -0.12897861298E+01 -0.27170415804E+01 -0.59744104253E+01  0.81749277147E+01  0.47000000000E+01 0. -1.
         -5    1    1    2    0  502  0.12897861298E+01  0.27170415804E+01  0.70159116797E+01  0.89643114575E+01  0.47000000000E+01 0.  1.
<mgrwt>
<rscale>  2 0.55799519E+01</rscale>
<asrwt>0</asrwt>
<pdfrwt beam="1">  1       21 0.13985185E-02 0.55799519E+01</pdfrwt>
<pdfrwt beam="2">  1       21 0.12382875E-02 0.55799519E+01</pdfrwt>
<totfact> 0.13627518E+09</totfact>
</mgrwt>
</event>
<event>
 4    1  0.3900819E+006  0.6205260E+01  0.7546771E-02  0.2389450E+00
         21   -1    0    0  503  502  0.00000000000E+00  0.00000000000E+00  0.51510235819E-01  0.51510235819E-01  0.00000000000E+00 0.  1.
         21   -1    0    0  501  503 -0.00000000000E+00 -0.00000000000E+00 -0.11434666574E+04  0.11434666574E+04  0.00000000000E+00 0.  1.
          5    1    1    2  501    0 -0.37447905534E+01  0.15465447737E+01 -0.90815421312E+03  0.90817541261E+03  0.47000000000E+01 0.  1.
         -5    1    1    2    0  502  0.37447905534E+01 -0.15465447737E+01 -0.23526093406E+03  0.23534275505E+03  0.47000000000E+01 0.  1.
<mgrwt>
<rscale>  2 0.62052604E+01</rscale>
<asrwt>0</asrwt>
<pdfrwt beam="1">  1       21 0.79248280E-05 0.62052604E+01</pdfrwt>
<pdfrwt beam="2">  1       21 0.17591403E+00 0.62052604E+01</pdfrwt>
<totfact> 0.44717250E+08</totfact>
</mgrwt>
</event>
<event>
 4    1  0.3900819E+006  0.4167882E+02  0.7546771E-02  0.1496208E+00
         21   -1    0    0  501  502  0.00000000000E+00  0.00000000000E+00  0.78376520904E+02  0.78376520904E+02  0.00000000000E+00 0.  1.
         21   -1    0    0  502  503 -0.00000000000E+00 -0.00000000000E+00 -0.82514172270E+02  0.82514172270E+02  0.00000000000E+00 0. -1.
          5    1    1    2  501    0  0.17641526610E+02 -0.37467461981E+02  0.66729284561E+02  0.78676054721E+02  0.47000000000E+01 0.  1.
         -5    1    1    2    0  503 -0.17641526610E+02  0.37467461981E+02 -0.70866935927E+02  0.82214638454E+02  0.47000000000E+01 0. -1.
<mgrwt>
<rscale>  2 0.41678822E+02</rscale>
<asrwt>0</asrwt>
<pdfrwt beam="1">  1       21 0.12057926E-01 0.41678822E+02</pdfrwt>
<pdfrwt beam="2">  1       21 0.12694488E-01 0.41678822E+02</pdfrwt>
<totfact> 0.28510792E+06</totfact>
</mgrwt>
</event>
<event>
 4    1  0.3900819E+006  0.6445448E+01  0.7546771E-02  0.2360819E+00
         21   -1    0    0  503  502  0.00000000000E+00  0.00000000000E+00  0.82621887558E+01  0.82621887558E+01  0.00000000000E+00 0. -1.
         21   -1    0    0  501  503 -0.00000000000E+00 -0.00000000000E+00 -0.53944141691E+01  0.53944141691E+01  0.00000000000E+00 0.  1.
          5    1    1    2  501    0  0.43821557251E+01 -0.50050697322E+00  0.32130606541E+01  0.72019132733E+01  0.47000000000E+01 0. -1.
         -5    1    1    2    0  502 -0.43821557251E+01  0.50050697322E+00 -0.34528606732E+00  0.64546896516E+01  0.47000000000E+01 0.  1.
<mgrwt>
<rscale>  2 0.64454477E+01</rscale>
<asrwt>0</asrwt>
<pdfrwt beam="1">  1       21 0.12711060E-02 0.64454477E+01</pdfrwt>
<pdfrwt beam="2">  1       21 0.82990988E-03 0.64454477E+01</pdfrwt>
<totfact> 0.31112494E+09</totfact>
</mgrwt>
</event>
<event>
 4    1  0.3900819E+006  0.4762985E+01  0.7546771E-02  0.2610999E+00
         21   -1    0    0  503  502  0.00000000000E+00  0.00000000000E+00  0.21249499421E+02  0.21249499421E+02  0.00000000000E+00 0.  1.
         21   -1    0    0  501  503 -0.00000000000E+00 -0.00000000000E+00 -0.39134323927E+01  0.39134323927E+01  0.00000000000E+00 0.  1.
          5    1    1    2  501    0 -0.66054386664E+00 -0.39962986891E+00 -0.20609056601E+01  0.51897354819E+01  0.47000000000E+01 0.  1.
         -5    1    1    2    0  502  0.66054386664E+00  0.39962986891E+00  0.19396972688E+02  0.19973196331E+02  0.47000000000E+01 0.  1.
<mgrwt>
<rscale>  2 0.47629846E+01</rscale>
<asrwt>0</asrwt>
<pdfrwt beam="1">  1       21 0.32691537E-02 0.47629846E+01</pdfrwt>
<pdfrwt beam="2">  1       21 0.60206653E-03 0.47629846E+01</pdfrwt>
<totfact> 0.95708951E+08</totfact>
</mgrwt>
</event>
<event>
 4    1  0.3900819E+006  0.6358108E+01  0.7546771E-02  0.2371022E+00
         21   -1    0    0  503  502  0.00000000000E+00  0.00000000000E+00  0.14307002347E+03  0.14307002347E+03  0.00000000000E+00 0. -1.
         21   -1    0    0  501  503 -0.00000000000E+00 -0.00000000000E+00 -0.29740189792E+00  0.29740189792E+00  0.00000000000E+00 0.  1.
          5    1    1    2  501    0  0.35498616514E+01 -0.23945817897E+01  0.55371320035E+02  0.55735165041E+02  0.47000000000E+01 0.  1.
         -5    1    1    2    0  502 -0.35498616514E+01  0.23945817897E+01  0.87401301539E+02  0.87632260330E+02  0.47000000000E+01 0.  1.
<mgrwt>
<rscale>  2 0.63581082E+01</rscale>
<asrwt>0</asrwt>
<pdfrwt beam="1">  1       21 0.22010718E-01 0.63581082E+01</pdfrwt>
<pdfrwt beam="2">  1       21 0.45754252E-04 0.63581082E+01</pdfrwt>
<totfact> 0.22219163E+09</totfact>
</mgrwt>
</event>
<event>
 4    1  0.3900819E+006  0.5343062E+01  0.7546771E-02  0.2509671E+00
         21   -1    0    0  501  502  0.00000000000E+00  0.00000000000E+00  0.14504262510E+04  0.14504262510E+04  0.00000000000E+00 0. -1.
         21   -1    0    0  502  503 -0.00000000000E+00 -0.00000000000E+00 -0.77976892890E-01  0.77976892890E-01  0.00000000000E+00 0.  1.
          5    1    1    2  501    0 -0.11720841464E+01  0.22548899247E+01  0.13522479637E+04  0.13522585195E+04  0.47000000000E+01 0. -1.
         -5    1    1    2    0  503  0.11720841464E+01 -0.22548899247E+01  0.98100310414E+02  0.98245708370E+02  0.47000000000E+01 0.  1.
<mgrwt>
<rscale>  2 0.53430618E+01</rscale>
<asrwt>0</asrwt>
<pdfrwt beam="1">  1       21 0.22312090E+00 0.53430618E+01</pdfrwt>
<pdfrwt beam="2">  1       21 0.11997607E-04 0.53430618E+01</pdfrwt>
<totfact> 0.13907154E+08</totfact>
</mgrwt>
</event>
<event>
 4    1  0.3900819E+006  0.5697716E+01  0.7546771E-02  0.2456509E+00
         21   -1    0    0  503  502  0.00000000000E+00  0.00000000000E+00  0.52266974108E+00  0.52266974108E+00  0.00000000000E+00 0. -1.
         21   -1    0    0  501  503 -0.00000000000E+00 -0.00000000000E+00 -0.92548818275E+02  0.92548818275E+02  0.00000000000E+00 0. -1.
          5    1    1    2  501    0 -0.23093817559E+01  0.22451552384E+01 -0.19325925900E+02  0.20148334374E+02  0.47000000000E+01 0. -1.
         -5    1    1    2    0  502  0.23093817559E+01 -0.22451552384E+01 -0.72700222634E+02  0.72923153642E+02  0.47000000000E+01 0. -1.
<mgrwt>
<rscale>  2 0.56977159E+01</rscale>
<asrwt>0</asrwt>
<pdfrwt beam="1">  1       21 0.80410749E-04 0.56977159E+01</pdfrwt>
<pdfrwt beam="2">  1       21 0.14238276E-01 0.56977159E+01</pdfrwt>
<totfact> 0.19174812E+09</totfact>
</mgrwt>
</event>
<event>
 4    1  0.3900819E+006  0.5270901E+01  0.7546771E-02  0.2521229E+00
         21   -1    0    0  501  502  0.00000000000E+00  0.00000000000E+00  0.94552267709E+00  0.94552267709E+00  0.00000000000E+00 0.  1.
         21   -1    0    0  502  503 -0.00000000000E+00 -0.00000000000E+00 -0.32592756151E+02  0.32592756151E+02  0.00000000000E+00 0. -1.
          5    1    1    2  501    0  0.13053298781E+01 -0.19971247993E+01 -0.10561275047E+02  0.11803513213E+02  0.47000000000E+01 0.  1.
         -5    1    1    2    0  503 -0.13053298781E+01  0.19971247993E+01 -0.21085958428E+02  0.21734765616E+02  0.47000000000E+01 0. -1.
<mgrwt>
<rscale>  2 0.52709006E+01</rscale>
<asrwt>0</asrwt>
<pdfrwt beam="1">  1       21 0.14546505E-03 0.52709006E+01</pdfrwt>
<pdfrwt beam="2">  1       21 0.50142695E-02 0.52709006E+01</pdfrwt>
<totfact> 0.39122112E+09</totfact>
</mgrwt>
</event>
<event>
 4    1  0.3900819E+006  0.5847351E+01  0.7546771E-02  0.2435725E+00
         21   -1    0    0  501  502  0.00000000000E+00  0.00000000000E+00  0.17173404969E+04  0.17173404969E+04  0.00000000000E+00 0. -1.
         21   -1    0    0  502  503 -0.00000000000E+00 -0.00000000000E+00 -0.21885711723E-01  0.21885711723E-01  0.00000000000E+00 0.  1.
          5    1    1    2  501    0  0.85619871663E+00  0.33717107292E+01  0.60063492547E+03  0.60066338760E+03  0.47000000000E+01 0. -1.
         -5    1    1    2    0  503 -0.85619871663E+00 -0.33717107292E+01  0.11166836857E+04  0.11166989950E+04  0.47000000000E+01 0.  1.
<mgrwt>
<rscale>  2 0.58473506E+01</rscale>
<asrwt>0</asrwt>
<pdfrwt beam="1">  1       21 0.26409834E+00 0.58473506E+01</pdfrwt>
<pdfrwt beam="2">  1       21 0.33684080E-05 0.58473506E+01</pdfrwt>
<totfact> 0.54579269E+08</totfact>
</mgrwt>
</event>
<event>
 4    1  0.3900819E+006  0.7658208E+01  0.7546771E-02  0.2239344E+00
         21   -1    0    0  501  502  0.00000000000E+00  0.00000000000E+00  0.28489779402E+03  0.28489779402E+03  0.00000000000E+00 0.  1.
         21   -1    0    0  502  503 -0.00000000000E+00 -0.00000000000E+00 -0.90923502593E+00  0.90923502593E+00  0.00000000000E+00 0.  1.
          5    1    1    2  501    0  0.59528196349E+01  0.10592850960E+01  0.26768386468E+03  0.26779338968E+03  0.47000000000E+01 0.  1.
         -5    1    1    2    0  503 -0.59528196349E+01 -0.10592850960E+01  0.16304694316E+02  0.18013639367E+02  0.47000000000E+01 0.  1.
<mgrwt>
<rscale>  2 0.76582078E+01</rscale>
<asrwt>0</asrwt>
<pdfrwt beam="1">  1       21 0.43830359E-01 0.76582078E+01</pdfrwt>
<pdfrwt beam="2">  1       21 0.13988254E-03 0.76582078E+01</pdfrwt>
<totfact> 0.17031484E+08</totfact>
</mgrwt>
</event>
<event>
 4    1  0.3900819E+006  0.9852102E+01  0.7546771E-02  0.2083504E+00
         21   -1    0    0  501  502  0.00000000000E+00  0.00000000000E+00  0.14054557303E+02  0.14054557303E+02  0.00000000000E+00 0. -1.
         21   -1    0    0  502  503 -0.00000000000E+00 -0.00000000000E+00 -0.33660537126E+02  0.33660537126E+02  0.00000000000E+00 0.  1.
          5    1    1    2  501    0  0.72554506338E+01  0.47257123581E+01  0.11466749727E+02  0.15117879166E+02  0.47000000000E+01 0. -1.
         -5    1    1    2    0  503 -0.72554506338E+01 -0.47257123581E+01 -0.31072729550E+02  0.32597215263E+02  0.47000000000E+01 0.  1.
<mgrwt>
<rscale>  2 0.98521024E+01</rscale>
<asrwt>0</asrwt>
<pdfrwt beam="1">  1       21 0.21622396E-02 0.98521024E+01</pdfrwt>
<pdfrwt beam="2">  1       21 0.51785442E-02 0.98521024E+01</pdfrwt>
<totfact> 0.12971962E+08</totfact>
</mgrwt>
</event>
<event>
 4    1  0.3900819E+006  0.7651041E+01  0.7546771E-02  0.2239968E+00
         21   -1    0    0  503  502  0.00000000000E+00  0.00000000000E+00  0.64282035629E+01  0.64282035629E+01  0.00000000000E+00 0. -1.
         21   -1    0    0  501  503 -0.00000000000E+00 -0.00000000000E+00 -0.33792399447E+02  0.33792399447E+02  0.00000000000E+00 0. -1.
          5    1    1    2  501    0 -0.50881152748E+01 -0.32495408452E+01 -0.30870422619E+02  0.31804424620E+02  0.47000000000E+01 0. -1.
         -5    1    1    2    0  502  0.50881152748E+01  0.32495408452E+01  0.35062267355E+01  0.84161783889E+01  0.47000000000E+01 0. -1.
<mgrwt>
<rscale>  2 0.76510413E+01</rscale>
<asrwt>0</asrwt>
<pdfrwt beam="1">  1       21 0.98895439E-03 0.76510413E+01</pdfrwt>
<pdfrwt beam="2">  1       21 0.51988307E-02 0.76510413E+01</pdfrwt>
<totfact> 0.35007748E+08</totfact>
</mgrwt>
</event>
<event>
 4    1  0.3900819E+006  0.5666739E+01  0.7546771E-02  0.2460927E+00
         21   -1    0    0  501  502  0.00000000000E+00  0.00000000000E+00  0.11288805411E+02  0.11288805411E+02  0.00000000000E+00 0. -1.
         21   -1    0    0  502  503 -0.00000000000E+00 -0.00000000000E+00 -0.43460835218E+01  0.43460835218E+01  0.00000000000E+00 0. -1.
          5    1    1    2  501    0 -0.30298892535E+01  0.91744543427E+00  0.80662880820E+01  0.98578363972E+01  0.47000000000E+01 0. -1.
         -5    1    1    2    0  503  0.30298892535E+01 -0.91744543427E+00 -0.11235661925E+01  0.57770525359E+01  0.47000000000E+01 0. -1.
<mgrwt>
<rscale>  2 0.56667394E+01</rscale>
<asrwt>0</asrwt>
<pdfrwt beam="1">  1       21 0.17367393E-02 0.56667394E+01</pdfrwt>
<pdfrwt beam="2">  1       21 0.66862824E-03 0.56667394E+01</pdfrwt>
<totfact> 0.24102408E+09</totfact>
</mgrwt>
</event>
<event>
 4    1  0.3900819E+006  0.5822824E+01  0.7546771E-02  0.2439070E+00
         21   -1    0    0  503  502  0.00000000000E+00  0.00000000000E+00  0.16736765532E+01  0.16736765532E+01  0.00000000000E+00 0. -1.
         21   -1    0    0  501  503 -0.00000000000E+00 -0.00000000000E+00 -0.21836530698E+02  0.21836530698E+02  0.00000000000E+00 0. -1.
          5    1    1    2  501    0 -0.89895993468E+00 -0.33177019323E+01 -0.13242004705E+02  0.14465682275E+02  0.47000000000E+01 0. -1.
         -5    1    1    2    0  502  0.89895993468E+00  0.33177019323E+01 -0.69208494395E+01  0.90445249760E+01  0.47000000000E+01 0. -1.
<mgrwt>
<rscale>  2 0.58228236E+01</rscale>
<asrwt>0</asrwt>
<pdfrwt beam="1">  1       21 0.25748870E-03 0.58228236E+01</pdfrwt>
<pdfrwt beam="2">  1       21 0.33594662E-02 0.58228236E+01</pdfrwt>
<totfact> 0.35634169E+09</totfact>
</mgrwt>
</event>
<event>
 4    1  0.3900819E+006  0.5476684E+01  0.7546771E-02  0.2488956E+00
         21   -1    0    0  501  502  0.00000000000E+00  0.00000000000E+00  0.55510227576E+00  0.55510227576E+00  0.00000000000E+00 0.  1.
         21   -1    0    0  502  503 -0.00000000000E+00 -0.00000000000E+00 -0.55839243175E+02  0.55839243175E+02  0.00000000000E+00 0. -1.
          5    1    1    2  501    0 -0.75366978797E+00  0.27085140757E+01 -0.22571286635E+02  0.23226214651E+02  0.47000000000E+01 0. -1.
         -5    1    1    2    0  503  0.75366978797E+00 -0.27085140757E+01 -0.32712854264E+02  0.33168130799E+02  0.47000000000E+01 0. -1.
<mgrwt>
<rscale>  2 0.54766839E+01</rscale>
<asrwt>0</asrwt>
<pdfrwt beam="1">  1       21 0.85400352E-04 0.54766839E+01</pdfrwt>
<pdfrwt beam="2">  1       21 0.85906526E-02 0.54766839E+01</pdfrwt>
<totfact> 0.37134399E+09</totfact>
</mgrwt>
</event>
<event>
 4    1  0.3900819E+006  0.6757306E+01  0.7546771E-02  0.2326179E+00
         21   -1    0    0  501  502  0.00000000000E+00  0.00000000000E+00  0.15136134845E+03  0.15136134845E+03  0.00000000000E+00 0. -1.
         21   -1    0    0  502  503 -0.00000000000E+00 -0.00000000000E+00 -0.32624555465E+00  0.32624555465E+00  0.00000000000E+00 0. -1.
          5    1    1    2  501    0  0.36355197523E+01  0.32177908374E+01  0.96333644027E+02  0.96570348209E+02  0.47000000000E+01 0. -1.
         -5    1    1    2    0  503 -0.36355197523E+01 -0.32177908374E+01  0.54701458870E+02  0.55117245797E+02  0.47000000000E+01 0. -1.
<mgrwt>
<rscale>  2 0.67573058E+01</rscale>
<asrwt>0</asrwt>
<pdfrwt beam="1">  1       21 0.23286305E-01 0.67573058E+01</pdfrwt>
<pdfrwt beam="2">  1       21 0.50191745E-04 0.67573058E+01</pdfrwt>
<totfact> 0.18730962E+09</totfact>
</mgrwt>
</event>
<event>
 4    1  0.3900819E+006  0.7104094E+01  0.7546771E-02  0.2290626E+00
         21   -1    0    0  503  502  0.00000000000E+00  0.00000000000E+00  0.29408115536E+01  0.29408115536E+01  0.00000000000E+00 0.  1.
         21   -1    0    0  501  503 -0.00000000000E+00 -0.00000000000E+00 -0.19108468168E+02  0.19108468168E+02  0.00000000000E+00 0. -1.
          5    1    1    2  501    0  0.20654611436E+01 -0.49103999741E+01 -0.45645558578E+01  0.84441297847E+01  0.47000000000E+01 0. -1.
         -5    1    1    2    0  502 -0.20654611436E+01  0.49103999741E+01 -0.11603100756E+02  0.13605149937E+02  0.47000000000E+01 0. -1.
<mgrwt>
<rscale>  2 0.71040944E+01</rscale>
<asrwt>0</asrwt>
<pdfrwt beam="1">  1       21 0.45243255E-03 0.71040944E+01</pdfrwt>
<pdfrwt beam="2">  1       21 0.29397643E-02 0.71040944E+01</pdfrwt>
<totfact> 0.23472422E+09</totfact>
</mgrwt>
</event>
<event>
 4    1  0.3900819E+006  0.8708966E+01  0.7546771E-02  0.2156885E+00
         21   -1    0    0  501  502  0.00000000000E+00  0.00000000000E+00  0.90253867460E+02  0.90253867460E+02  0.00000000000E+00 0. -1.
         21   -1    0    0  502  503 -0.00000000000E+00 -0.00000000000E+00 -0.94257842419E+00  0.94257842419E+00  0.00000000000E+00 0.  1.
          5    1    1    2  501    0 -0.72006546295E+01  0.13808167789E+01  0.59671348945E+02  0.60303531962E+02  0.47000000000E+01 0. -1.
         -5    1    1    2    0  503  0.72006546295E+01 -0.13808167789E+01  0.29639940091E+02  0.30892913923E+02  0.47000000000E+01 0.  1.
<mgrwt>
<rscale>  2 0.87089656E+01</rscale>
<asrwt>0</asrwt>
<pdfrwt beam="1">  1       21 0.13885204E-01 0.87089656E+01</pdfrwt>
<pdfrwt beam="2">  1       21 0.14501214E-03 0.87089656E+01</pdfrwt>
<totfact> 0.12205522E+09</totfact>
</mgrwt>
</event>
<event>
 4    1  0.3900819E+006  0.8414086E+01  0.7546771E-02  0.2178350E+00
         21   -1    0    0  503  502  0.00000000000E+00  0.00000000000E+00  0.10141224838E+01  0.10141224838E+01  0.00000000000E+00 0. -1.
         21   -1    0    0  501  503 -0.00000000000E+00 -0.00000000000E+00 -0.81585027612E+02  0.81585027612E+02  0.00000000000E+00 0. -1.
          5    1    1    2  501    0 -0.68170265689E+01  0.14949896268E+01 -0.24596138474E+02  0.25995516403E+02  0.47000000000E+01 0. -1.
         -5    1    1    2    0  502  0.68170265689E+01 -0.14949896268E+01 -0.55974766655E+02  0.56603633693E+02  0.47000000000E+01 0. -1.
<mgrwt>
<rscale>  2 0.84140861E+01</rscale>
<asrwt>0</asrwt>
<pdfrwt beam="1">  1       21 0.15601879E-03 0.84140861E+01</pdfrwt>
<pdfrwt beam="2">  1       21 0.12551547E-01 0.84140861E+01</pdfrwt>
<totfact> 0.12694007E+09</totfact>
</mgrwt>
</event>
<event>
 4    1  0.3900819E+006  0.6279396E+01  0.7546771E-02  0.2380419E+00
         21   -1    0    0  503  502  0.00000000000E+00  0.00000000000E+00  0.32381242174E+02  0.32381242174E+02  0.00000000000E+00 0.  1.
         21   -1    0    0  501  503 -0.00000000000E+00 -0.00000000000E+00 -0.22569402095E+01  0.22569402095E+01  0.00000000000E+00 0.  1.
          5    1    1    2  501    0 -0.18455721819E+01  0.37329188557E+01  0.26814424032E+02  0.27539864851E+02  0.47000000000E+01 0.  1.
         -5    1    1    2    0  502  0.18455721819E+01 -0.37329188557E+01  0.33098779327E+01  0.70983175324E+01  0.47000000000E+01 0.  1.
<mgrwt>
<rscale>  2 0.62793965E+01</rscale>
<asrwt>0</asrwt>
<pdfrwt beam="1">  1       21 0.49817292E-02 0.62793965E+01</pdfrwt>
<pdfrwt beam="2">  1       21 0.34722159E-03 0.62793965E+01</pdfrwt>
<totfact> 0.14118158E+09</totfact>
</mgrwt>
</event>
<event>
 4    1  0.3900819E+006  0.5600260E+01  0.7546771E-02  0.2470548E+00
         21   -1    0    0  503  502  0.00000000000E+00  0.00000000000E+00  0.22693847807E+03  0.22693847807E+03  0.00000000000E+00 0. -1.
         21   -1    0    0  501  503 -0.00000000000E+00 -0.00000000000E+00 -0.17101995121E+00  0.17101995121E+00  0.00000000000E+00 0.  1.
          5    1    1    2  501    0 -0.16108574275E+01 -0.25841929646E+01  0.63638621424E+02  0.63884560354E+02  0.47000000000E+01 0.  1.
         -5    1    1    2    0  502  0.16108574275E+01  0.25841929646E+01  0.16312883669E+03  0.16322493767E+03  0.47000000000E+01 0.  1.
<mgrwt>
<rscale>  2 0.56002603E+01</rscale>
<asrwt>0</asrwt>
<pdfrwt beam="1">  1       21 0.34913371E-01 0.56002603E+01</pdfrwt>
<pdfrwt beam="2">  1       21 0.26310943E-04 0.56002603E+01</pdfrwt>
<totfact> 0.19461254E+09</totfact>
</mgrwt>
</event>
<event>
 4    1  0.3900819E+006  0.5251778E+01  0.7546771E-02  0.2524337E+00
         21   -1    0    0  503  502  0.00000000000E+00  0.00000000000E+00  0.19602449380E+02  0.19602449380E+02  0.00000000000E+00 0.  1.
         21   -1    0    0  501  503 -0.00000000000E+00 -0.00000000000E+00 -0.27219596149E+01  0.27219596149E+01  0.00000000000E+00 0.  1.
          5    1    1    2  501    0  0.18238228059E+01 -0.14713392938E+01  0.68204543182E+00  0.52958809386E+01  0.47000000000E+01 0.  1.
         -5    1    1    2    0  502 -0.18238228059E+01  0.14713392938E+01  0.16198444333E+02  0.17028528056E+02  0.47000000000E+01 0.  1.
<mgrwt>
<rscale>  2 0.52517777E+01</rscale>
<asrwt>0</asrwt>
<pdfrwt beam="1">  1       21 0.30157614E-02 0.52517777E+01</pdfrwt>
<pdfrwt beam="2">  1       21 0.41876303E-03 0.52517777E+01</pdfrwt>
<totfact> 0.19453814E+09</totfact>
</mgrwt>
</event>
<event>
 4    1  0.3900819E+006  0.7039877E+01  0.7546771E-02  0.2296992E+00
         21   -1    0    0  501  502  0.00000000000E+00  0.00000000000E+00  0.47621274644E+01  0.47621274644E+01  0.00000000000E+00 0.  1.
         21   -1    0    0  502  503 -0.00000000000E+00 -0.00000000000E+00 -0.12327339421E+02  0.12327339421E+02  0.00000000000E+00 0. -1.
          5    1    1    2  501    0  0.52411629202E+01 -0.88082669013E-02 -0.41017395637E+00  0.70518160084E+01  0.47000000000E+01 0. -1.
         -5    1    1    2    0  503 -0.52411629202E+01  0.88082669013E-02 -0.71550379998E+01  0.10037650877E+02  0.47000000000E+01 0. -1.
<mgrwt>
<rscale>  2 0.70398769E+01</rscale>
<asrwt>0</asrwt>
<pdfrwt beam="1">  1       21 0.73263500E-03 0.70398769E+01</pdfrwt>
<pdfrwt beam="2">  1       21 0.18965137E-02 0.70398769E+01</pdfrwt>
<totfact> 0.22423148E+09</totfact>
</mgrwt>
</event>
<event>
 4    1  0.3900819E+006  0.4924921E+01  0.7546771E-02  0.2580648E+00
         21   -1    0    0  501  502  0.00000000000E+00  0.00000000000E+00  0.24903570683E+00  0.24903570683E+00  0.00000000000E+00 0. -1.
         21   -1    0    0  502  503 -0.00000000000E+00 -0.00000000000E+00 -0.13933626930E+03  0.13933626930E+03  0.00000000000E+00 0. -1.
          5    1    1    2  501    0  0.13738887541E+01  0.52656839163E+00 -0.31252489495E+02  0.31638156461E+02  0.47000000000E+01 0. -1.
         -5    1    1    2    0  503 -0.13738887541E+01 -0.52656839163E+00 -0.10783474410E+03  0.10794714855E+03  0.47000000000E+01 0. -1.
<mgrwt>
<rscale>  2 0.49249208E+01</rscale>
<asrwt>0</asrwt>
<pdfrwt beam="1">  1       21 0.38313128E-04 0.49249208E+01</pdfrwt>
<pdfrwt beam="2">  1       21 0.21436382E-01 0.49249208E+01</pdfrwt>
<totfact> 0.23574735E+09</totfact>
</mgrwt>
</event>
<event>
 4    1  0.3900819E+006  0.5564423E+01  0.7546771E-02  0.2475815E+00
         21   -1    0    0  503  502  0.00000000000E+00  0.00000000000E+00  0.31021009475E+03  0.31021009475E+03  0.00000000000E+00 0.  1.
         21   -1    0    0  501  503 -0.00000000000E+00 -0.00000000000E+00 -0.10020979436E+00  0.10020979436E+00  0.00000000000E+00 0.  1.
          5    1    1    2  501    0  0.30806823246E+00 -0.29627509529E+01  0.14528373890E+03  0.14539025961E+03  0.47000000000E+01 0.  1.
         -5    1    1    2    0  502 -0.30806823246E+00  0.29627509529E+01  0.16482614605E+03  0.16492004493E+03  0.47000000000E+01 0.  1.
<mgrwt>
<rscale>  2 0.55644226E+01</rscale>
<asrwt>0</asrwt>
<pdfrwt beam="1">  1       21 0.47723861E-01 0.55644226E+01</pdfrwt>
<pdfrwt beam="2">  1       21 0.15417140E-04 0.55644226E+01</pdfrwt>
<totfact> 0.22866320E+09</totfact>
</mgrwt>
</event>
<event>
 4    1  0.3900819E+006  0.1076168E+02  0.7546771E-02  0.2034066E+00
         21   -1    0    0  501  502  0.00000000000E+00  0.00000000000E+00  0.39501191644E+03  0.39501191644E+03  0.00000000000E+00 0.  1.
         21   -1    0    0  502  503 -0.00000000000E+00 -0.00000000000E+00 -0.83247105241E+00  0.83247105241E+00  0.00000000000E+00 0. -1.
          5    1    1    2  501    0  0.31293245801E+01 -0.91613932585E+01  0.35639026217E+03  0.35655270686E+03  0.47000000000E+01 0.  1.
         -5    1    1    2    0  503 -0.31293245801E+01  0.91613932585E+01  0.37789183220E+02  0.39291680636E+02  0.47000000000E+01 0. -1.
<mgrwt>
<rscale>  2 0.10761682E+02</rscale>
<asrwt>0</asrwt>
<pdfrwt beam="1">  1       21 0.60770914E-01 0.10761682E+02</pdfrwt>
<pdfrwt beam="2">  1       21 0.12807279E-03 0.10761682E+02</pdfrwt>
<totfact> 0.12289077E+08</totfact>
</mgrwt>
</event>
<event>
 4    1  0.3900819E+006  0.7370630E+01  0.7546771E-02  0.2265175E+00
         21   -1    0    0  503  502  0.00000000000E+00  0.00000000000E+00  0.53803836975E+02  0.53803836975E+02  0.00000000000E+00 0. -1.
         21   -1    0    0  501  503 -0.00000000000E+00 -0.00000000000E+00 -0.16760847750E+01  0.16760847750E+01  0.00000000000E+00 0.  1.
          5    1    1    2  501    0  0.30587505419E+01 -0.47833290627E+01  0.85727562649E+01  0.11305677413E+02  0.47000000000E+01 0.  1.
         -5    1    1    2    0  502 -0.30587505419E+01  0.47833290627E+01  0.43554995935E+02  0.44174244336E+02  0.47000000000E+01 0. -1.
<mgrwt>
<rscale>  2 0.73706304E+01</rscale>
<asrwt>0</asrwt>
<pdfrwt beam="1">  1       21 0.82775120E-02 0.73706304E+01</pdfrwt>
<pdfrwt beam="2">  1       21 0.25785924E-03 0.73706304E+01</pdfrwt>
<totfact> 0.11141462E+09</totfact>
</mgrwt>
</event>
<event>
 4    1  0.3900819E+006  0.7551151E+01  0.7546771E-02  0.2248773E+00
         21   -1    0    0  503  502  0.00000000000E+00  0.00000000000E+00  0.28509901675E+00  0.28509901675E+00  0.00000000000E+00 0.  1.
         21   -1    0    0  501  503 -0.00000000000E+00 -0.00000000000E+00 -0.25865209509E+03  0.25865209509E+03  0.00000000000E+00 0. -1.
          5    1    1    2  501    0 -0.43368789588E+01 -0.40151409653E+01 -0.19083551117E+03  0.19098484809E+03  0.47000000000E+01 0. -1.
         -5    1    1    2    0  502  0.43368789588E+01  0.40151409653E+01 -0.67531484902E+02  0.67952346017E+02  0.47000000000E+01 0.  1.
<mgrwt>
<rscale>  2 0.75511506E+01</rscale>
<asrwt>0</asrwt>
<pdfrwt beam="1">  1       21 0.43861589E-04 0.75511506E+01</pdfrwt>
<pdfrwt beam="2">  1       21 0.39792447E-01 0.75511506E+01</pdfrwt>
<totfact> 0.96972155E+08</totfact>
</mgrwt>
</event>
<event>
 4    1  0.3900819E+006  0.9654699E+01  0.7546771E-02  0.2095189E+00
         21   -1    0    0  501  502  0.00000000000E+00  0.00000000000E+00  0.66151449836E+02  0.66151449836E+02  0.00000000000E+00 0.  1.
         21   -1    0    0  502  503 -0.00000000000E+00 -0.00000000000E+00 -0.19280672204E+01  0.19280672204E+01  0.00000000000E+00 0. -1.
          5    1    1    2  501    0  0.25628705573E+01  0.80346065128E+01  0.49772086308E+02  0.50699840066E+02  0.47000000000E+01 0. -1.
         -5    1    1    2    0  503 -0.25628705573E+01 -0.80346065128E+01  0.14451296308E+02  0.17379676990E+02  0.47000000000E+01 0.  1.
<mgrwt>
<rscale>  2 0.96546987E+01</rscale>
<asrwt>0</asrwt>
<pdfrwt beam="1">  1       21 0.10177144E-01 0.96546987E+01</pdfrwt>
<pdfrwt beam="2">  1       21 0.29662578E-03 0.96546987E+01</pdfrwt>
<totfact> 0.78670592E+08</totfact>
</mgrwt>
</event>
<event>
 4    1  0.3900819E+006  0.4794845E+01  0.7546771E-02  0.2604888E+00
         21   -1    0    0  503  502  0.00000000000E+00  0.00000000000E+00  0.72791297517E+00  0.72791297517E+00  0.00000000000E+00 0.  1.
         21   -1    0    0  501  503 -0.00000000000E+00 -0.00000000000E+00 -0.20012059979E+03  0.20012059979E+03  0.00000000000E+00 0.  1.
          5    1    1    2  501    0  0.45351856718E+00  0.83358124675E+00 -0.19185573616E+03  0.19191564301E+03  0.47000000000E+01 0.  1.
         -5    1    1    2    0  502 -0.45351856718E+00 -0.83358124675E+00 -0.75369506566E+01  0.89328697509E+01  0.47000000000E+01 0.  1.
<mgrwt>
<rscale>  2 0.47948448E+01</rscale>
<asrwt>0</asrwt>
<pdfrwt beam="1">  1       21 0.11198651E-03 0.47948448E+01</pdfrwt>
<pdfrwt beam="2">  1       21 0.30787811E-01 0.47948448E+01</pdfrwt>
<totfact> 0.30871082E+08</totfact>
</mgrwt>
</event>
<event>
 4    1  0.3900819E+006  0.5288025E+01  0.7546771E-02  0.2518462E+00
         21   -1    0    0  501  502  0.00000000000E+00  0.00000000000E+00  0.27125174556E+01  0.27125174556E+01  0.00000000000E+00 0.  1.
         21   -1    0    0  502  503 -0.00000000000E+00 -0.00000000000E+00 -0.11365051047E+02  0.11365051047E+02  0.00000000000E+00 0.  1.
          5    1    1    2  501    0 -0.13942836521E+01 -0.19822174351E+01 -0.21805903330E+01  0.57199813866E+01  0.47000000000E+01 0.  1.
         -5    1    1    2    0  503  0.13942836521E+01  0.19822174351E+01 -0.64719432586E+01  0.83575871162E+01  0.47000000000E+01 0.  1.
<mgrwt>
<rscale>  2 0.52880254E+01</rscale>
<asrwt>0</asrwt>
<pdfrwt beam="1">  1       21 0.41731038E-03 0.52880254E+01</pdfrwt>
<pdfrwt beam="2">  1       21 0.17484694E-02 0.52880254E+01</pdfrwt>
<totfact> 0.42892922E+09</totfact>
</mgrwt>
</event>
<event>
 4    1  0.3900819E+006  0.8225076E+01  0.7546771E-02  0.2192754E+00
         21   -1    0    0  501  502  0.00000000000E+00  0.00000000000E+00  0.27864559281E+03  0.27864559281E+03  0.00000000000E+00 0.  1.
         21   -1    0    0  502  503 -0.00000000000E+00 -0.00000000000E+00 -0.29699119760E+00  0.29699119760E+00  0.00000000000E+00 0. -1.
          5    1    1    2  501    0 -0.58160133223E+01  0.34257656097E+01  0.19875758173E+03  0.19892769585E+03  0.47000000000E+01 0.  1.
         -5    1    1    2    0  503  0.58160133223E+01 -0.34257656097E+01  0.79591019884E+02  0.80014888160E+02  0.47000000000E+01 0. -1.
<mgrwt>
<rscale>  2 0.82250764E+01</rscale>
<asrwt>0</asrwt>
<pdfrwt beam="1">  1       21 0.42868344E-01 0.82250764E+01</pdfrwt>
<pdfrwt beam="2">  1       21 0.45691176E-04 0.82250764E+01</pdfrwt>
<totfact> 0.84640854E+08</totfact>
</mgrwt>
</event>
<event>
 4    1  0.3900819E+006  0.1607078E+02  0.7546771E-02  0.1837049E+00
         21   -1    0    0  501  502  0.00000000000E+00  0.00000000000E+00  0.57314492491E+01  0.57314492491E+01  0.00000000000E+00 0.  1.
         21   -1    0    0  502  503 -0.00000000000E+00 -0.00000000000E+00 -0.52655896125E+02  0.52655896125E+02  0.00000000000E+00 0. -1.
          5    1    1    2  501    0  0.43291979103E+01 -0.14745784910E+02 -0.12375588527E+02  0.20283621929E+02  0.47000000000E+01 0.  1.
         -5    1    1    2    0  503 -0.43291979103E+01  0.14745784910E+02 -0.34548858349E+02  0.38103723445E+02  0.47000000000E+01 0. -1.
<mgrwt>
<rscale>  2 0.16070785E+02</rscale>
<asrwt>0</asrwt>
<pdfrwt beam="1">  1       21 0.88176139E-03 0.16070785E+02</pdfrwt>
<pdfrwt beam="2">  1       21 0.81009074E-02 0.16070785E+02</pdfrwt>
<totfact> 0.29973852E+08</totfact>
</mgrwt>
</event>
<event>
 4    1  0.3900819E+006  0.9747337E+01  0.7546771E-02  0.2089659E+00
         21   -1    0    0  501  502  0.00000000000E+00  0.00000000000E+00  0.97420408156E+02  0.97420408156E+02  0.00000000000E+00 0.  1.
         21   -1    0    0  502  503 -0.00000000000E+00 -0.00000000000E+00 -0.12606814684E+01  0.12606814684E+01  0.00000000000E+00 0. -1.
          5    1    1    2  501    0 -0.32874661374E+01 -0.78811898277E+01  0.71556818322E+02  0.72217649055E+02  0.47000000000E+01 0.  1.
         -5    1    1    2    0  503  0.32874661374E+01  0.78811898277E+01  0.24602908366E+02  0.26463440569E+02  0.47000000000E+01 0. -1.
<mgrwt>
<rscale>  2 0.97473374E+01</rscale>
<asrwt>0</asrwt>
<pdfrwt beam="1">  1       21 0.14987749E-01 0.97473374E+01</pdfrwt>
<pdfrwt beam="2">  1       21 0.19395107E-03 0.97473374E+01</pdfrwt>
<totfact> 0.76995330E+08</totfact>
</mgrwt>
</event>
<event>
 4    1  0.3900819E+006  0.5405032E+01  0.7546771E-02  0.2499955E+00
         21   -1    0    0  503  502  0.00000000000E+00  0.00000000000E+00  0.84562528131E+01  0.84562528131E+01  0.00000000000E+00 0.  1.
         21   -1    0    0  501  503 -0.00000000000E+00 -0.00000000000E+00 -0.41016086503E+01  0.41016086503E+01  0.00000000000E+00 0.  1.
          5    1    1    2  501    0 -0.25166037013E+01 -0.88942464390E+00 -0.31617048172E+00  0.54142713415E+01  0.47000000000E+01 0.  1.
         -5    1    1    2    0  502  0.25166037013E+01  0.88942464390E+00  0.46708146445E+01  0.71435901219E+01  0.47000000000E+01 0.  1.
<mgrwt>
<rscale>  2 0.54050320E+01</rscale>
<asrwt>0</asrwt>
<pdfrwt beam="1">  1       21 0.13009620E-02 0.54050320E+01</pdfrwt>
<pdfrwt beam="2">  1       21 0.63101672E-03 0.54050320E+01</pdfrwt>
<totfact> 0.37649645E+09</totfact>
</mgrwt>
</event>
<event>
 4    1  0.3900819E+006  0.1027552E+02  0.7546771E-02  0.2059639E+00
         21   -1    0    0  503  502  0.00000000000E+00  0.00000000000E+00  0.12098644837E+03  0.12098644837E+03  0.00000000000E+00 0.  1.
         21   -1    0    0  501  503 -0.00000000000E+00 -0.00000000000E+00 -0.28228515892E+02  0.28228515892E+02  0.00000000000E+00 0. -1.
          5    1    1    2  501    0  0.89758378571E+01  0.17118849892E+01 -0.27066181493E+02  0.28951068997E+02  0.47000000000E+01 0. -1.
         -5    1    1    2    0  502 -0.89758378571E+01 -0.17118849892E+01  0.11982411397E+03  0.12026389527E+03  0.47000000000E+01 0.  1.
<mgrwt>
<rscale>  2 0.10275515E+02</rscale>
<asrwt>0</asrwt>
<pdfrwt beam="1">  1       21 0.18613299E-01 0.10275515E+02</pdfrwt>
<pdfrwt beam="2">  1       21 0.43428487E-02 0.10275515E+02</pdfrwt>
<totfact> 0.60464644E+06</totfact>
</mgrwt>
</event>
<event>
 4    1  0.3900819E+006  0.6010393E+01  0.7546771E-02  0.2414073E+00
         21   -1    0    0  503  502  0.00000000000E+00  0.00000000000E+00  0.54245051355E+01  0.54245051355E+01  0.00000000000E+00 0. -1.
         21   -1    0    0  501  503 -0.00000000000E+00 -0.00000000000E+00 -0.16031169601E+02  0.16031169601E+02  0.00000000000E+00 0. -1.
          5    1    1    2  501    0 -0.23260300540E+01  0.29367344043E+01 -0.13505650930E+02  0.14782673365E+02  0.47000000000E+01 0. -1.
         -5    1    1    2    0  502  0.23260300540E+01 -0.29367344043E+01  0.28989864650E+01  0.66730013710E+01  0.47000000000E+01 0. -1.
<mgrwt>
<rscale>  2 0.60103931E+01</rscale>
<asrwt>0</asrwt>
<pdfrwt beam="1">  1       21 0.83453926E-03 0.60103931E+01</pdfrwt>
<pdfrwt beam="2">  1       21 0.24663338E-02 0.60103931E+01</pdfrwt>
<totfact> 0.11241614E+09</totfact>
</mgrwt>
</event>
<event>
 4    1  0.3900819E+006  0.5186421E+01  0.7546771E-02  0.2535109E+00
         21   -1    0    0  501  502  0.00000000000E+00  0.00000000000E+00  0.58495327242E+03  0.58495327242E+03  0.00000000000E+00 0. -1.
         21   -1    0    0  502  503 -0.00000000000E+00 -0.00000000000E+00 -0.12124614434E+00  0.12124614434E+00  0.00000000000E+00 0. -1.
          5    1    1    2  501    0  0.81286866937E+00  0.20367158527E+01  0.52289597195E+03  0.52292169247E+03  0.47000000000E+01 0. -1.
         -5    1    1    2    0  503 -0.81286866937E+00 -0.20367158527E+01  0.61936054321E+02  0.62152826096E+02  0.47000000000E+01 0. -1.
<mgrwt>
<rscale>  2 0.51864214E+01</rscale>
<asrwt>0</asrwt>
<pdfrwt beam="1">  1       21 0.89990551E-01 0.51864214E+01</pdfrwt>
<pdfrwt beam="2">  1       21 0.18653721E-04 0.51864214E+01</pdfrwt>
<totfact> 0.51450867E+08</totfact>
</mgrwt>
</event>
<event>
 4    1  0.3900819E+006  0.7065318E+01  0.7546771E-02  0.2294459E+00
         21   -1    0    0  501  502  0.00000000000E+00  0.00000000000E+00  0.10571054166E+00  0.10571054166E+00  0.00000000000E+00 0.  1.
         21   -1    0    0  502  503 -0.00000000000E+00 -0.00000000000E+00 -0.47460771064E+03  0.47460771064E+03  0.00000000000E+00 0. -1.
          5    1    1    2  501    0 -0.51490346227E+01  0.11472396354E+01 -0.22041835398E+03  0.22053156121E+03  0.47000000000E+01 0.  1.
         -5    1    1    2    0  503  0.51490346227E+01 -0.11472396354E+01 -0.25408364611E+03  0.25418185997E+03  0.47000000000E+01 0.  1.
<mgrwt>
<rscale>  2 0.70653179E+01</rscale>
<asrwt>0</asrwt>
<pdfrwt beam="1">  1       21 0.16262971E-04 0.70653179E+01</pdfrwt>
<pdfrwt beam="2">  1       21 0.73017420E-01 0.70653179E+01</pdfrwt>
<totfact> 0.11486753E+09</totfact>
</mgrwt>
</event>
<event>
 4    1  0.3900819E+006  0.6748464E+01  0.7546771E-02  0.2327125E+00
         21   -1    0    0  501  502  0.00000000000E+00  0.00000000000E+00  0.20751745063E+02  0.20751745063E+02  0.00000000000E+00 0. -1.
         21   -1    0    0  502  503 -0.00000000000E+00 -0.00000000000E+00 -0.34423767119E+01  0.34423767119E+01  0.00000000000E+00 0. -1.
          5    1    1    2  501    0 -0.14146800627E+01 -0.46314620430E+01  0.15937834426E+02  0.17307695587E+02  0.47000000000E+01 0. -1.
         -5    1    1    2    0  503  0.14146800627E+01  0.46314620430E+01  0.13715339250E+01  0.68864261880E+01  0.47000000000E+01 0. -1.
<mgrwt>
<rscale>  2 0.67484636E+01</rscale>
<asrwt>0</asrwt>
<pdfrwt beam="1">  1       21 0.31925761E-02 0.67484636E+01</pdfrwt>
<pdfrwt beam="2">  1       21 0.52959643E-03 0.67484636E+01</pdfrwt>
<totfact> 0.16033422E+09</totfact>
</mgrwt>
</event>
<event>
 4    1  0.3900819E+006  0.7543370E+01  0.7546771E-02  0.2249467E+00
         21   -1    0    0  503  502  0.00000000000E+00  0.00000000000E+00  0.35778285743E+01  0.35778285743E+01  0.00000000000E+00 0.  1.
         21   -1    0    0  501  503 -0.00000000000E+00 -0.00000000000E+00 -0.15925554170E+02  0.15925554170E+02  0.00000000000E+00 0. -1.
          5    1    1    2  501    0 -0.34892442236E+01  0.47578987837E+01 -0.58166002989E+01  0.95255060299E+01  0.47000000000E+01 0. -1.
         -5    1    1    2    0  502  0.34892442236E+01 -0.47578987837E+01 -0.65311252968E+01  0.99778767145E+01  0.47000000000E+01 0.  1.
<mgrwt>
<rscale>  2 0.75433697E+01</rscale>
<asrwt>0</asrwt>
<pdfrwt beam="1">  1       21 0.55043516E-03 0.75433697E+01</pdfrwt>
<pdfrwt beam="2">  1       21 0.24500853E-02 0.75433697E+01</pdfrwt>
<totfact> 0.24375380E+09</totfact>
</mgrwt>
</event>
<event>
 4    1  0.3900819E+006  0.6627643E+01  0.7546771E-02  0.2340254E+00
         21   -1    0    0  503  502  0.00000000000E+00  0.00000000000E+00  0.40434733708E-01  0.40434733708E-01  0.00000000000E+00 0.  1.
         21   -1    0    0  501  503 -0.00000000000E+00 -0.00000000000E+00 -0.10892151100E+04  0.10892151100E+04  0.00000000000E+00 0. -1.
          5    1    1    2  501    0  0.46188325502E+01  0.70854507313E+00 -0.57259505348E+03  0.57263340884E+03  0.47000000000E+01 0. -1.
         -5    1    1    2    0  502 -0.46188325502E+01 -0.70854507313E+00 -0.51657962182E+03  0.51662213593E+03  0.47000000000E+01 0. -1.
<mgrwt>
<rscale>  2 0.66276429E+01</rscale>
<asrwt>0</asrwt>
<pdfrwt beam="1">  1       21 0.62209069E-05 0.66276429E+01</pdfrwt>
<pdfrwt beam="2">  1       21 0.16756674E+00 0.66276429E+01</pdfrwt>
<totfact> 0.71465886E+08</totfact>
</mgrwt>
</event>
<event>
 4    1  0.3900819E+006  0.9063874E+01  0.7546771E-02  0.2132537E+00
         21   -1    0    0  501  502  0.00000000000E+00  0.00000000000E+00  0.60432043891E+02  0.60432043891E+02  0.00000000000E+00 0.  1.
         21   -1    0    0  502  503 -0.00000000000E+00 -0.00000000000E+00 -0.20029862245E+01  0.20029862245E+01  0.00000000000E+00 0. -1.
          5    1    1    2  501    0  0.76617826868E+01 -0.11665722716E+01  0.46909458780E+02  0.47777098361E+02  0.47000000000E+01 0.  1.
         -5    1    1    2    0  503 -0.76617826868E+01  0.11665722716E+01  0.11519598887E+02  0.14657931755E+02  0.47000000000E+01 0. -1.
<mgrwt>
<rscale>  2 0.90638736E+01</rscale>
<asrwt>0</asrwt>
<pdfrwt beam="1">  1       21 0.92972361E-02 0.90638736E+01</pdfrwt>
<pdfrwt beam="2">  1       21 0.30815177E-03 0.90638736E+01</pdfrwt>
<totfact> 0.82880577E+08</totfact>
</mgrwt>
</event>
<event>
 4    1  0.3900819E+006  0.5848309E+01  0.7546771E-02  0.2435595E+00
         21   -1    0    0  503  502  0.00000000000E+00  0.00000000000E+00  0.83180400431E+02  0.83180400431E+02  0.00000000000E+00 0. -1.
         21   -1    0    0  501  503 -0.00000000000E+00 -0.00000000000E+00 -0.19616604199E+01  0.19616604199E+01  0.00000000000E+00 0. -1.
          5    1    1    2  501    0 -0.34287216309E+01  0.59714699068E+00  0.27621154426E+01  0.64677660957E+01  0.47000000000E+01 0. -1.
         -5    1    1    2    0  502  0.34287216309E+01 -0.59714699068E+00  0.78456624569E+02  0.78674294756E+02  0.47000000000E+01 0. -1.
<mgrwt>
<rscale>  2 0.58483089E+01</rscale>
<asrwt>0</asrwt>
<pdfrwt beam="1">  1       21 0.12796982E-01 0.58483089E+01</pdfrwt>
<pdfrwt beam="2">  1       21 0.30179397E-03 0.58483089E+01</pdfrwt>
<totfact> 0.38683604E+08</totfact>
</mgrwt>
</event>
<event>
 4    1  0.3900819E+006  0.7469869E+01  0.7546771E-02  0.2256079E+00
         21   -1    0    0  503  502  0.00000000000E+00  0.00000000000E+00  0.58383465097E+01  0.58383465097E+01  0.00000000000E+00 0. -1.
         21   -1    0    0  501  503 -0.00000000000E+00 -0.00000000000E+00 -0.35754848243E+02  0.35754848243E+02  0.00000000000E+00 0. -1.
          5    1    1    2  501    0  0.43011829932E+01 -0.38998420892E+01 -0.32759684374E+02  0.33600533683E+02  0.47000000000E+01 0. -1.
         -5    1    1    2    0  502 -0.43011829932E+01  0.38998420892E+01  0.28431826404E+01  0.79926610705E+01  0.47000000000E+01 0. -1.
<mgrwt>
<rscale>  2 0.74698690E+01</rscale>
<asrwt>0</asrwt>
<pdfrwt beam="1">  1       21 0.89820716E-03 0.74698690E+01</pdfrwt>
<pdfrwt beam="2">  1       21 0.55007459E-02 0.74698690E+01</pdfrwt>
<totfact> 0.36320815E+08</totfact>
</mgrwt>
</event>
<event>
 4    1  0.3900819E+006  0.8464213E+01  0.7546771E-02  0.2174617E+00
         21   -1    0    0  503  502  0.00000000000E+00  0.00000000000E+00  0.14357015053E+02  0.14357015053E+02  0.00000000000E+00 0. -1.
         21   -1    0    0  501  503 -0.00000000000E+00 -0.00000000000E+00 -0.52433812849E+01  0.52433812849E+01  0.00000000000E+00 0.  1.
          5    1    1    2  501    0 -0.69291298834E+01 -0.12409898008E+01  0.67107555223E+01  0.10801719137E+02  0.47000000000E+01 0. -1.
         -5    1    1    2    0  502  0.69291298834E+01  0.12409898008E+01  0.24028782457E+01  0.87986772012E+01  0.47000000000E+01 0.  1.
<mgrwt>
<rscale>  2 0.84642127E+01</rscale>
<asrwt>0</asrwt>
<pdfrwt beam="1">  1       21 0.22087715E-02 0.84642127E+01</pdfrwt>
<pdfrwt beam="2">  1       21 0.80667405E-03 0.84642127E+01</pdfrwt>
<totfact> 0.17901570E+09</totfact>
</mgrwt>
</event>
<event>
 4    1  0.3900819E+006  0.7522934E+01  0.7546771E-02  0.2251295E+00
         21   -1    0    0  501  502  0.00000000000E+00  0.00000000000E+00  0.12594314047E+02  0.12594314047E+02  0.00000000000E+00 0. -1.
         21   -1    0    0  502  503 -0.00000000000E+00 -0.00000000000E+00 -0.45512749630E+01  0.45512749630E+01  0.00000000000E+00 0.  1.
          5    1    1    2  501    0 -0.56528651530E+01  0.15967610667E+01  0.30569490547E+01  0.81203120547E+01  0.47000000000E+01 0. -1.
         -5    1    1    2    0  503  0.56528651530E+01 -0.15967610667E+01  0.49860900297E+01  0.90252769557E+01  0.47000000000E+01 0.  1.
<mgrwt>
<rscale>  2 0.75229336E+01</rscale>
<asrwt>0</asrwt>
<pdfrwt beam="1">  1       21 0.19375868E-02 0.75229336E+01</pdfrwt>
<pdfrwt beam="2">  1       21 0.70019615E-03 0.75229336E+01</pdfrwt>
<totfact> 0.24385917E+09</totfact>
</mgrwt>
</event>
<event>
 4    1  0.3900819E+006  0.9160673E+01  0.7546771E-02  0.2126158E+00
         21   -1    0    0  503  502  0.00000000000E+00  0.00000000000E+00  0.50585062241E+01  0.50585062241E+01  0.00000000000E+00 0. -1.
         21   -1    0    0  501  503 -0.00000000000E+00 -0.00000000000E+00 -0.17793703598E+02  0.17793703598E+02  0.00000000000E+00 0.  1.
          5    1    1    2  501    0  0.73779508603E+00 -0.78283835826E+01 -0.93400901783E+01  0.13082630303E+02  0.47000000000E+01 0.  1.
         -5    1    1    2    0  502 -0.73779508603E+00  0.78283835826E+01 -0.33951071952E+01  0.97695795187E+01  0.47000000000E+01 0. -1.
<mgrwt>
<rscale>  2 0.91606731E+01</rscale>
<asrwt>0</asrwt>
<pdfrwt beam="1">  1       21 0.77823171E-03 0.91606731E+01</pdfrwt>
<pdfrwt beam="2">  1       21 0.27374929E-02 0.91606731E+01</pdfrwt>
<totfact> 0.14455462E+09</totfact>
</mgrwt>
</event>
<event>
 4    1  0.3900819E+006  0.9659439E+01  0.7546771E-02  0.2094904E+00
         21   -1    0    0  501  502  0.00000000000E+00  0.00000000000E+00  0.37519841971E+02  0.37519841971E+02  0.00000000000E+00 0.  1.
         21   -1    0    0  502  503 -0.00000000000E+00 -0.00000000000E+00 -0.28913730573E+01  0.28913730573E+01  0.00000000000E+00 0.  1.
          5    1    1    2  501    0 -0.13357139527E+01  0.83325045555E+01  0.24872328738E+02  0.26682156974E+02  0.47000000000E+01 0.  1.
         -5    1    1    2    0  503  0.13357139527E+01 -0.83325045555E+01  0.97561401755E+01  0.13729058054E+02  0.47000000000E+01 0.  1.
<mgrwt>
<rscale>  2 0.96594391E+01</rscale>
<asrwt>0</asrwt>
<pdfrwt beam="1">  1       21 0.57722830E-02 0.96594391E+01</pdfrwt>
<pdfrwt beam="2">  1       21 0.44482665E-03 0.96594391E+01</pdfrwt>
<totfact> 0.10752301E+09</totfact>
</mgrwt>
</event>
<event>
 4    1  0.3900819E+006  0.5666478E+01  0.7546771E-02  0.2460965E+00
         21   -1    0    0  501  502  0.00000000000E+00  0.00000000000E+00  0.27995350944E+02  0.27995350944E+02  0.00000000000E+00 0.  1.
         21   -1    0    0  502  503 -0.00000000000E+00 -0.00000000000E+00 -0.11486873627E+01  0.11486873627E+01  0.00000000000E+00 0.  1.
          5    1    1    2  501    0 -0.23308376352E+01  0.21415335613E+01  0.13991777579E+02  0.15095655332E+02  0.47000000000E+01 0.  1.
         -5    1    1    2    0  503  0.23308376352E+01 -0.21415335613E+01  0.12854886002E+02  0.14048382974E+02  0.47000000000E+01 0.  1.
<mgrwt>
<rscale>  2 0.56664777E+01</rscale>
<asrwt>0</asrwt>
<pdfrwt beam="1">  1       21 0.43069766E-02 0.56664777E+01</pdfrwt>
<pdfrwt beam="2">  1       21 0.17672115E-03 0.56664777E+01</pdfrwt>
<totfact> 0.40322089E+09</totfact>
</mgrwt>
</event>
<event>
 4    1  0.3900819E+006  0.5455362E+01  0.7546771E-02  0.2492203E+00
         21   -1    0    0  501  502  0.00000000000E+00  0.00000000000E+00  0.63851978113E+00  0.63851978113E+00  0.00000000000E+00 0. -1.
         21   -1    0    0  502  503 -0.00000000000E+00 -0.00000000000E+00 -0.10737721554E+03  0.10737721554E+03  0.00000000000E+00 0. -1.
          5    1    1    2  501    0 -0.58757302849E-01 -0.27690284488E+01 -0.12740166649E+02  0.13859033777E+02  0.47000000000E+01 0. -1.
         -5    1    1    2    0  503  0.58757302849E-01  0.27690284488E+01 -0.93998529105E+02  0.94156701540E+02  0.47000000000E+01 0. -1.
<mgrwt>
<rscale>  2 0.54553617E+01</rscale>
<asrwt>0</asrwt>
<pdfrwt beam="1">  1       21 0.98233801E-04 0.54553617E+01</pdfrwt>
<pdfrwt beam="2">  1       21 0.16519574E-01 0.54553617E+01</pdfrwt>
<totfact> 0.11201559E+09</totfact>
</mgrwt>
</event>
<event>
 4    1  0.3900819E+006  0.8802014E+01  0.7546771E-02  0.2150350E+00
         21   -1    0    0  503  502  0.00000000000E+00  0.00000000000E+00  0.56646331384E+02  0.56646331384E+02  0.00000000000E+00 0. -1.
         21   -1    0    0  501  503 -0.00000000000E+00 -0.00000000000E+00 -0.16033682517E+01  0.16033682517E+01  0.00000000000E+00 0.  1.
          5    1    1    2  501    0  0.47470314925E+01  0.57315918750E+01  0.38687369590E+02  0.39676038351E+02  0.47000000000E+01 0. -1.
         -5    1    1    2    0  502 -0.47470314925E+01 -0.57315918750E+01  0.16355593543E+02  0.18573661285E+02  0.47000000000E+01 0.  1.
<mgrwt>
<rscale>  2 0.88020142E+01</rscale>
<asrwt>0</asrwt>
<pdfrwt beam="1">  1       21 0.87148187E-02 0.88020142E+01</pdfrwt>
<pdfrwt beam="2">  1       21 0.24667208E-03 0.88020142E+01</pdfrwt>
<totfact> 0.12302674E+09</totfact>
</mgrwt>
</event>
<event>
 4    1  0.3900819E+006  0.9677926E+01  0.7546771E-02  0.2093794E+00
         21   -1    0    0  503  502  0.00000000000E+00  0.00000000000E+00  0.15621018689E+01  0.15621018689E+01  0.00000000000E+00 0.  1.
         21   -1    0    0  501  503 -0.00000000000E+00 -0.00000000000E+00 -0.81969596916E+02  0.81969596916E+02  0.00000000000E+00 0. -1.
          5    1    1    2  501    0  0.48664161403E+01  0.69202781186E+01 -0.61846357492E+02  0.62598995123E+02  0.47000000000E+01 0. -1.
         -5    1    1    2    0  502 -0.48664161403E+01 -0.69202781186E+01 -0.18561137554E+02  0.20932703662E+02  0.47000000000E+01 0.  1.
<mgrwt>
<rscale>  2 0.96779262E+01</rscale>
<asrwt>0</asrwt>
<pdfrwt beam="1">  1       21 0.24032335E-03 0.96779262E+01</pdfrwt>
<pdfrwt beam="2">  1       21 0.12610708E-01 0.96779262E+01</pdfrwt>
<totfact> 0.75169648E+08</totfact>
</mgrwt>
</event>
<event>
 4    1  0.3900819E+006  0.5174544E+01  0.7546771E-02  0.2537091E+00
         21   -1    0    0  501  502  0.00000000000E+00  0.00000000000E+00  0.28857943682E+01  0.28857943682E+01  0.00000000000E+00 0.  1.
         21   -1    0    0  502  503 -0.00000000000E+00 -0.00000000000E+00 -0.10807622848E+02  0.10807622848E+02  0.00000000000E+00 0.  1.
          5    1    1    2  501    0  0.16274319029E+00  0.21585690060E+01 -0.13855724811E+01  0.53568383026E+01  0.47000000000E+01 0. -1.
         -5    1    1    2    0  503 -0.16274319029E+00 -0.21585690060E+01 -0.65362559983E+01  0.83365789131E+01  0.47000000000E+01 0. -1.
<mgrwt>
<rscale>  2 0.51745440E+01</rscale>
<asrwt>0</asrwt>
<pdfrwt beam="1">  1       21 0.44396836E-03 0.51745440E+01</pdfrwt>
<pdfrwt beam="2">  1       21 0.16627112E-02 0.51745440E+01</pdfrwt>
<totfact> 0.41377579E+09</totfact>
</mgrwt>
</event>
<event>
 4    1  0.3900819E+006  0.6722293E+01  0.7546771E-02  0.2329936E+00
         21   -1    0    0  501  502  0.00000000000E+00  0.00000000000E+00  0.81172054728E+02  0.81172054728E+02  0.00000000000E+00 0. -1.
         21   -1    0    0  502  503 -0.00000000000E+00 -0.00000000000E+00 -0.16922569634E+01  0.16922569634E+01  0.00000000000E+00 0.  1.
          5    1    1    2  501    0 -0.43546454590E+01  0.20337866216E+01  0.73679527872E+02  0.73985552998E+02  0.47000000000E+01 0. -1.
         -5    1    1    2    0  503  0.43546454590E+01 -0.20337866216E+01  0.58002698927E+01  0.88787586927E+01  0.47000000000E+01 0.  1.
<mgrwt>
<rscale>  2 0.67222931E+01</rscale>
<asrwt>0</asrwt>
<pdfrwt beam="1">  1       21 0.12488005E-01 0.67222931E+01</pdfrwt>
<pdfrwt beam="2">  1       21 0.26034729E-03 0.67222931E+01</pdfrwt>
<totfact> 0.54429580E+08</totfact>
</mgrwt>
</event>
<event>
 4    1  0.3900819E+006  0.1000177E+02  0.7546771E-02  0.2074887E+00
         21   -1    0    0  501  502  0.00000000000E+00  0.00000000000E+00  0.22021397617E+01  0.22021397617E+01  0.00000000000E+00 0. -1.
         21   -1    0    0  502  503 -0.00000000000E+00 -0.00000000000E+00 -0.58360759072E+02  0.58360759072E+02  0.00000000000E+00 0. -1.
          5    1    1    2  501    0  0.22559035490E+01 -0.85355948278E+01 -0.42334963400E+02  0.43500397768E+02  0.47000000000E+01 0. -1.
         -5    1    1    2    0  503 -0.22559035490E+01  0.85355948278E+01 -0.13823655910E+02  0.17062501065E+02  0.47000000000E+01 0. -1.
<mgrwt>
<rscale>  2 0.10001774E+02</rscale>
<asrwt>0</asrwt>
<pdfrwt beam="1">  1       21 0.33879075E-03 0.10001774E+02</pdfrwt>
<pdfrwt beam="2">  1       21 0.89785778E-02 0.10001774E+02</pdfrwt>
<totfact> 0.81093332E+08</totfact>
</mgrwt>
</event>
<event>
 4    1  0.3900819E+006  0.1137483E+02  0.7546771E-02  0.2004268E+00
         21   -1    0    0  503  502  0.00000000000E+00  0.00000000000E+00  0.23683273815E+03  0.23683273815E+03  0.00000000000E+00 0.  1.
         21   -1    0    0  501  503 -0.00000000000E+00 -0.00000000000E+00 -0.54709159854E+00  0.54709159854E+00  0.00000000000E+00 0. -1.
          5    1    1    2  501    0  0.99453140642E+01 -0.28960963962E+01  0.12259794881E+03  0.12312450486E+03  0.47000000000E+01 0. -1.
         -5    1    1    2    0  502 -0.99453140642E+01  0.28960963962E+01  0.11368769774E+03  0.11425532488E+03  0.47000000000E+01 0.  1.
<mgrwt>
<rscale>  2 0.11374825E+02</rscale>
<asrwt>0</asrwt>
<pdfrwt beam="1">  1       21 0.36435724E-01 0.11374825E+02</pdfrwt>
<pdfrwt beam="2">  1       21 0.84168127E-04 0.11374825E+02</pdfrwt>
<totfact> 0.58363453E+08</totfact>
</mgrwt>
</event>
<event>
 4    1  0.3900819E+006  0.5545345E+01  0.7546771E-02  0.2478642E+00
         21   -1    0    0  501  502  0.00000000000E+00  0.00000000000E+00  0.17754349624E+03  0.17754349624E+03  0.00000000000E+00 0. -1.
         21   -1    0    0  502  503 -0.00000000000E+00 -0.00000000000E+00 -0.33271271433E+00  0.33271271433E+00  0.00000000000E+00 0.  1.
          5    1    1    2  501    0  0.20754572972E+00  0.29356042991E+01  0.15018662945E+03  0.15028897003E+03  0.47000000000E+01 0. -1.
         -5    1    1    2    0  503 -0.20754572972E+00 -0.29356042991E+01  0.27024154073E+02  0.27587238920E+02  0.47000000000E+01 0.  1.
<mgrwt>
<rscale>  2 0.55453447E+01</rscale>
<asrwt>0</asrwt>
<pdfrwt beam="1">  1       21 0.27314308E-01 0.55453447E+01</pdfrwt>
<pdfrwt beam="2">  1       21 0.51186713E-04 0.55453447E+01</pdfrwt>
<totfact> 0.12022464E+09</totfact>
</mgrwt>
</event>
<event>
 4    1  0.3900819E+006  0.6447993E+01  0.7546771E-02  0.2360525E+00
         21   -1    0    0  503  502  0.00000000000E+00  0.00000000000E+00  0.37813935706E+02  0.37813935706E+02  0.00000000000E+00 0. -1.
         21   -1    0    0  501  503 -0.00000000000E+00 -0.00000000000E+00 -0.20610205620E+01  0.20610205620E+01  0.00000000000E+00 0.  1.
          5    1    1    2  501    0 -0.23297181919E+01 -0.37495374044E+01  0.42586503003E+01  0.77274005967E+01  0.47000000000E+01 0.  1.
         -5    1    1    2    0  502  0.23297181919E+01  0.37495374044E+01  0.31494264844E+02  0.32147555671E+02  0.47000000000E+01 0. -1.
<mgrwt>
<rscale>  2 0.64479933E+01</rscale>
<asrwt>0</asrwt>
<pdfrwt beam="1">  1       21 0.58175280E-02 0.64479933E+01</pdfrwt>
<pdfrwt beam="2">  1       21 0.31708012E-03 0.64479933E+01</pdfrwt>
<totfact> 0.12968204E+09</totfact>
</mgrwt>
</event>
<event>
 4    1  0.3900819E+006  0.4797670E+01  0.7546771E-02  0.2604349E+00
         21   -1    0    0  503  502  0.00000000000E+00  0.00000000000E+00  0.33700710782E+02  0.33700710782E+02  0.00000000000E+00 0. -1.
         21   -1    0    0  501  503 -0.00000000000E+00 -0.00000000000E+00 -0.11821802963E+01  0.11821802963E+01  0.00000000000E+00 0. -1.
          5    1    1    2  501    0  0.77279530165E+00  0.57482608838E+00  0.49256448568E+01  0.68760173695E+01  0.47000000000E+01 0. -1.
         -5    1    1    2    0  502 -0.77279530165E+00 -0.57482608838E+00  0.27592885628E+02  0.28006873708E+02  0.47000000000E+01 0. -1.
<mgrwt>
<rscale>  2 0.47976700E+01</rscale>
<asrwt>0</asrwt>
<pdfrwt beam="1">  1       21 0.51847240E-02 0.47976700E+01</pdfrwt>
<pdfrwt beam="2">  1       21 0.18187392E-03 0.47976700E+01</pdfrwt>
<totfact> 0.25109807E+09</totfact>
</mgrwt>
</event>
<event>
 4    1  0.3900819E+006  0.6338232E+01  0.7546771E-02  0.2373377E+00
         21   -1    0    0  503  502  0.00000000000E+00  0.00000000000E+00  0.91845809986E+00  0.91845809986E+00  0.00000000000E+00 0. -1.
         21   -1    0    0  501  503 -0.00000000000E+00 -0.00000000000E+00 -0.10034092926E+03  0.10034092926E+03  0.00000000000E+00 0.  1.
          5    1    1    2  501    0 -0.65664005444E-01  0.42519261013E+01 -0.87737068097E+02  0.87965710965E+02  0.47000000000E+01 0.  1.
         -5    1    1    2    0  502  0.65664005444E-01 -0.42519261013E+01 -0.11685403060E+02  0.13293676392E+02  0.47000000000E+01 0. -1.
<mgrwt>
<rscale>  2 0.63382322E+01</rscale>
<asrwt>0</asrwt>
<pdfrwt beam="1">  1       21 0.14130114E-03 0.63382322E+01</pdfrwt>
<pdfrwt beam="2">  1       21 0.15437077E-01 0.63382322E+01</pdfrwt>
<totfact> 0.86064749E+08</totfact>
</mgrwt>
</event>
<event>
 4    1  0.3900819E+006  0.6166230E+01  0.7546771E-02  0.2394278E+00
         21   -1    0    0  501  502  0.00000000000E+00  0.00000000000E+00  0.18418394542E+01  0.18418394542E+01  0.00000000000E+00 0. -1.
         21   -1    0    0  502  503 -0.00000000000E+00 -0.00000000000E+00 -0.20655458782E+02  0.20655458782E+02  0.00000000000E+00 0.  1.
          5    1    1    2  501    0  0.27353562053E+01  0.29069264044E+01 -0.91385050044E+01  0.11024276321E+02  0.47000000000E+01 0.  1.
         -5    1    1    2    0  503 -0.27353562053E+01 -0.29069264044E+01 -0.96751143235E+01  0.11473021915E+02  0.47000000000E+01 0. -1.
<mgrwt>
<rscale>  2 0.61662302E+01</rscale>
<asrwt>0</asrwt>
<pdfrwt beam="1">  1       21 0.28335994E-03 0.61662302E+01</pdfrwt>
<pdfrwt beam="2">  1       21 0.31777626E-02 0.61662302E+01</pdfrwt>
<totfact> 0.35669526E+09</totfact>
</mgrwt>
</event>
<event>
 4    1  0.3900819E+006  0.6179966E+01  0.7546771E-02  0.2392573E+00
         21   -1    0    0  501  502  0.00000000000E+00  0.00000000000E+00  0.82368943481E+02  0.82368943481E+02  0.00000000000E+00 0.  1.
         21   -1    0    0  502  503 -0.00000000000E+00 -0.00000000000E+00 -0.82855753998E+00  0.82855753998E+00  0.00000000000E+00 0.  1.
          5    1    1    2  501    0 -0.40116450846E+01  0.93195415710E-01  0.68375886121E+02  0.68654597694E+02  0.47000000000E+01 0.  1.
         -5    1    1    2    0  503  0.40116450846E+01 -0.93195415710E-01  0.13164499819E+02  0.14542903327E+02  0.47000000000E+01 0.  1.
<mgrwt>
<rscale>  2 0.61799662E+01</rscale>
<asrwt>0</asrwt>
<pdfrwt beam="1">  1       21 0.12672139E-01 0.61799662E+01</pdfrwt>
<pdfrwt beam="2">  1       21 0.12747046E-03 0.61799662E+01</pdfrwt>
<totfact> 0.13239862E+09</totfact>
</mgrwt>
</event>
<event>
 4    1  0.3900819E+006  0.6373843E+01  0.7546771E-02  0.2369167E+00
         21   -1    0    0  501  502  0.00000000000E+00  0.00000000000E+00  0.29107515440E+02  0.29107515440E+02  0.00000000000E+00 0.  1.
         21   -1    0    0  502  503 -0.00000000000E+00 -0.00000000000E+00 -0.14020589195E+01  0.14020589195E+01  0.00000000000E+00 0.  1.
          5    1    1    2  501    0 -0.10745103320E+01 -0.41690884803E+01  0.14878647769E+02  0.16186415003E+02  0.47000000000E+01 0.  1.
         -5    1    1    2    0  503  0.10745103320E+01  0.41690884803E+01  0.12826808751E+02  0.14323159356E+02  0.47000000000E+01 0.  1.
<mgrwt>
<rscale>  2 0.63738427E+01</rscale>
<asrwt>0</asrwt>
<pdfrwt beam="1">  1       21 0.44780789E-02 0.63738427E+01</pdfrwt>
<pdfrwt beam="2">  1       21 0.21570139E-03 0.63738427E+01</pdfrwt>
<totfact> 0.32220635E+09</totfact>
</mgrwt>
</event>
<event>
 4    1  0.3900819E+006  0.5163011E+01  0.7546771E-02  0.2539024E+00
         21   -1    0    0  503  502  0.00000000000E+00  0.00000000000E+00  0.24908062946E+01  0.24908062946E+01  0.00000000000E+00 0.  1.
         21   -1    0    0  501  503 -0.00000000000E+00 -0.00000000000E+00 -0.12872629247E+02  0.12872629247E+02  0.00000000000E+00 0. -1.
          5    1    1    2  501    0 -0.97524403014E+00 -0.19014674991E+01 -0.83452965283E+01  0.98132896479E+01  0.47000000000E+01 0.  1.
         -5    1    1    2    0  502  0.97524403014E+00  0.19014674991E+01 -0.20365264245E+01  0.55501458942E+01  0.47000000000E+01 0.  1.
<mgrwt>
<rscale>  2 0.51630107E+01</rscale>
<asrwt>0</asrwt>
<pdfrwt beam="1">  1       21 0.38320097E-03 0.51630107E+01</pdfrwt>
<pdfrwt beam="2">  1       21 0.19804045E-02 0.51630107E+01</pdfrwt>
<totfact> 0.39419667E+09</totfact>
</mgrwt>
</event>
<event>
 4    1  0.3900819E+006  0.6603417E+01  0.7546771E-02  0.2342934E+00
         21   -1    0    0  503  502  0.00000000000E+00  0.00000000000E+00  0.49513433599E+01  0.49513433599E+01  0.00000000000E+00 0.  1.
         21   -1    0    0  501  503 -0.00000000000E+00 -0.00000000000E+00 -0.10738534846E+02  0.10738534846E+02  0.00000000000E+00 0.  1.
          5    1    1    2  501    0  0.27784382117E+01 -0.37142148437E+01 -0.62209530734E+01  0.90722305935E+01  0.47000000000E+01 0.  1.
         -5    1    1    2    0  502 -0.27784382117E+01  0.37142148437E+01  0.43376158773E+00  0.66176476120E+01  0.47000000000E+01 0.  1.
<mgrwt>
<rscale>  2 0.66034166E+01</rscale>
<asrwt>0</asrwt>
<pdfrwt beam="1">  1       21 0.76174515E-03 0.66034166E+01</pdfrwt>
<pdfrwt beam="2">  1       21 0.16520822E-02 0.66034166E+01</pdfrwt>
<totfact> 0.24620396E+09</totfact>
</mgrwt>
</event>
<event>
 4    1  0.3900819E+006  0.6470603E+01  0.7546771E-02  0.2357922E+00
         21   -1    0    0  503  502  0.00000000000E+00  0.00000000000E+00  0.45917801282E+01  0.45917801282E+01  0.00000000000E+00 0. -1.
         21   -1    0    0  501  503 -0.00000000000E+00 -0.00000000000E+00 -0.17070515422E+02  0.17070515422E+02  0.00000000000E+00 0.  1.
          5    1    1    2  501    0 -0.44177554645E+01  0.51199790935E+00 -0.13631987013E+02  0.15089724156E+02  0.47000000000E+01 0.  1.
         -5    1    1    2    0  502  0.44177554645E+01 -0.51199790935E+00  0.11532517187E+01  0.65725713940E+01  0.47000000000E+01 0. -1.
<mgrwt>
<rscale>  2 0.64706032E+01</rscale>
<asrwt>0</asrwt>
<pdfrwt beam="1">  1       21 0.70642772E-03 0.64706032E+01</pdfrwt>
<pdfrwt beam="2">  1       21 0.26262331E-02 0.64706032E+01</pdfrwt>
<totfact> 0.13777730E+09</totfact>
</mgrwt>
</event>
<event>
 4    1  0.3900819E+006  0.5897177E+01  0.7546771E-02  0.2429001E+00
         21   -1    0    0  503  502  0.00000000000E+00  0.00000000000E+00  0.10565653557E+03  0.10565653557E+03  0.00000000000E+00 0.  1.
         21   -1    0    0  501  503 -0.00000000000E+00 -0.00000000000E+00 -0.36747823364E+00  0.36747823364E+00  0.00000000000E+00 0. -1.
          5    1    1    2  501    0  0.33488743920E+01  0.12131494466E+01  0.35523640966E+02  0.36009800870E+02  0.47000000000E+01 0. -1.
         -5    1    1    2    0  502 -0.33488743920E+01 -0.12131494466E+01  0.69765416367E+02  0.70014212929E+02  0.47000000000E+01 0.  1.
<mgrwt>
<rscale>  2 0.58971766E+01</rscale>
<asrwt>0</asrwt>
<pdfrwt beam="1">  1       21 0.16254827E-01 0.58971766E+01</pdfrwt>
<pdfrwt beam="2">  1       21 0.56535197E-04 0.58971766E+01</pdfrwt>
<totfact> 0.25658149E+09</totfact>
</mgrwt>
</event>
<event>
 4    1  0.3900819E+006  0.9390704E+01  0.7546771E-02  0.2111417E+00
         21   -1    0    0  501  502  0.00000000000E+00  0.00000000000E+00  0.42488587472E+02  0.42488587472E+02  0.00000000000E+00 0.  1.
         21   -1    0    0  502  503 -0.00000000000E+00 -0.00000000000E+00 -0.53011148979E+01  0.53011148979E+01  0.00000000000E+00 0.  1.
          5    1    1    2  501    0 -0.56381323870E+01  0.58571990680E+01  0.37232906591E+02  0.38398888668E+02  0.47000000000E+01 0.  1.
         -5    1    1    2    0  503  0.56381323870E+01 -0.58571990680E+01 -0.45434016666E-01  0.93908137020E+01  0.47000000000E+01 0.  1.
<mgrwt>
<rscale>  2 0.93907038E+01</rscale>
<asrwt>0</asrwt>
<pdfrwt beam="1">  1       21 0.65367056E-02 0.93907038E+01</pdfrwt>
<pdfrwt beam="2">  1       21 0.81555616E-03 0.93907038E+01</pdfrwt>
<totfact> 0.36711310E+08</totfact>
</mgrwt>
</event>
<event>
 4    1  0.3900819E+006  0.6174419E+01  0.7546771E-02  0.2393261E+00
         21   -1    0    0  503  502  0.00000000000E+00  0.00000000000E+00  0.16403578355E+03  0.16403578355E+03  0.00000000000E+00 0. -1.
         21   -1    0    0  501  503 -0.00000000000E+00 -0.00000000000E+00 -0.26172123101E+00  0.26172123101E+00  0.00000000000E+00 0. -1.
          5    1    1    2  501    0  0.22843656996E+01 -0.32886354231E+01  0.54395220128E+02  0.54744528698E+02  0.47000000000E+01 0. -1.
         -5    1    1    2    0  502 -0.22843656996E+01  0.32886354231E+01  0.10937884219E+03  0.10955297608E+03  0.47000000000E+01 0. -1.
<mgrwt>
<rscale>  2 0.61744190E+01</rscale>
<asrwt>0</asrwt>
<pdfrwt beam="1">  1       21 0.25236192E-01 0.61744190E+01</pdfrwt>
<pdfrwt beam="2">  1       21 0.40264936E-04 0.61744190E+01</pdfrwt>
<totfact> 0.20574368E+09</totfact>
</mgrwt>
</event>
<event>
 4    1  0.3900819E+006  0.5028151E+01  0.7546771E-02  0.2562184E+00
         21   -1    0    0  503  502  0.00000000000E+00  0.00000000000E+00  0.50678657074E+02  0.50678657074E+02  0.00000000000E+00 0.  1.
         21   -1    0    0  501  503 -0.00000000000E+00 -0.00000000000E+00 -0.52289976696E+00  0.52289976696E+00  0.00000000000E+00 0.  1.
          5    1    1    2  501    0  0.98978462957E+00 -0.14874902594E+01  0.19590359307E+02  0.20225342486E+02  0.47000000000E+01 0.  1.
         -5    1    1    2    0  502 -0.98978462957E+00  0.14874902594E+01  0.30565398000E+02  0.30976214355E+02  0.47000000000E+01 0.  1.
<mgrwt>
<rscale>  2 0.50281508E+01</rscale>
<asrwt>0</asrwt>
<pdfrwt beam="1">  1       21 0.77967126E-02 0.50281508E+01</pdfrwt>
<pdfrwt beam="2">  1       21 0.80446158E-04 0.50281508E+01</pdfrwt>
<totfact> 0.42760816E+09</totfact>
</mgrwt>
</event>
<event>
 4    1  0.3900819E+006  0.8571979E+01  0.7546771E-02  0.2166710E+00
         21   -1    0    0  501  502  0.00000000000E+00  0.00000000000E+00  0.64869039981E+02  0.64869039981E+02  0.00000000000E+00 0. -1.
         21   -1    0    0  502  503 -0.00000000000E+00 -0.00000000000E+00 -0.42383209903E+01  0.42383209903E+01  0.00000000000E+00 0.  1.
          5    1    1    2  501    0 -0.58138875874E+01  0.41937489407E+01  0.59893429377E+02  0.60503732956E+02  0.47000000000E+01 0. -1.
         -5    1    1    2    0  503  0.58138875874E+01 -0.41937489407E+01  0.73728961379E+00  0.86036280156E+01  0.47000000000E+01 0.  1.
<mgrwt>
<rscale>  2 0.85719787E+01</rscale>
<asrwt>0</asrwt>
<pdfrwt beam="1">  1       21 0.99798516E-02 0.85719787E+01</pdfrwt>
<pdfrwt beam="2">  1       21 0.65204943E-03 0.85719787E+01</pdfrwt>
<totfact> 0.24861159E+08</totfact>
</mgrwt>
</event>
<event>
 4    1  0.3900819E+006  0.5733279E+01  0.7546771E-02  0.2451486E+00
         21   -1    0    0  501  502  0.00000000000E+00  0.00000000000E+00  0.55242605360E+00  0.55242605360E+00  0.00000000000E+00 0. -1.
         21   -1    0    0  502  503 -0.00000000000E+00 -0.00000000000E+00 -0.87758476978E+02  0.87758476978E+02  0.00000000000E+00 0. -1.
          5    1    1    2  501    0 -0.14398862359E+01  0.29507998592E+01 -0.18547801965E+02  0.19413692330E+02  0.47000000000E+01 0. -1.
         -5    1    1    2    0  503  0.14398862359E+01 -0.29507998592E+01 -0.68658248959E+02  0.68897210701E+02  0.47000000000E+01 0. -1.
<mgrwt>
<rscale>  2 0.57332794E+01</rscale>
<asrwt>0</asrwt>
<pdfrwt beam="1">  1       21 0.84988630E-04 0.57332794E+01</pdfrwt>
<pdfrwt beam="2">  1       21 0.13501303E-01 0.57332794E+01</pdfrwt>
<totfact> 0.19450381E+09</totfact>
</mgrwt>
</event>
<event>
 4    1  0.3900819E+006  0.9171799E+01  0.7546771E-02  0.2125431E+00
         21   -1    0    0  501  502  0.00000000000E+00  0.00000000000E+00  0.82466529590E+00  0.82466529590E+00  0.00000000000E+00 0.  1.
         21   -1    0    0  502  503 -0.00000000000E+00 -0.00000000000E+00 -0.10382797219E+03  0.10382797219E+03  0.00000000000E+00 0. -1.
          5    1    1    2  501    0  0.62248089696E+01  0.48253140572E+01 -0.58430734827E+02  0.59146197467E+02  0.47000000000E+01 0.  1.
         -5    1    1    2    0  503 -0.62248089696E+01 -0.48253140572E+01 -0.44572572068E+02  0.45506440019E+02  0.47000000000E+01 0. -1.
<mgrwt>
<rscale>  2 0.91717993E+01</rscale>
<asrwt>0</asrwt>
<pdfrwt beam="1">  1       21 0.12687165E-03 0.91717993E+01</pdfrwt>
<pdfrwt beam="2">  1       21 0.15973526E-01 0.91717993E+01</pdfrwt>
<totfact> 0.12070861E+09</totfact>
</mgrwt>
</event>
<event>
 4    1  0.3900819E+006  0.7421598E+01  0.7546771E-02  0.2260479E+00
         21   -1    0    0  501  502  0.00000000000E+00  0.00000000000E+00  0.25233300377E+01  0.25233300377E+01  0.00000000000E+00 0.  1.
         21   -1    0    0  502  503 -0.00000000000E+00 -0.00000000000E+00 -0.90579020232E+02  0.90579020232E+02  0.00000000000E+00 0. -1.
          5    1    1    2  501    0 -0.41313570290E+01  0.39902379930E+01 -0.34718245922E+01  0.81935142729E+01  0.47000000000E+01 0.  1.
         -5    1    1    2    0  503  0.41313570290E+01 -0.39902379930E+01 -0.84583865602E+02  0.84908835997E+02  0.47000000000E+01 0. -1.
<mgrwt>
<rscale>  2 0.74215975E+01</rscale>
<asrwt>0</asrwt>
<pdfrwt beam="1">  1       21 0.38820466E-03 0.74215975E+01</pdfrwt>
<pdfrwt beam="2">  1       21 0.13935232E-01 0.74215975E+01</pdfrwt>
<totfact> 0.28023839E+08</totfact>
</mgrwt>
</event>
<event>
 4    1  0.3900819E+006  0.2035192E+02  0.7546771E-02  0.1738419E+00
         21   -1    0    0  501  502  0.00000000000E+00  0.00000000000E+00  0.96210894421E+00  0.96210894421E+00  0.00000000000E+00 0. -1.
         21   -1    0    0  502  503 -0.00000000000E+00 -0.00000000000E+00 -0.60355081000E+03  0.60355081000E+03  0.00000000000E+00 0.  1.
          5    1    1    2  501    0 -0.14032916057E+02 -0.13970972284E+02 -0.13945330838E+03  0.14093057162E+03  0.47000000000E+01 0. -1.
         -5    1    1    2    0  503  0.14032916057E+02  0.13970972284E+02 -0.46313539268E+03  0.46358234732E+03  0.47000000000E+01 0.  1.
<mgrwt>
<rscale>  2 0.20351924E+02</rscale>
<asrwt>0</asrwt>
<pdfrwt beam="1">  1       21 0.14801630E-03 0.20351924E+02</pdfrwt>
<pdfrwt beam="2">  1       21 0.92854258E-01 0.20351924E+02</pdfrwt>
<totfact> 0.51832445E+07</totfact>
</mgrwt>
</event>
<event>
 4    1  0.3900819E+006  0.1257716E+02  0.7546771E-02  0.1952480E+00
         21   -1    0    0  501  502  0.00000000000E+00  0.00000000000E+00  0.31381998043E+01  0.31381998043E+01  0.00000000000E+00 0.  1.
         21   -1    0    0  502  503 -0.00000000000E+00 -0.00000000000E+00 -0.13547074792E+03  0.13547074792E+03  0.00000000000E+00 0. -1.
          5    1    1    2  501    0 -0.11662572790E+02  0.28163918437E+00 -0.11248535546E+02  0.16873484425E+02  0.47000000000E+01 0.  1.
         -5    1    1    2    0  503  0.11662572790E+02 -0.28163918437E+00 -0.12108401257E+03  0.12173546330E+03  0.47000000000E+01 0. -1.
<mgrwt>
<rscale>  2 0.12577159E+02</rscale>
<asrwt>0</asrwt>
<pdfrwt beam="1">  1       21 0.48279992E-03 0.12577159E+02</pdfrwt>
<pdfrwt beam="2">  1       21 0.20841656E-01 0.12577159E+02</pdfrwt>
<totfact> 0.13774921E+08</totfact>
</mgrwt>
</event>
<event>
 4    1  0.3900819E+006  0.5213415E+01  0.7546771E-02  0.2530632E+00
         21   -1    0    0  501  502  0.00000000000E+00  0.00000000000E+00  0.32435147183E+00  0.32435147183E+00  0.00000000000E+00 0. -1.
         21   -1    0    0  502  503 -0.00000000000E+00 -0.00000000000E+00 -0.92581079643E+02  0.92581079643E+02  0.00000000000E+00 0. -1.
          5    1    1    2  501    0  0.22557586498E+01  0.35405184476E-01 -0.31819782972E+02  0.32244042690E+02  0.47000000000E+01 0. -1.
         -5    1    1    2    0  503 -0.22557586498E+01 -0.35405184476E-01 -0.60436945199E+02  0.60661388425E+02  0.47000000000E+01 0. -1.
<mgrwt>
<rscale>  2 0.52134154E+01</rscale>
<asrwt>0</asrwt>
<pdfrwt beam="1">  1       21 0.49900240E-04 0.52134154E+01</pdfrwt>
<pdfrwt beam="2">  1       21 0.14243239E-01 0.52134154E+01</pdfrwt>
<totfact> 0.33390839E+09</totfact>
</mgrwt>
</event>
<event>
 4    1  0.3900819E+006  0.7040543E+01  0.7546771E-02  0.2296926E+00
         21   -1    0    0  503  502  0.00000000000E+00  0.00000000000E+00  0.88403962944E+01  0.88403962944E+01  0.00000000000E+00 0. -1.
         21   -1    0    0  501  503 -0.00000000000E+00 -0.00000000000E+00 -0.65094359362E+01  0.65094359362E+01  0.00000000000E+00 0. -1.
          5    1    1    2  501    0 -0.50228622694E+01  0.15000311944E+01 -0.16919735157E+01  0.72409953279E+01  0.47000000000E+01 0. -1.
         -5    1    1    2    0  502  0.50228622694E+01 -0.15000311944E+01  0.40229338739E+01  0.81088369027E+01  0.47000000000E+01 0. -1.
<mgrwt>
<rscale>  2 0.70405425E+01</rscale>
<asrwt>0</asrwt>
<pdfrwt beam="1">  1       21 0.13600610E-02 0.70405425E+01</pdfrwt>
<pdfrwt beam="2">  1       21 0.10014517E-02 0.70405425E+01</pdfrwt>
<totfact> 0.23242336E+09</totfact>
</mgrwt>
</event>
<event>
 4    1  0.3900819E+006  0.5329020E+01  0.7546771E-02  0.2511899E+00
         21   -1    0    0  501  502  0.00000000000E+00  0.00000000000E+00  0.39892256803E+01  0.39892256803E+01  0.00000000000E+00 0.  1.
         21   -1    0    0  502  503 -0.00000000000E+00 -0.00000000000E+00 -0.11814808806E+02  0.11814808806E+02  0.00000000000E+00 0. -1.
          5    1    1    2  501    0  0.24784824703E+01 -0.40691844600E+00  0.10690459647E+01  0.54351924761E+01  0.47000000000E+01 0.  1.
         -5    1    1    2    0  503 -0.24784824703E+01  0.40691844600E+00 -0.88946290900E+01  0.10368842010E+02  0.47000000000E+01 0. -1.
<mgrwt>
<rscale>  2 0.53290204E+01</rscale>
<asrwt>0</asrwt>
<pdfrwt beam="1">  1       21 0.61372704E-03 0.53290204E+01</pdfrwt>
<pdfrwt beam="2">  1       21 0.18176629E-02 0.53290204E+01</pdfrwt>
<totfact> 0.24032489E+09</totfact>
</mgrwt>
</event>
<event>
 4    1  0.3900819E+006  0.5656784E+01  0.7546771E-02  0.2462356E+00
         21   -1    0    0  503  502  0.00000000000E+00  0.00000000000E+00  0.11505195876E+02  0.11505195876E+02  0.00000000000E+00 0. -1.
         21   -1    0    0  501  503 -0.00000000000E+00 -0.00000000000E+00 -0.44960523277E+01  0.44960523277E+01  0.00000000000E+00 0. -1.
          5    1    1    2  501    0  0.30787864342E+01 -0.65595763706E+00 -0.14363847669E+01  0.58363008428E+01  0.47000000000E+01 0. -1.
         -5    1    1    2    0  502 -0.30787864342E+01  0.65595763706E+00  0.84455283152E+01  0.10164947361E+02  0.47000000000E+01 0. -1.
<mgrwt>
<rscale>  2 0.56567841E+01</rscale>
<asrwt>0</asrwt>
<pdfrwt beam="1">  1       21 0.17700301E-02 0.56567841E+01</pdfrwt>
<pdfrwt beam="2">  1       21 0.69170036E-03 0.56567841E+01</pdfrwt>
<totfact> 0.22340110E+09</totfact>
</mgrwt>
</event>
<event>
 4    1  0.3900819E+006  0.7402630E+01  0.7546771E-02  0.2262220E+00
         21   -1    0    0  501  502  0.00000000000E+00  0.00000000000E+00  0.10216101637E+00  0.10216101637E+00  0.00000000000E+00 0.  1.
         21   -1    0    0  502  503 -0.00000000000E+00 -0.00000000000E+00 -0.71378542396E+03  0.71378542396E+03  0.00000000000E+00 0. -1.
          5    1    1    2  501    0 -0.37070313180E+01  0.43550944537E+01 -0.17889988840E+03  0.17905297818E+03  0.47000000000E+01 0.  1.
         -5    1    1    2    0  503  0.37070313180E+01 -0.43550944537E+01 -0.53478337454E+03  0.53483460679E+03  0.47000000000E+01 0. -1.
<mgrwt>
<rscale>  2 0.74026299E+01</rscale>
<asrwt>0</asrwt>
<pdfrwt beam="1">  1       21 0.15717561E-04 0.74026299E+01</pdfrwt>
<pdfrwt beam="2">  1       21 0.10980977E+00 0.74026299E+01</pdfrwt>
<totfact> 0.54457226E+08</totfact>
</mgrwt>
</event>
<event>
 4    1  0.3900819E+006  0.4968265E+01  0.7546771E-02  0.2572815E+00
         21   -1    0    0  501  502  0.00000000000E+00  0.00000000000E+00  0.56264702528E+02  0.56264702528E+02  0.00000000000E+00 0. -1.
         21   -1    0    0  502  503 -0.00000000000E+00 -0.00000000000E+00 -0.61403094369E+00  0.61403094369E+00  0.00000000000E+00 0.  1.
          5    1    1    2  501    0 -0.10508784743E+01  0.12203729079E+01  0.43021948682E+02  0.43307871386E+02  0.47000000000E+01 0. -1.
         -5    1    1    2    0  503  0.10508784743E+01 -0.12203729079E+01  0.12628722903E+02  0.13570862086E+02  0.47000000000E+01 0.  1.
<mgrwt>
<rscale>  2 0.49682648E+01</rscale>
<asrwt>0</asrwt>
<pdfrwt beam="1">  1       21 0.86561040E-02 0.49682648E+01</pdfrwt>
<pdfrwt beam="2">  1       21 0.94466343E-04 0.49682648E+01</pdfrwt>
<totfact> 0.29190590E+09</totfact>
</mgrwt>
</event>
<event>
 4    1  0.3900819E+006  0.5691521E+01  0.7546771E-02  0.2457389E+00
         21   -1    0    0  501  502  0.00000000000E+00  0.00000000000E+00  0.19657734975E+02  0.19657734975E+02  0.00000000000E+00 0.  1.
         21   -1    0    0  502  503 -0.00000000000E+00 -0.00000000000E+00 -0.16979047268E+01  0.16979047268E+01  0.00000000000E+00 0. -1.
          5    1    1    2  501    0 -0.30761453419E+01  0.91691746834E+00  0.71469333444E+01  0.91363047255E+01  0.47000000000E+01 0. -1.
         -5    1    1    2    0  503  0.30761453419E+01 -0.91691746834E+00  0.10812896903E+02  0.12219334976E+02  0.47000000000E+01 0.  1.
<mgrwt>
<rscale>  2 0.56915207E+01</rscale>
<asrwt>0</asrwt>
<pdfrwt beam="1">  1       21 0.30242668E-02 0.56915207E+01</pdfrwt>
<pdfrwt beam="2">  1       21 0.26121613E-03 0.56915207E+01</pdfrwt>
<totfact> 0.39866521E+09</totfact>
</mgrwt>
</event>
<event>
 4    1  0.3900819E+006  0.5111732E+01  0.7546771E-02  0.2547706E+00
         21   -1    0    0  501  502  0.00000000000E+00  0.00000000000E+00  0.34019001848E+02  0.34019001848E+02  0.00000000000E+00 0. -1.
         21   -1    0    0  502  503 -0.00000000000E+00 -0.00000000000E+00 -0.77906201709E+00  0.77906201709E+00  0.00000000000E+00 0. -1.
          5    1    1    2  501    0  0.74800272398E+00  0.18655542064E+01  0.18684388108E+02  0.19371013384E+02  0.47000000000E+01 0.  1.
         -5    1    1    2    0  503 -0.74800272398E+00 -0.18655542064E+01  0.14555551723E+02  0.15427050480E+02  0.47000000000E+01 0.  1.
<mgrwt>
<rscale>  2 0.51117317E+01</rscale>
<asrwt>0</asrwt>
<pdfrwt beam="1">  1       21 0.52336914E-02 0.51117317E+01</pdfrwt>
<pdfrwt beam="2">  1       21 0.11985572E-03 0.51117317E+01</pdfrwt>
<totfact> 0.46148267E+09</totfact>
</mgrwt>
</event>
<event>
 4    1  0.3900819E+006  0.5294186E+01  0.7546771E-02  0.2517470E+00
         21   -1    0    0  503  502  0.00000000000E+00  0.00000000000E+00  0.43763607045E+00  0.43763607045E+00  0.00000000000E+00 0. -1.
         21   -1    0    0  501  503 -0.00000000000E+00 -0.00000000000E+00 -0.67407683544E+02  0.67407683544E+02  0.00000000000E+00 0. -1.
          5    1    1    2  501    0  0.17308090585E+01  0.17154308877E+01 -0.25908359391E+02  0.26443741972E+02  0.47000000000E+01 0. -1.
         -5    1    1    2    0  502 -0.17308090585E+01 -0.17154308877E+01 -0.41061688083E+02  0.41401577643E+02  0.47000000000E+01 0. -1.
<mgrwt>
<rscale>  2 0.52941858E+01</rscale>
<asrwt>0</asrwt>
<pdfrwt beam="1">  1       21 0.67328661E-04 0.52941858E+01</pdfrwt>
<pdfrwt beam="2">  1       21 0.10370407E-01 0.52941858E+01</pdfrwt>
<totfact> 0.37085285E+09</totfact>
</mgrwt>
</event>
<event>
 4    1  0.3900819E+006  0.6034646E+01  0.7546771E-02  0.2410936E+00
         21   -1    0    0  503  502  0.00000000000E+00  0.00000000000E+00  0.80696720533E+02  0.80696720533E+02  0.00000000000E+00 0. -1.
         21   -1    0    0  501  503 -0.00000000000E+00 -0.00000000000E+00 -0.23503942097E+01  0.23503942097E+01  0.00000000000E+00 0. -1.
          5    1    1    2  501    0  0.12244644662E+01 -0.35815689500E+01  0.18481859361E+01  0.63113184539E+01  0.47000000000E+01 0. -1.
         -5    1    1    2    0  502 -0.12244644662E+01  0.35815689500E+01  0.76498140387E+02  0.76735796289E+02  0.47000000000E+01 0. -1.
<mgrwt>
<rscale>  2 0.60346458E+01</rscale>
<asrwt>0</asrwt>
<pdfrwt beam="1">  1       21 0.12414878E-01 0.60346458E+01</pdfrwt>
<pdfrwt beam="2">  1       21 0.36159917E-03 0.60346458E+01</pdfrwt>
<totfact> 0.32354864E+08</totfact>
</mgrwt>
</event>
<event>
 4    1  0.3900819E+006  0.5685369E+01  0.7546771E-02  0.2458265E+00
         21   -1    0    0  501  502  0.00000000000E+00  0.00000000000E+00  0.26339353200E+01  0.26339353200E+01  0.00000000000E+00 0.  1.
         21   -1    0    0  502  503 -0.00000000000E+00 -0.00000000000E+00 -0.19618603987E+02  0.19618603987E+02  0.00000000000E+00 0.  1.
          5    1    1    2  501    0 -0.87285918071E+00  0.30775868344E+01 -0.16836777282E+01  0.59294345907E+01  0.47000000000E+01 0.  1.
         -5    1    1    2    0  503  0.87285918071E+00 -0.30775868344E+01 -0.15300990939E+02  0.16323104716E+02  0.47000000000E+01 0.  1.
<mgrwt>
<rscale>  2 0.56853693E+01</rscale>
<asrwt>0</asrwt>
<pdfrwt beam="1">  1       21 0.40522082E-03 0.56853693E+01</pdfrwt>
<pdfrwt beam="2">  1       21 0.30182468E-02 0.56853693E+01</pdfrwt>
<totfact> 0.21872587E+09</totfact>
</mgrwt>
</event>
<event>
 4    1  0.3900819E+006  0.6397011E+01  0.7546771E-02  0.2366449E+00
         21   -1    0    0  501  502  0.00000000000E+00  0.00000000000E+00  0.59782094675E+02  0.59782094675E+02  0.00000000000E+00 0.  1.
         21   -1    0    0  502  503 -0.00000000000E+00 -0.00000000000E+00 -0.12120219983E+01  0.12120219983E+01  0.00000000000E+00 0. -1.
          5    1    1    2  501    0  0.19608738163E+01 -0.38712685485E+01  0.49404517289E+02  0.49816945660E+02  0.47000000000E+01 0.  1.
         -5    1    1    2    0  503 -0.19608738163E+01  0.38712685485E+01  0.91655553869E+01  0.11177171013E+02  0.47000000000E+01 0. -1.
<mgrwt>
<rscale>  2 0.63970107E+01</rscale>
<asrwt>0</asrwt>
<pdfrwt beam="1">  1       21 0.91972431E-02 0.63970107E+01</pdfrwt>
<pdfrwt beam="2">  1       21 0.18646497E-03 0.63970107E+01</pdfrwt>
<totfact> 0.13332381E+09</totfact>
</mgrwt>
</event>
<event>
 4    1  0.3900819E+006  0.5485191E+01  0.7546771E-02  0.2487666E+00
         21   -1    0    0  501  502  0.00000000000E+00  0.00000000000E+00  0.21235001152E+03  0.21235001152E+03  0.00000000000E+00 0.  1.
         21   -1    0    0  502  503 -0.00000000000E+00 -0.00000000000E+00 -0.98792721268E+00  0.98792721268E+00  0.00000000000E+00 0. -1.
          5    1    1    2  501    0 -0.25144007112E+00 -0.28167521876E+01  0.20440495475E+03  0.20447853882E+03  0.47000000000E+01 0.  1.
         -5    1    1    2    0  503  0.25144007112E+00  0.28167521876E+01  0.69571295591E+01  0.88593999062E+01  0.47000000000E+01 0. -1.
<mgrwt>
<rscale>  2 0.54851905E+01</rscale>
<asrwt>0</asrwt>
<pdfrwt beam="1">  1       21 0.32669196E-01 0.54851905E+01</pdfrwt>
<pdfrwt beam="2">  1       21 0.15198897E-03 0.54851905E+01</pdfrwt>
<totfact> 0.20642175E+08</totfact>
</mgrwt>
</event>
<event>
 4    1  0.3900819E+006  0.5266966E+01  0.7546771E-02  0.2521867E+00
         21   -1    0    0  503  502  0.00000000000E+00  0.00000000000E+00  0.80557963407E+00  0.80557963407E+00  0.00000000000E+00 0. -1.
         21   -1    0    0  501  503 -0.00000000000E+00 -0.00000000000E+00 -0.69002875998E+02  0.69002875998E+02  0.00000000000E+00 0. -1.
          5    1    1    2  501    0 -0.39581608450E+00  0.23439835374E+01 -0.58803064118E+02  0.59038472871E+02  0.47000000000E+01 0. -1.
         -5    1    1    2    0  502  0.39581608450E+00 -0.23439835374E+01 -0.93942322454E+01  0.10769982761E+02  0.47000000000E+01 0. -1.
<mgrwt>
<rscale>  2 0.52669658E+01</rscale>
<asrwt>0</asrwt>
<pdfrwt beam="1">  1       21 0.12393532E-03 0.52669658E+01</pdfrwt>
<pdfrwt beam="2">  1       21 0.10615828E-01 0.52669658E+01</pdfrwt>
<totfact> 0.15792673E+09</totfact>
</mgrwt>
</event>
<event>
 4    1  0.3900819E+006  0.5420082E+01  0.7546771E-02  0.2497625E+00
         21   -1    0    0  503  502  0.00000000000E+00  0.00000000000E+00  0.12194919491E+00  0.12194919491E+00  0.00000000000E+00 0. -1.
         21   -1    0    0  501  503 -0.00000000000E+00 -0.00000000000E+00 -0.26655524070E+03  0.26655524070E+03  0.00000000000E+00 0. -1.
          5    1    1    2  501    0 -0.61672522863E+00  0.26281063439E+01 -0.17458506394E+03  0.17466917828E+03  0.47000000000E+01 0. -1.
         -5    1    1    2    0  502  0.61672522863E+00 -0.26281063439E+01 -0.91848227571E+02  0.92008011613E+02  0.47000000000E+01 0. -1.
<mgrwt>
<rscale>  2 0.54200824E+01</rscale>
<asrwt>0</asrwt>
<pdfrwt beam="1">  1       21 0.18761775E-04 0.54200824E+01</pdfrwt>
<pdfrwt beam="2">  1       21 0.41007712E-01 0.54200824E+01</pdfrwt>
<totfact> 0.22508232E+09</totfact>
</mgrwt>
</event>
<event>
 4    1  0.3900819E+006  0.5079010E+01  0.7546771E-02  0.2553326E+00
         21   -1    0    0  501  502  0.00000000000E+00  0.00000000000E+00  0.46241242263E+01  0.46241242263E+01  0.00000000000E+00 0. -1.
         21   -1    0    0  502  503 -0.00000000000E+00 -0.00000000000E+00 -0.99352535483E+01  0.99352535483E+01  0.00000000000E+00 0.  1.
          5    1    1    2  501    0 -0.13707171570E+01 -0.13518425701E+01  0.21649970917E+01  0.55211915621E+01  0.47000000000E+01 0. -1.
         -5    1    1    2    0  503  0.13707171570E+01  0.13518425701E+01 -0.74761264137E+01  0.90381862125E+01  0.47000000000E+01 0.  1.
<mgrwt>
<rscale>  2 0.50790101E+01</rscale>
<asrwt>0</asrwt>
<pdfrwt beam="1">  1       21 0.71140374E-03 0.50790101E+01</pdfrwt>
<pdfrwt beam="2">  1       21 0.15285005E-02 0.50790101E+01</pdfrwt>
<totfact> 0.23864317E+09</totfact>
</mgrwt>
</event>
<event>
 4    1  0.3900819E+006  0.4932633E+01  0.7546771E-02  0.2579245E+00
         21   -1    0    0  501  502  0.00000000000E+00  0.00000000000E+00  0.56262123147E+02  0.56262123147E+02  0.00000000000E+00 0. -1.
         21   -1    0    0  502  503 -0.00000000000E+00 -0.00000000000E+00 -0.60887262521E+00  0.60887262521E+00  0.00000000000E+00 0. -1.
          5    1    1    2  501    0  0.44315922005E+00  0.14298526682E+01  0.43132843176E+02  0.43413972741E+02  0.47000000000E+01 0. -1.
         -5    1    1    2    0  503 -0.44315922005E+00 -0.14298526682E+01  0.12520407346E+02  0.13457023031E+02  0.47000000000E+01 0. -1.
<mgrwt>
<rscale>  2 0.49326330E+01</rscale>
<asrwt>0</asrwt>
<pdfrwt beam="1">  1       21 0.86557072E-02 0.49326330E+01</pdfrwt>
<pdfrwt beam="2">  1       21 0.93672755E-04 0.49326330E+01</pdfrwt>
<totfact> 0.29308716E+09</totfact>
</mgrwt>
</event>
<event>
 4    1  0.3900819E+006  0.5003733E+01  0.7546771E-02  0.2566492E+00
         21   -1    0    0  503  502  0.00000000000E+00  0.00000000000E+00  0.77039074889E+01  0.77039074889E+01  0.00000000000E+00 0.  1.
         21   -1    0    0  501  503 -0.00000000000E+00 -0.00000000000E+00 -0.13267202474E+02  0.13267202474E+02  0.00000000000E+00 0. -1.
          5    1    1    2  501    0 -0.14761284396E+01  0.87657919195E+00 -0.11892855526E+02  0.12902610542E+02  0.47000000000E+01 0. -1.
         -5    1    1    2    0  502  0.14761284396E+01 -0.87657919195E+00  0.63295605410E+01  0.80684994201E+01  0.47000000000E+01 0.  1.
<mgrwt>
<rscale>  2 0.50037332E+01</rscale>
<asrwt>0</asrwt>
<pdfrwt beam="1">  1       21 0.11852165E-02 0.50037332E+01</pdfrwt>
<pdfrwt beam="2">  1       21 0.20411081E-02 0.50037332E+01</pdfrwt>
<totfact> 0.76748210E+08</totfact>
</mgrwt>
</event>
<event>
 4    1  0.3900819E+006  0.5768909E+01  0.7546771E-02  0.2446507E+00
         21   -1    0    0  503  502  0.00000000000E+00  0.00000000000E+00  0.17810354416E+01  0.17810354416E+01  0.00000000000E+00 0. -1.
         21   -1    0    0  501  503 -0.00000000000E+00 -0.00000000000E+00 -0.22676308346E+03  0.22676308346E+03  0.00000000000E+00 0. -1.
          5    1    1    2  501    0  0.15965923944E+01  0.29395929932E+01 -0.22195370236E+03  0.22202866100E+03  0.47000000000E+01 0. -1.
         -5    1    1    2    0  502 -0.15965923944E+01 -0.29395929932E+01 -0.30283456586E+01  0.65154579016E+01  0.47000000000E+01 0. -1.
<mgrwt>
<rscale>  2 0.57689093E+01</rscale>
<asrwt>0</asrwt>
<pdfrwt beam="1">  1       21 0.27400558E-03 0.57689093E+01</pdfrwt>
<pdfrwt beam="2">  1       21 0.34886612E-01 0.57689093E+01</pdfrwt>
<totfact> 0.85842273E+07</totfact>
</mgrwt>
</event>
<event>
 4    1  0.3900819E+006  0.6432517E+01  0.7546771E-02  0.2362315E+00
         21   -1    0    0  503  502  0.00000000000E+00  0.00000000000E+00  0.24156382079E+03  0.24156382079E+03  0.00000000000E+00 0. -1.
         21   -1    0    0  501  503 -0.00000000000E+00 -0.00000000000E+00 -0.46065893234E+00  0.46065893234E+00  0.00000000000E+00 0. -1.
          5    1    1    2  501    0 -0.12760263875E+01 -0.42022645641E+01  0.24641090619E+02  0.25466853313E+02  0.47000000000E+01 0. -1.
         -5    1    1    2    0  502  0.12760263875E+01  0.42022645641E+01  0.21646207124E+03  0.21655762641E+03  0.47000000000E+01 0. -1.
<mgrwt>
<rscale>  2 0.64325167E+01</rscale>
<asrwt>0</asrwt>
<pdfrwt beam="1">  1       21 0.37163564E-01 0.64325167E+01</pdfrwt>
<pdfrwt beam="2">  1       21 0.70870798E-04 0.64325167E+01</pdfrwt>
<totfact> 0.51559860E+08</totfact>
</mgrwt>
</event>
<event>
 4    1  0.3900819E+006  0.5335128E+01  0.7546771E-02  0.2510929E+00
         21   -1    0    0  501  502  0.00000000000E+00  0.00000000000E+00  0.43952700977E+00  0.43952700977E+00  0.00000000000E+00 0. -1.
         21   -1    0    0  502  503 -0.00000000000E+00 -0.00000000000E+00 -0.75685598021E+02  0.75685598021E+02  0.00000000000E+00 0.  1.
          5    1    1    2  501    0  0.20745951833E+01  0.14386266111E+01 -0.23161246105E+02  0.23767770464E+02  0.47000000000E+01 0.  1.
         -5    1    1    2    0  503 -0.20745951833E+01 -0.14386266111E+01 -0.52084824907E+02  0.52357354567E+02  0.47000000000E+01 0.  1.
<mgrwt>
<rscale>  2 0.53351281E+01</rscale>
<asrwt>0</asrwt>
<pdfrwt beam="1">  1       21 0.67619441E-04 0.53351281E+01</pdfrwt>
<pdfrwt beam="2">  1       21 0.11643955E-01 0.53351281E+01</pdfrwt>
<totfact> 0.31116450E+09</totfact>
</mgrwt>
</event>
<event>
 4    1  0.3900819E+006  0.5361734E+01  0.7546771E-02  0.2506723E+00
         21   -1    0    0  501  502  0.00000000000E+00  0.00000000000E+00  0.20877329697E+01  0.20877329697E+01  0.00000000000E+00 0. -1.
         21   -1    0    0  502  503 -0.00000000000E+00 -0.00000000000E+00 -0.18365777930E+02  0.18365777930E+02  0.00000000000E+00 0. -1.
          5    1    1    2  501    0 -0.16677691131E+01  0.19689436652E+01 -0.30232616173E+01  0.61553475757E+01  0.47000000000E+01 0. -1.
         -5    1    1    2    0  503  0.16677691131E+01 -0.19689436652E+01 -0.13254783343E+02  0.14298163324E+02  0.47000000000E+01 0. -1.
<mgrwt>
<rscale>  2 0.53617341E+01</rscale>
<asrwt>0</asrwt>
<pdfrwt beam="1">  1       21 0.32118967E-03 0.53617341E+01</pdfrwt>
<pdfrwt beam="2">  1       21 0.28255045E-02 0.53617341E+01</pdfrwt>
<totfact> 0.31352841E+09</totfact>
</mgrwt>
</event>
<event>
 4    1  0.3900819E+006  0.5094826E+01  0.7546771E-02  0.2550602E+00
         21   -1    0    0  501  502  0.00000000000E+00  0.00000000000E+00  0.10562598045E+02  0.10562598045E+02  0.00000000000E+00 0.  1.
         21   -1    0    0  502  503 -0.00000000000E+00 -0.00000000000E+00 -0.24686984790E+01  0.24686984790E+01  0.00000000000E+00 0.  1.
          5    1    1    2  501    0  0.10125306942E+01 -0.16858328337E+01  0.44864057027E+01  0.67885997731E+01  0.47000000000E+01 0.  1.
         -5    1    1    2    0  503 -0.10125306942E+01  0.16858328337E+01  0.36074938633E+01  0.62426967509E+01  0.47000000000E+01 0.  1.
<mgrwt>
<rscale>  2 0.50948259E+01</rscale>
<asrwt>0</asrwt>
<pdfrwt beam="1">  1       21 0.16250151E-02 0.50948259E+01</pdfrwt>
<pdfrwt beam="2">  1       21 0.37979977E-03 0.50948259E+01</pdfrwt>
<totfact> 0.52082611E+09</totfact>
</mgrwt>
</event>
<event>
 4    1  0.3900819E+006  0.6257899E+01  0.7546771E-02  0.2383019E+00
         21   -1    0    0  503  502  0.00000000000E+00  0.00000000000E+00  0.15710035144E+00  0.15710035144E+00  0.00000000000E+00 0. -1.
         21   -1    0    0  501  503 -0.00000000000E+00 -0.00000000000E+00 -0.64340042194E+03  0.64340042194E+03  0.00000000000E+00 0.  1.
          5    1    1    2  501    0 -0.40414082329E+01 -0.85925544663E+00 -0.57346678201E+03  0.57350092535E+03  0.47000000000E+01 0.  1.
         -5    1    1    2    0  502  0.40414082329E+01  0.85925544663E+00 -0.69776539570E+02  0.70056596940E+02  0.47000000000E+01 0. -1.
<mgrwt>
<rscale>  2 0.62578990E+01</rscale>
<asrwt>0</asrwt>
<pdfrwt beam="1">  1       21 0.24168932E-04 0.62578990E+01</pdfrwt>
<pdfrwt beam="2">  1       21 0.98986125E-01 0.62578990E+01</pdfrwt>
<totfact> 0.34284430E+08</totfact>
</mgrwt>
</event>
<event>
 4    1  0.3900819E+006  0.6224027E+01  0.7546771E-02  0.2387147E+00
         21   -1    0    0  501  502  0.00000000000E+00  0.00000000000E+00  0.84516884896E+01  0.84516884896E+01  0.00000000000E+00 0. -1.
         21   -1    0    0  502  503 -0.00000000000E+00 -0.00000000000E+00 -0.46215798826E+01  0.46215798826E+01  0.00000000000E+00 0.  1.
          5    1    1    2  501    0  0.29302084010E+01 -0.28394357711E+01  0.13218968059E+01  0.63628553289E+01  0.47000000000E+01 0.  1.
         -5    1    1    2    0  503 -0.29302084010E+01  0.28394357711E+01  0.25082118011E+01  0.67104130432E+01  0.47000000000E+01 0. -1.
<mgrwt>
<rscale>  2 0.62240274E+01</rscale>
<asrwt>0</asrwt>
<pdfrwt beam="1">  1       21 0.13002598E-02 0.62240274E+01</pdfrwt>
<pdfrwt beam="2">  1       21 0.71101229E-03 0.62240274E+01</pdfrwt>
<totfact> 0.36320431E+09</totfact>
</mgrwt>
</event>
<event>
 4    1  0.3900819E+006  0.5464365E+01  0.7546771E-02  0.2490830E+00
         21   -1    0    0  503  502  0.00000000000E+00  0.00000000000E+00  0.72985645249E+03  0.72985645249E+03  0.00000000000E+00 0.  1.
         21   -1    0    0  501  503 -0.00000000000E+00 -0.00000000000E+00 -0.12909165152E+00  0.12909165152E+00  0.00000000000E+00 0. -1.
          5    1    1    2  501    0  0.23070806564E+01  0.15641806659E+01  0.63201118035E+02  0.63436902534E+02  0.47000000000E+01 0. -1.
         -5    1    1    2    0  502 -0.23070806564E+01 -0.15641806659E+01  0.66652624281E+03  0.66654864161E+03  0.47000000000E+01 0.  1.
<mgrwt>
<rscale>  2 0.54643648E+01</rscale>
<asrwt>0</asrwt>
<pdfrwt beam="1">  1       21 0.11228230E+00 0.54643648E+01</pdfrwt>
<pdfrwt beam="2">  1       21 0.19860839E-04 0.54643648E+01</pdfrwt>
<totfact> 0.31516397E+08</totfact>
</mgrwt>
</event>
<event>
 4    1  0.3900819E+006  0.9467522E+01  0.7546771E-02  0.2106621E+00
         21   -1    0    0  501  502  0.00000000000E+00  0.00000000000E+00  0.11996702021E+01  0.11996702021E+01  0.00000000000E+00 0.  1.
         21   -1    0    0  502  503 -0.00000000000E+00 -0.00000000000E+00 -0.26023255600E+03  0.26023255600E+03  0.00000000000E+00 0. -1.
          5    1    1    2  501    0  0.36674505685E+01 -0.73548479322E+01 -0.19149195448E+02  0.21361780546E+02  0.47000000000E+01 0.  1.
         -5    1    1    2    0  503 -0.36674505685E+01  0.73548479322E+01 -0.23988369035E+03  0.24007044565E+03  0.47000000000E+01 0. -1.
<mgrwt>
<rscale>  2 0.94675225E+01</rscale>
<asrwt>0</asrwt>
<pdfrwt beam="1">  1       21 0.18456449E-03 0.94675225E+01</pdfrwt>
<pdfrwt beam="2">  1       21 0.40035812E-01 0.94675225E+01</pdfrwt>
<totfact> 0.15208100E+08</totfact>
</mgrwt>
</event>
<event>
 4    1  0.3900819E+006  0.5700623E+01  0.7546771E-02  0.2456096E+00
         21   -1    0    0  503  502  0.00000000000E+00  0.00000000000E+00  0.41717065240E+02  0.41717065240E+02  0.00000000000E+00 0. -1.
         21   -1    0    0  501  503 -0.00000000000E+00 -0.00000000000E+00 -0.56516349198E+01  0.56516349198E+01  0.00000000000E+00 0. -1.
          5    1    1    2  501    0 -0.10831323093E+00  0.32241844427E+01 -0.39588879554E+01  0.69404532215E+01  0.47000000000E+01 0. -1.
         -5    1    1    2    0  502  0.10831323093E+00 -0.32241844427E+01  0.40024318275E+02  0.40428246938E+02  0.47000000000E+01 0. -1.
<mgrwt>
<rscale>  2 0.57006225E+01</rscale>
<asrwt>0</asrwt>
<pdfrwt beam="1">  1       21 0.64180098E-02 0.57006225E+01</pdfrwt>
<pdfrwt beam="2">  1       21 0.86948232E-03 0.57006225E+01</pdfrwt>
<totfact> 0.25027643E+08</totfact>
</mgrwt>
</event>
<event>
 4    1  0.3900819E+006  0.6049299E+01  0.7546771E-02  0.2409051E+00
         21   -1    0    0  501  502  0.00000000000E+00  0.00000000000E+00  0.24912981088E+00  0.24912981088E+00  0.00000000000E+00 0.  1.
         21   -1    0    0  502  503 -0.00000000000E+00 -0.00000000000E+00 -0.23752190338E+03  0.23752190338E+03  0.00000000000E+00 0.  1.
          5    1    1    2  501    0 -0.36991269219E+01 -0.90580100453E+00 -0.45197846098E+02  0.45600869590E+02  0.47000000000E+01 0.  1.
         -5    1    1    2    0  503  0.36991269219E+01  0.90580100453E+00 -0.19207492747E+03  0.19217016360E+03  0.47000000000E+01 0.  1.
<mgrwt>
<rscale>  2 0.60492988E+01</rscale>
<asrwt>0</asrwt>
<pdfrwt beam="1">  1       21 0.38327712E-04 0.60492988E+01</pdfrwt>
<pdfrwt beam="2">  1       21 0.36541785E-01 0.60492988E+01</pdfrwt>
<totfact> 0.11577492E+09</totfact>
</mgrwt>
</event>
<event>
 4    1  0.3900819E+006  0.8224857E+01  0.7546771E-02  0.2192771E+00
         21   -1    0    0  503  502  0.00000000000E+00  0.00000000000E+00  0.83167374036E+01  0.83167374036E+01  0.00000000000E+00 0.  1.
         21   -1    0    0  501  503 -0.00000000000E+00 -0.00000000000E+00 -0.22096723413E+02  0.22096723413E+02  0.00000000000E+00 0.  1.
          5    1    1    2  501    0 -0.37922554085E+01  0.55836436692E+01 -0.18978066580E+02  0.20683696208E+02  0.47000000000E+01 0.  1.
         -5    1    1    2    0  502  0.37922554085E+01 -0.55836436692E+01  0.51980805710E+01  0.97297646082E+01  0.47000000000E+01 0.  1.
<mgrwt>
<rscale>  2 0.82248573E+01</rscale>
<asrwt>0</asrwt>
<pdfrwt beam="1">  1       21 0.12794981E-02 0.82248573E+01</pdfrwt>
<pdfrwt beam="2">  1       21 0.33994959E-02 0.82248573E+01</pdfrwt>
<totfact> 0.47805352E+08</totfact>
</mgrwt>
</event>
<event>
 4    1  0.3900819E+006  0.4854649E+01  0.7546771E-02  0.2593603E+00
         21   -1    0    0  501  502  0.00000000000E+00  0.00000000000E+00  0.31080778847E+02  0.31080778847E+02  0.00000000000E+00 0.  1.
         21   -1    0    0  502  503 -0.00000000000E+00 -0.00000000000E+00 -0.28573295332E+01  0.28573295332E+01  0.00000000000E+00 0.  1.
          5    1    1    2  501    0 -0.11451465043E+01  0.40774164859E+00  0.28655925983E+02  0.29064234167E+02  0.47000000000E+01 0.  1.
         -5    1    1    2    0  503  0.11451465043E+01 -0.40774164859E+00 -0.43247667002E+00  0.48738742124E+01  0.47000000000E+01 0.  1.
<mgrwt>
<rscale>  2 0.48546487E+01</rscale>
<asrwt>0</asrwt>
<pdfrwt beam="1">  1       21 0.47816580E-02 0.48546487E+01</pdfrwt>
<pdfrwt beam="2">  1       21 0.43958918E-03 0.48546487E+01</pdfrwt>
<totfact> 0.86619858E+08</totfact>
</mgrwt>
</event>
<event>
 4    1  0.3900819E+006  0.5253732E+01  0.7546771E-02  0.2524019E+00
         21   -1    0    0  501  502  0.00000000000E+00  0.00000000000E+00  0.37706562446E+01  0.37706562446E+01  0.00000000000E+00 0.  1.
         21   -1    0    0  502  503 -0.00000000000E+00 -0.00000000000E+00 -0.97327661393E+01  0.97327661393E+01  0.00000000000E+00 0. -1.
          5    1    1    2  501    0  0.19599404182E+01  0.12924148600E+01  0.38050932372E+00  0.52674937075E+01  0.47000000000E+01 0.  1.
         -5    1    1    2    0  503 -0.19599404182E+01 -0.12924148600E+01 -0.63426192184E+01  0.82359286764E+01  0.47000000000E+01 0.  1.
<mgrwt>
<rscale>  2 0.52537323E+01</rscale>
<asrwt>0</asrwt>
<pdfrwt beam="1">  1       21 0.58010096E-03 0.52537323E+01</pdfrwt>
<pdfrwt beam="2">  1       21 0.14973487E-02 0.52537323E+01</pdfrwt>
<totfact> 0.33712736E+09</totfact>
</mgrwt>
</event>
<event>
 4    1  0.3900819E+006  0.6299981E+01  0.7546771E-02  0.2377943E+00
         21   -1    0    0  501  502  0.00000000000E+00  0.00000000000E+00  0.21239641173E+01  0.21239641173E+01  0.00000000000E+00 0. -1.
         21   -1    0    0  502  503 -0.00000000000E+00 -0.00000000000E+00 -0.22164014470E+02  0.22164014470E+02  0.00000000000E+00 0. -1.
          5    1    1    2  501    0  0.31704301663E+01  0.27473857903E+01 -0.52098289067E+01  0.81750885841E+01  0.47000000000E+01 0. -1.
         -5    1    1    2    0  503 -0.31704301663E+01 -0.27473857903E+01 -0.14830221446E+02  0.16112890003E+02  0.47000000000E+01 0. -1.
<mgrwt>
<rscale>  2 0.62999806E+01</rscale>
<asrwt>0</asrwt>
<pdfrwt beam="1">  1       21 0.32676370E-03 0.62999806E+01</pdfrwt>
<pdfrwt beam="2">  1       21 0.34098485E-02 0.62999806E+01</pdfrwt>
<totfact> 0.26937618E+09</totfact>
</mgrwt>
</event>
<event>
 4    1  0.3900819E+006  0.5629288E+01  0.7546771E-02  0.2466323E+00
         21   -1    0    0  501  502  0.00000000000E+00  0.00000000000E+00  0.76987696440E+03  0.76987696440E+03  0.00000000000E+00 0.  1.
         21   -1    0    0  502  503 -0.00000000000E+00 -0.00000000000E+00 -0.61063909445E-01  0.61063909445E-01  0.00000000000E+00 0.  1.
          5    1    1    2  501    0  0.29567753041E+01 -0.92539889652E+00  0.60468992610E+03  0.60471612812E+03  0.47000000000E+01 0.  1.
         -5    1    1    2    0  503 -0.29567753041E+01  0.92539889652E+00  0.16512597439E+03  0.16522190019E+03  0.47000000000E+01 0.  1.
<mgrwt>
<rscale>  2 0.56292880E+01</rscale>
<asrwt>0</asrwt>
<pdfrwt beam="1">  1       21 0.11843484E+00 0.56292880E+01</pdfrwt>
<pdfrwt beam="2">  1       21 0.93950642E-05 0.56292880E+01</pdfrwt>
<totfact> 0.77924094E+08</totfact>
</mgrwt>
</event>
<event>
 4    1  0.3900819E+006  0.6924828E+01  0.7546771E-02  0.2308640E+00
         21   -1    0    0  503  502  0.00000000000E+00  0.00000000000E+00  0.19340703148E+01  0.19340703148E+01  0.00000000000E+00 0.  1.
         21   -1    0    0  501  503 -0.00000000000E+00 -0.00000000000E+00 -0.47403024995E+02  0.47403024995E+02  0.00000000000E+00 0. -1.
          5    1    1    2  501    0 -0.62970579920E+00  0.50464557230E+01 -0.39771038628E+02  0.40369403740E+02  0.47000000000E+01 0. -1.
         -5    1    1    2    0  502  0.62970579920E+00 -0.50464557230E+01 -0.56979160522E+01  0.89676915700E+01  0.47000000000E+01 0. -1.
<mgrwt>
<rscale>  2 0.69248281E+01</rscale>
<asrwt>0</asrwt>
<pdfrwt beam="1">  1       21 0.29754931E-03 0.69248281E+01</pdfrwt>
<pdfrwt beam="2">  1       21 0.72927723E-02 0.69248281E+01</pdfrwt>
<totfact> 0.10613558E+09</totfact>
</mgrwt>
</event>
<event>
 4    1  0.3900819E+006  0.5953743E+01  0.7546771E-02  0.2421483E+00
         21   -1    0    0  503  502  0.00000000000E+00  0.00000000000E+00  0.31550167204E+03  0.31550167204E+03  0.00000000000E+00 0. -1.
         21   -1    0    0  501  503 -0.00000000000E+00 -0.00000000000E+00 -0.37903156061E+00  0.37903156061E+00  0.00000000000E+00 0.  1.
          5    1    1    2  501    0 -0.70687514126E+00  0.35857191881E+01  0.25081183344E+02  0.25778146025E+02  0.47000000000E+01 0.  1.
         -5    1    1    2    0  502  0.70687514126E+00 -0.35857191881E+01  0.29004145714E+03  0.29010255758E+03  0.47000000000E+01 0. -1.
<mgrwt>
<rscale>  2 0.59537429E+01</rscale>
<asrwt>0</asrwt>
<pdfrwt beam="1">  1       21 0.48538509E-01 0.59537429E+01</pdfrwt>
<pdfrwt beam="2">  1       21 0.58312800E-04 0.59537429E+01</pdfrwt>
<totfact> 0.39650490E+08</totfact>
</mgrwt>
</event>
<event>
 4    1  0.3900819E+006  0.5181898E+01  0.7546771E-02  0.2535863E+00
         21   -1    0    0  503  502  0.00000000000E+00  0.00000000000E+00  0.22419850269E+02  0.22419850269E+02  0.00000000000E+00 0.  1.
         21   -1    0    0  501  503 -0.00000000000E+00 -0.00000000000E+00 -0.21244109147E+01  0.21244109147E+01  0.00000000000E+00 0.  1.
          5    1    1    2  501    0 -0.21793263019E+01 -0.11228642513E+00  0.20423139144E+01  0.55698399884E+01  0.47000000000E+01 0.  1.
         -5    1    1    2    0  502  0.21793263019E+01  0.11228642513E+00  0.18253125440E+02  0.18974421195E+02  0.47000000000E+01 0.  1.
<mgrwt>
<rscale>  2 0.51818984E+01</rscale>
<asrwt>0</asrwt>
<pdfrwt beam="1">  1       21 0.34492076E-02 0.51818984E+01</pdfrwt>
<pdfrwt beam="2">  1       21 0.32683246E-03 0.51818984E+01</pdfrwt>
<totfact> 0.22204443E+09</totfact>
</mgrwt>
</event>
<event>
 4    1  0.3900819E+006  0.5155542E+01  0.7546771E-02  0.2540279E+00
         21   -1    0    0  501  502  0.00000000000E+00  0.00000000000E+00  0.30290892959E+01  0.30290892959E+01  0.00000000000E+00 0.  1.
         21   -1    0    0  502  503 -0.00000000000E+00 -0.00000000000E+00 -0.99016756225E+01  0.99016756225E+01  0.00000000000E+00 0. -1.
          5    1    1    2  501    0 -0.20406329476E+01  0.57046664119E+00 -0.12551696183E+01  0.53061347312E+01  0.47000000000E+01 0.  1.
         -5    1    1    2    0  503  0.20406329476E+01 -0.57046664119E+00 -0.56174167083E+01  0.76246301871E+01  0.47000000000E+01 0. -1.
<mgrwt>
<rscale>  2 0.51555422E+01</rscale>
<asrwt>0</asrwt>
<pdfrwt beam="1">  1       21 0.46601374E-03 0.51555422E+01</pdfrwt>
<pdfrwt beam="2">  1       21 0.15233347E-02 0.51555422E+01</pdfrwt>
<totfact> 0.43645079E+09</totfact>
</mgrwt>
</event>
<event>
 4    1  0.3900819E+006  0.4840356E+01  0.7546771E-02  0.2596278E+00
         21   -1    0    0  501  502  0.00000000000E+00  0.00000000000E+00  0.29810581630E+01  0.29810581630E+01  0.00000000000E+00 0.  1.
         21   -1    0    0  502  503 -0.00000000000E+00 -0.00000000000E+00 -0.43208409934E+02  0.43208409934E+02  0.00000000000E+00 0.  1.
          5    1    1    2  501    0  0.80610710563E+00 -0.83020501018E+00  0.77534221891E+00  0.49020612584E+01  0.47000000000E+01 0.  1.
         -5    1    1    2    0  503 -0.80610710563E+00  0.83020501018E+00 -0.41002693990E+02  0.41287406839E+02  0.47000000000E+01 0.  1.
<mgrwt>
<rscale>  2 0.48403563E+01</rscale>
<asrwt>0</asrwt>
<pdfrwt beam="1">  1       21 0.45862433E-03 0.48403563E+01</pdfrwt>
<pdfrwt beam="2">  1       21 0.66474477E-02 0.48403563E+01</pdfrwt>
<totfact> 0.50297298E+08</totfact>
</mgrwt>
</event>
<event>
 4    1  0.3900819E+006  0.5025859E+01  0.7546771E-02  0.2562587E+00
         21   -1    0    0  503  502  0.00000000000E+00  0.00000000000E+00  0.11780305302E+00  0.11780305302E+00  0.00000000000E+00 0. -1.
         21   -1    0    0  501  503 -0.00000000000E+00 -0.00000000000E+00 -0.24985777031E+03  0.24985777031E+03  0.00000000000E+00 0.  1.
          5    1    1    2  501    0 -0.16895367102E+01  0.56100229784E+00 -0.17194149321E+03  0.17201493058E+03  0.47000000000E+01 0.  1.
         -5    1    1    2    0  502  0.16895367102E+01 -0.56100229784E+00 -0.77798474055E+02  0.77960642783E+02  0.47000000000E+01 0. -1.
<mgrwt>
<rscale>  2 0.50258589E+01</rscale>
<asrwt>0</asrwt>
<pdfrwt beam="1">  1       21 0.18123642E-04 0.50258589E+01</pdfrwt>
<pdfrwt beam="2">  1       21 0.38439455E-01 0.50258589E+01</pdfrwt>
<totfact> 0.24672743E+09</totfact>
</mgrwt>
</event>
<event>
 4    1  0.3900819E+006  0.5427492E+01  0.7546771E-02  0.2496481E+00
         21   -1    0    0  503  502  0.00000000000E+00  0.00000000000E+00  0.59345487361E+02  0.59345487361E+02  0.00000000000E+00 0.  1.
         21   -1    0    0  501  503 -0.00000000000E+00 -0.00000000000E+00 -0.11485004513E+01  0.11485004513E+01  0.00000000000E+00 0.  1.
          5    1    1    2  501    0 -0.19839199960E+01  0.18524919937E+01  0.63065197709E+01  0.83204481104E+01  0.47000000000E+01 0.  1.
         -5    1    1    2    0  502  0.19839199960E+01 -0.18524919937E+01  0.51890467139E+02  0.52173539702E+02  0.47000000000E+01 0.  1.
<mgrwt>
<rscale>  2 0.54274916E+01</rscale>
<asrwt>0</asrwt>
<pdfrwt beam="1">  1       21 0.91300726E-02 0.54274916E+01</pdfrwt>
<pdfrwt beam="2">  1       21 0.17669242E-03 0.54274916E+01</pdfrwt>
<totfact> 0.12675942E+09</totfact>
</mgrwt>
</event>
<event>
 4    1  0.3900819E+006  0.7781584E+01  0.7546771E-02  0.2228738E+00
         21   -1    0    0  501  502  0.00000000000E+00  0.00000000000E+00  0.35698664478E+00  0.35698664478E+00  0.00000000000E+00 0.  1.
         21   -1    0    0  502  503 -0.00000000000E+00 -0.00000000000E+00 -0.28956941399E+03  0.28956941399E+03  0.00000000000E+00 0. -1.
          5    1    1    2  501    0 -0.12299038459E+00  0.62006394989E+01 -0.51307531532E+02  0.51894275684E+02  0.47000000000E+01 0.  1.
         -5    1    1    2    0  503  0.12299038459E+00 -0.62006394989E+01 -0.23790489582E+03  0.23803212495E+03  0.47000000000E+01 0. -1.
<mgrwt>
<rscale>  2 0.77815845E+01</rscale>
<asrwt>0</asrwt>
<pdfrwt beam="1">  1       21 0.54921113E-04 0.77815845E+01</pdfrwt>
<pdfrwt beam="2">  1       21 0.44549067E-01 0.77815845E+01</pdfrwt>
<totfact> 0.59555572E+08</totfact>
</mgrwt>
</event>
<event>
 4    1  0.3900819E+006  0.5384511E+01  0.7546771E-02  0.2503152E+00
         21   -1    0    0  503  502  0.00000000000E+00  0.00000000000E+00  0.39517661518E-01  0.39517661518E-01  0.00000000000E+00 0. -1.
         21   -1    0    0  501  503 -0.00000000000E+00 -0.00000000000E+00 -0.91121314621E+03  0.91121314621E+03  0.00000000000E+00 0. -1.
          5    1    1    2  501    0 -0.21573365557E+01  0.14996190611E+01 -0.65670423022E+03  0.65672630445E+03  0.47000000000E+01 0. -1.
         -5    1    1    2    0  502  0.21573365557E+01 -0.14996190611E+01 -0.25446939833E+03  0.25452635943E+03  0.47000000000E+01 0. -1.
<mgrwt>
<rscale>  2 0.53845110E+01</rscale>
<asrwt>0</asrwt>
<pdfrwt beam="1">  1       21 0.60792686E-05 0.53845110E+01</pdfrwt>
<pdfrwt beam="2">  1       21 0.14019521E+00 0.53845110E+01</pdfrwt>
<totfact> 0.94834421E+08</totfact>
</mgrwt>
</event>
<event>
 4    1  0.3900819E+006  0.9786851E+01  0.7546771E-02  0.2087325E+00
         21   -1    0    0  501  502  0.00000000000E+00  0.00000000000E+00  0.33196982475E+00  0.33196982475E+00  0.00000000000E+00 0.  1.
         21   -1    0    0  502  503 -0.00000000000E+00 -0.00000000000E+00 -0.53720637197E+03  0.53720637197E+03  0.00000000000E+00 0. -1.
          5    1    1    2  501    0  0.12826329103E+01 -0.84880683286E+01 -0.85573188225E+02  0.86131022252E+02  0.47000000000E+01 0. -1.
         -5    1    1    2    0  503 -0.12826329103E+01  0.84880683286E+01 -0.45130121392E+03  0.45140731954E+03  0.47000000000E+01 0. -1.
<mgrwt>
<rscale>  2 0.97868509E+01</rscale>
<asrwt>0</asrwt>
<pdfrwt beam="1">  1       21 0.51072255E-04 0.97868509E+01</pdfrwt>
<pdfrwt beam="2">  1       21 0.82647176E-01 0.97868509E+01</pdfrwt>
<totfact> 0.22813856E+08</totfact>
</mgrwt>
</event>
<event>
 4    1  0.3900819E+006  0.4906470E+01  0.7546771E-02  0.2584018E+00
         21   -1    0    0  503  502  0.00000000000E+00  0.00000000000E+00  0.73554125639E+00  0.73554125639E+00  0.00000000000E+00 0.  1.
         21   -1    0    0  501  503 -0.00000000000E+00 -0.00000000000E+00 -0.11518843410E+03  0.11518843410E+03  0.00000000000E+00 0.  1.
          5    1    1    2  501    0 -0.14062847699E+01  0.76238835036E-01 -0.10626744407E+03  0.10638065199E+03  0.47000000000E+01 0.  1.
         -5    1    1    2    0  502  0.14062847699E+01 -0.76238835036E-01 -0.81854487792E+01  0.95433233693E+01  0.47000000000E+01 0.  1.
<mgrwt>
<rscale>  2 0.49064701E+01</rscale>
<asrwt>0</asrwt>
<pdfrwt beam="1">  1       21 0.11316015E-03 0.49064701E+01</pdfrwt>
<pdfrwt beam="2">  1       21 0.17721304E-01 0.49064701E+01</pdfrwt>
<totfact> 0.75658682E+08</totfact>
</mgrwt>
</event>
<event>
 4    1  0.3900819E+006  0.6797507E+01  0.7546771E-02  0.2321905E+00
         21   -1    0    0  503  502  0.00000000000E+00  0.00000000000E+00  0.58564337797E+00  0.58564337797E+00  0.00000000000E+00 0.  1.
         21   -1    0    0  501  503 -0.00000000000E+00 -0.00000000000E+00 -0.90257128975E+02  0.90257128975E+02  0.00000000000E+00 0. -1.
          5    1    1    2  501    0 -0.13347308654E+01 -0.47259494079E+01 -0.60949310785E+02  0.61327192904E+02  0.47000000000E+01 0. -1.
         -5    1    1    2    0  502  0.13347308654E+01  0.47259494079E+01 -0.28722174812E+02  0.29515579449E+02  0.47000000000E+01 0.  1.
<mgrwt>
<rscale>  2 0.67975072E+01</rscale>
<asrwt>0</asrwt>
<pdfrwt beam="1">  1       21 0.90098952E-04 0.67975072E+01</pdfrwt>
<pdfrwt beam="2">  1       21 0.13885717E-01 0.67975072E+01</pdfrwt>
<totfact> 0.19723140E+09</totfact>
</mgrwt>
</event>
<event>
 4    1  0.3900819E+006  0.5601203E+01  0.7546771E-02  0.2470410E+00
         21   -1    0    0  503  502  0.00000000000E+00  0.00000000000E+00  0.25519235306E+03  0.25519235306E+03  0.00000000000E+00 0.  1.
         21   -1    0    0  501  503 -0.00000000000E+00 -0.00000000000E+00 -0.12608917221E+00  0.12608917221E+00  0.00000000000E+00 0. -1.
          5    1    1    2  501    0 -0.63709125220E+00  0.29795281402E+01  0.10735979997E+03  0.10750581437E+03  0.47000000000E+01 0.  1.
         -5    1    1    2    0  502  0.63709125220E+00 -0.29795281402E+01  0.14770646391E+03  0.14781262786E+03  0.47000000000E+01 0. -1.
<mgrwt>
<rscale>  2 0.56012028E+01</rscale>
<asrwt>0</asrwt>
<pdfrwt beam="1">  1       21 0.39259949E-01 0.56012028E+01</pdfrwt>
<pdfrwt beam="2">  1       21 0.19398538E-04 0.56012028E+01</pdfrwt>
<totfact> 0.23863860E+09</totfact>
</mgrwt>
</event>
<event>
 4    1  0.3900819E+006  0.5422183E+01  0.7546771E-02  0.2497300E+00
         21   -1    0    0  501  502  0.00000000000E+00  0.00000000000E+00  0.64358685965E+03  0.64358685965E+03  0.00000000000E+00 0.  1.
         21   -1    0    0  502  503 -0.00000000000E+00 -0.00000000000E+00 -0.59847340373E-01  0.59847340373E-01  0.00000000000E+00 0.  1.
          5    1    1    2  501    0  0.11691948417E+01  0.24378375530E+01  0.47833582415E+03  0.47836655478E+03  0.47000000000E+01 0.  1.
         -5    1    1    2    0  503 -0.11691948417E+01 -0.24378375530E+01  0.16519118816E+03  0.16528015221E+03  0.47000000000E+01 0.  1.
<mgrwt>
<rscale>  2 0.54221830E+01</rscale>
<asrwt>0</asrwt>
<pdfrwt beam="1">  1       21 0.99007821E-01 0.54221830E+01</pdfrwt>
<pdfrwt beam="2">  1       21 0.92077985E-05 0.54221830E+01</pdfrwt>
<totfact> 0.11223365E+09</totfact>
</mgrwt>
</event>
<event>
 4    1  0.3900819E+006  0.4810799E+01  0.7546771E-02  0.2601853E+00
         21   -1    0    0  503  502  0.00000000000E+00  0.00000000000E+00  0.18076408750E+02  0.18076408750E+02  0.00000000000E+00 0.  1.
         21   -1    0    0  501  503 -0.00000000000E+00 -0.00000000000E+00 -0.27781001323E+01  0.27781001323E+01  0.00000000000E+00 0.  1.
          5    1    1    2  501    0  0.39547807546E+00 -0.94730577410E+00 -0.71365592674E-02  0.48108047215E+01  0.47000000000E+01 0.  1.
         -5    1    1    2    0  502 -0.39547807546E+00  0.94730577410E+00  0.15305445177E+02  0.16043704161E+02  0.47000000000E+01 0.  1.
<mgrwt>
<rscale>  2 0.48107994E+01</rscale>
<asrwt>0</asrwt>
<pdfrwt beam="1">  1       21 0.27809859E-02 0.48107994E+01</pdfrwt>
<pdfrwt beam="2">  1       21 0.42740003E-03 0.48107994E+01</pdfrwt>
<totfact> 0.19479538E+09</totfact>
</mgrwt>
</event>
<event>
 4    1  0.3900819E+006  0.4725733E+01  0.7546771E-02  0.2618236E+00
         21   -1    0    0  501  502  0.00000000000E+00  0.00000000000E+00  0.11357615308E+03  0.11357615308E+03  0.00000000000E+00 0.  1.
         21   -1    0    0  502  503 -0.00000000000E+00 -0.00000000000E+00 -0.59289278183E+00  0.59289278183E+00  0.00000000000E+00 0.  1.
          5    1    1    2  501    0  0.17790200045E+00  0.45924103011E+00  0.10315988779E+03  0.10326807348E+03  0.47000000000E+01 0.  1.
         -5    1    1    2    0  503 -0.17790200045E+00 -0.45924103011E+00  0.98233725140E+01  0.10900972388E+02  0.47000000000E+01 0.  1.
<mgrwt>
<rscale>  2 0.47257329E+01</rscale>
<asrwt>0</asrwt>
<pdfrwt beam="1">  1       21 0.17473237E-01 0.47257329E+01</pdfrwt>
<pdfrwt beam="2">  1       21 0.91214364E-04 0.47257329E+01</pdfrwt>
<totfact> 0.99457869E+08</totfact>
</mgrwt>
</event>
<event>
 4    1  0.3900819E+006  0.7332635E+01  0.7546771E-02  0.2268711E+00
         21   -1    0    0  501  502  0.00000000000E+00  0.00000000000E+00  0.47703441490E+02  0.47703441490E+02  0.00000000000E+00 0.  1.
         21   -1    0    0  502  503 -0.00000000000E+00 -0.00000000000E+00 -0.42861055999E+02  0.42861055999E+02  0.00000000000E+00 0. -1.
          5    1    1    2  501    0 -0.54178286130E+01 -0.15246888192E+01  0.47104079295E+02  0.47671394243E+02  0.47000000000E+01 0.  1.
         -5    1    1    2    0  503  0.54178286130E+01  0.15246888192E+01 -0.42261693804E+02  0.42893103246E+02  0.47000000000E+01 0. -1.
<mgrwt>
<rscale>  2 0.73326355E+01</rscale>
<asrwt>0</asrwt>
<pdfrwt beam="1">  1       21 0.73389910E-02 0.73326355E+01</pdfrwt>
<pdfrwt beam="2">  1       21 0.65940086E-02 0.73326355E+01</pdfrwt>
<totfact> 0.12446875E+07</totfact>
</mgrwt>
</event>
<event>
 4    1  0.3900819E+006  0.5479454E+01  0.7546771E-02  0.2488535E+00
         21   -1    0    0  503  502  0.00000000000E+00  0.00000000000E+00  0.69120301077E+01  0.69120301077E+01  0.00000000000E+00 0. -1.
         21   -1    0    0  501  503 -0.00000000000E+00 -0.00000000000E+00 -0.10379211460E+02  0.10379211460E+02  0.00000000000E+00 0. -1.
          5    1    1    2  501    0 -0.27920013859E+01  0.37302242680E+00 -0.83263580311E+01  0.99675802245E+01  0.47000000000E+01 0. -1.
         -5    1    1    2    0  502  0.27920013859E+01 -0.37302242680E+00  0.48591766790E+01  0.73236613430E+01  0.47000000000E+01 0. -1.
<mgrwt>
<rscale>  2 0.54794541E+01</rscale>
<asrwt>0</asrwt>
<pdfrwt beam="1">  1       21 0.10633892E-02 0.54794541E+01</pdfrwt>
<pdfrwt beam="2">  1       21 0.15968018E-02 0.54794541E+01</pdfrwt>
<totfact> 0.13772730E+09</totfact>
</mgrwt>
</event>
<event>
 4    1  0.3900819E+006  0.6553293E+01  0.7546771E-02  0.2348532E+00
         21   -1    0    0  501  502  0.00000000000E+00  0.00000000000E+00  0.24894393383E+01  0.24894393383E+01  0.00000000000E+00 0. -1.
         21   -1    0    0  502  503 -0.00000000000E+00 -0.00000000000E+00 -0.46414701289E+02  0.46414701289E+02  0.00000000000E+00 0.  1.
          5    1    1    2  501    0  0.35831388326E+01 -0.28313888412E+01 -0.25802023330E+01  0.70429461693E+01  0.47000000000E+01 0. -1.
         -5    1    1    2    0  503 -0.35831388326E+01  0.28313888412E+01 -0.41345059618E+02  0.41861194458E+02  0.47000000000E+01 0.  1.
<mgrwt>
<rscale>  2 0.65532928E+01</rscale>
<asrwt>0</asrwt>
<pdfrwt beam="1">  1       21 0.38299069E-03 0.65532928E+01</pdfrwt>
<pdfrwt beam="2">  1       21 0.71407228E-02 0.65532928E+01</pdfrwt>
<totfact> 0.74222599E+08</totfact>
</mgrwt>
</event>
<event>
 4    1  0.3900819E+006  0.4912283E+01  0.7546771E-02  0.2582954E+00
         21   -1    0    0  501  502  0.00000000000E+00  0.00000000000E+00  0.33826576265E-01  0.33826576265E-01  0.00000000000E+00 0.  1.
         21   -1    0    0  502  503 -0.00000000000E+00 -0.00000000000E+00 -0.74330112157E+03  0.74330112157E+03  0.00000000000E+00 0.  1.
          5    1    1    2  501    0  0.12588603394E+01 -0.67512644717E+00 -0.29703920229E+03  0.29707981793E+03  0.47000000000E+01 0.  1.
         -5    1    1    2    0  503 -0.12588603394E+01  0.67512644717E+00 -0.44622809270E+03  0.44625513022E+03  0.47000000000E+01 0.  1.
<mgrwt>
<rscale>  2 0.49122831E+01</rscale>
<asrwt>0</asrwt>
<pdfrwt beam="1">  1       21 0.52038806E-05 0.49122831E+01</pdfrwt>
<pdfrwt beam="2">  1       21 0.11435859E+00 0.49122831E+01</pdfrwt>
<totfact> 0.16684216E+09</totfact>
</mgrwt>
</event>
<event>
 4    1  0.3900819E+006  0.5411505E+01  0.7546771E-02  0.2498952E+00
         21   -1    0    0  501  502  0.00000000000E+00  0.00000000000E+00  0.14281761092E+01  0.14281761092E+01  0.00000000000E+00 0. -1.
         21   -1    0    0  502  503 -0.00000000000E+00 -0.00000000000E+00 -0.26900655496E+02  0.26900655496E+02  0.00000000000E+00 0.  1.
          5    1    1    2  501    0 -0.23218705513E+01 -0.13428705522E+01 -0.58295731248E+01  0.79541377279E+01  0.47000000000E+01 0. -1.
         -5    1    1    2    0  503  0.23218705513E+01  0.13428705522E+01 -0.19642906262E+02  0.20374693877E+02  0.47000000000E+01 0.  1.
<mgrwt>
<rscale>  2 0.54115048E+01</rscale>
<asrwt>0</asrwt>
<pdfrwt beam="1">  1       21 0.21971942E-03 0.54115048E+01</pdfrwt>
<pdfrwt beam="2">  1       21 0.41385620E-02 0.54115048E+01</pdfrwt>
<totfact> 0.30499540E+09</totfact>
</mgrwt>
</event>
<event>
 4    1  0.3900819E+006  0.6421984E+01  0.7546771E-02  0.2363537E+00
         21   -1    0    0  501  502  0.00000000000E+00  0.00000000000E+00  0.23565302552E+01  0.23565302552E+01  0.00000000000E+00 0. -1.
         21   -1    0    0  502  503 -0.00000000000E+00 -0.00000000000E+00 -0.18273400810E+02  0.18273400810E+02  0.00000000000E+00 0.  1.
          5    1    1    2  501    0  0.25264574679E+01  0.35733585713E+01 -0.58378756874E+01  0.86788634831E+01  0.47000000000E+01 0. -1.
         -5    1    1    2    0  503 -0.25264574679E+01 -0.35733585713E+01 -0.10078994868E+02  0.11951067583E+02  0.47000000000E+01 0.  1.
<mgrwt>
<rscale>  2 0.64219840E+01</rscale>
<asrwt>0</asrwt>
<pdfrwt beam="1">  1       21 0.36254312E-03 0.64219840E+01</pdfrwt>
<pdfrwt beam="2">  1       21 0.28112924E-02 0.64219840E+01</pdfrwt>
<totfact> 0.31449256E+09</totfact>
</mgrwt>
</event>
<event>
 4    1  0.3900819E+006  0.5283722E+01  0.7546771E-02  0.2519156E+00
         21   -1    0    0  501  502  0.00000000000E+00  0.00000000000E+00  0.59168589544E+00  0.59168589544E+00  0.00000000000E+00 0. -1.
         21   -1    0    0  502  503 -0.00000000000E+00 -0.00000000000E+00 -0.26161943433E+03  0.26161943433E+03  0.00000000000E+00 0.  1.
          5    1    1    2  501    0 -0.17405878558E+01  0.16727429157E+01 -0.11818154950E+02  0.12945520513E+02  0.47000000000E+01 0. -1.
         -5    1    1    2    0  503  0.17405878558E+01 -0.16727429157E+01 -0.24920959348E+03  0.24926559971E+03  0.47000000000E+01 0.  1.
<mgrwt>
<rscale>  2 0.52837217E+01</rscale>
<asrwt>0</asrwt>
<pdfrwt beam="1">  1       21 0.91028404E-04 0.52837217E+01</pdfrwt>
<pdfrwt beam="2">  1       21 0.40249230E-01 0.52837217E+01</pdfrwt>
<totfact> 0.27920417E+08</totfact>
</mgrwt>
</event>
<event>
 4    1  0.3900819E+006  0.4871086E+01  0.7546771E-02  0.2590544E+00
         21   -1    0    0  501  502  0.00000000000E+00  0.00000000000E+00  0.41841340384E+03  0.41841340384E+03  0.00000000000E+00 0.  1.
         21   -1    0    0  502  503 -0.00000000000E+00 -0.00000000000E+00 -0.66306295364E-01  0.66306295364E-01  0.00000000000E+00 0.  1.
          5    1    1    2  501    0  0.10222254097E+01 -0.76976070191E+00  0.28878201748E+03  0.28882309655E+03  0.47000000000E+01 0.  1.
         -5    1    1    2    0  503 -0.10222254097E+01  0.76976070191E+00  0.12956508006E+03  0.12965661359E+03  0.47000000000E+01 0.  1.
<mgrwt>
<rscale>  2 0.48710857E+01</rscale>
<asrwt>0</asrwt>
<pdfrwt beam="1">  1       21 0.64369179E-01 0.48710857E+01</pdfrwt>
<pdfrwt beam="2">  1       21 0.10201304E-04 0.48710857E+01</pdfrwt>
<totfact> 0.20565226E+09</totfact>
</mgrwt>
</event>
<event>
 4    1  0.3900819E+006  0.5492564E+01  0.7546771E-02  0.2486551E+00
         21   -1    0    0  503  502  0.00000000000E+00  0.00000000000E+00  0.15380027451E+03  0.15380027451E+03  0.00000000000E+00 0. -1.
         21   -1    0    0  501  503 -0.00000000000E+00 -0.00000000000E+00 -0.28694848229E+00  0.28694848229E+00  0.00000000000E+00 0. -1.
          5    1    1    2  501    0  0.18527438723E+01 -0.21553641879E+01  0.33418667784E+02  0.33867028377E+02  0.47000000000E+01 0. -1.
         -5    1    1    2    0  502 -0.18527438723E+01  0.21553641879E+01  0.12009465825E+03  0.12022019462E+03  0.47000000000E+01 0. -1.
<mgrwt>
<rscale>  2 0.54925636E+01</rscale>
<asrwt>0</asrwt>
<pdfrwt beam="1">  1       21 0.23661515E-01 0.54925636E+01</pdfrwt>
<pdfrwt beam="2">  1       21 0.44146043E-04 0.54925636E+01</pdfrwt>
<totfact> 0.18385809E+09</totfact>
</mgrwt>
</event>
<event>
 4    1  0.3900819E+006  0.4815226E+01  0.7546771E-02  0.2601015E+00
         21   -1    0    0  503  502  0.00000000000E+00  0.00000000000E+00  0.63226017145E+01  0.63226017145E+01  0.00000000000E+00 0. -1.
         21   -1    0    0  501  503 -0.00000000000E+00 -0.00000000000E+00 -0.93193688601E+01  0.93193688601E+01  0.00000000000E+00 0.  1.
          5    1    1    2  501    0  0.13117466488E+00 -0.10388444230E+01 -0.75891902182E+01  0.89878925614E+01  0.47000000000E+01 0.  1.
         -5    1    1    2    0  502 -0.13117466488E+00  0.10388444230E+01  0.45924230726E+01  0.66540780132E+01  0.47000000000E+01 0. -1.
<mgrwt>
<rscale>  2 0.48152263E+01</rscale>
<asrwt>0</asrwt>
<pdfrwt beam="1">  1       21 0.97270797E-03 0.48152263E+01</pdfrwt>
<pdfrwt beam="2">  1       21 0.14337490E-02 0.48152263E+01</pdfrwt>
<totfact> 0.16029784E+09</totfact>
</mgrwt>
</event>
<event>
 4    1  0.3900819E+006  0.6163804E+01  0.7546771E-02  0.2394580E+00
         21   -1    0    0  501  502  0.00000000000E+00  0.00000000000E+00  0.23590553516E+01  0.23590553516E+01  0.00000000000E+00 0.  1.
         21   -1    0    0  502  503 -0.00000000000E+00 -0.00000000000E+00 -0.46043627819E+02  0.46043627819E+02  0.00000000000E+00 0.  1.
          5    1    1    2  501    0 -0.82500821041E-01  0.39869374197E+01 -0.23271782741E+01  0.65884926268E+01  0.47000000000E+01 0.  1.
         -5    1    1    2    0  503  0.82500821041E-01 -0.39869374197E+01 -0.41357394193E+02  0.41814190544E+02  0.47000000000E+01 0.  1.
<mgrwt>
<rscale>  2 0.61638037E+01</rscale>
<asrwt>0</asrwt>
<pdfrwt beam="1">  1       21 0.36293159E-03 0.61638037E+01</pdfrwt>
<pdfrwt beam="2">  1       21 0.70836352E-02 0.61638037E+01</pdfrwt>
<totfact> 0.77244457E+08</totfact>
</mgrwt>
</event>
<event>
 4    1  0.3900819E+006  0.6841634E+01  0.7546771E-02  0.2317262E+00
         21   -1    0    0  501  502  0.00000000000E+00  0.00000000000E+00  0.18355268498E+02  0.18355268498E+02  0.00000000000E+00 0. -1.
         21   -1    0    0  502  503 -0.00000000000E+00 -0.00000000000E+00 -0.10467009550E+02  0.10467009550E+02  0.00000000000E+00 0.  1.
          5    1    1    2  501    0 -0.40809482547E+01  0.28396868528E+01  0.16477404087E+02  0.17841322976E+02  0.47000000000E+01 0. -1.
         -5    1    1    2    0  503  0.40809482547E+01 -0.28396868528E+01 -0.85891451389E+01  0.10980955072E+02  0.47000000000E+01 0.  1.
<mgrwt>
<rscale>  2 0.68416343E+01</rscale>
<asrwt>0</asrwt>
<pdfrwt beam="1">  1       21 0.28238875E-02 0.68416343E+01</pdfrwt>
<pdfrwt beam="2">  1       21 0.16103092E-02 0.68416343E+01</pdfrwt>
<totfact> 0.39996758E+08</totfact>
</mgrwt>
</event>
<event>
 4    1  0.3900819E+006  0.1163917E+02  0.7546771E-02  0.1992178E+00
         21   -1    0    0  501  502  0.00000000000E+00  0.00000000000E+00  0.54173153412E+00  0.54173153412E+00  0.00000000000E+00 0.  1.
         21   -1    0    0  502  503 -0.00000000000E+00 -0.00000000000E+00 -0.25128649689E+03  0.25128649689E+03  0.00000000000E+00 0. -1.
          5    1    1    2  501    0 -0.10639682384E+02  0.42113981158E+00 -0.11660753195E+03  0.11718697329E+03  0.47000000000E+01 0. -1.
         -5    1    1    2    0  503  0.10639682384E+02 -0.42113981158E+00 -0.13413723340E+03  0.13464125513E+03  0.47000000000E+01 0. -1.
<mgrwt>
<rscale>  2 0.11639167E+02</rscale>
<asrwt>0</asrwt>
<pdfrwt beam="1">  1       21 0.83343140E-04 0.11639167E+02</pdfrwt>
<pdfrwt beam="2">  1       21 0.38659541E-01 0.11639167E+02</pdfrwt>
<totfact> 0.53737972E+08</totfact>
</mgrwt>
</event>
<event>
 4    1  0.3900819E+006  0.8355218E+01  0.7546771E-02  0.2182780E+00
         21   -1    0    0  501  502  0.00000000000E+00  0.00000000000E+00  0.35629803857E+01  0.35629803857E+01  0.00000000000E+00 0.  1.
         21   -1    0    0  502  503 -0.00000000000E+00 -0.00000000000E+00 -0.24367781817E+02  0.24367781817E+02  0.00000000000E+00 0.  1.
          5    1    1    2  501    0 -0.43255841519E+00 -0.68943857242E+01 -0.42205405530E+01  0.93606956930E+01  0.47000000000E+01 0.  1.
         -5    1    1    2    0  503  0.43255841519E+00  0.68943857242E+01 -0.16584260878E+02  0.18570066510E+02  0.47000000000E+01 0.  1.
<mgrwt>
<rscale>  2 0.83552176E+01</rscale>
<asrwt>0</asrwt>
<pdfrwt beam="1">  1       21 0.54815084E-03 0.83552176E+01</pdfrwt>
<pdfrwt beam="2">  1       21 0.37488894E-02 0.83552176E+01</pdfrwt>
<totfact> 0.14037657E+09</totfact>
</mgrwt>
</event>
<event>
 4    1  0.3900819E+006  0.5900212E+01  0.7546771E-02  0.2428595E+00
         21   -1    0    0  503  502  0.00000000000E+00  0.00000000000E+00  0.21260159993E+01  0.21260159993E+01  0.00000000000E+00 0.  1.
         21   -1    0    0  501  503 -0.00000000000E+00 -0.00000000000E+00 -0.20650625223E+02  0.20650625223E+02  0.00000000000E+00 0. -1.
          5    1    1    2  501    0 -0.50986970027E+00  0.35302317202E+01 -0.14444538346E+02  0.15603114790E+02  0.47000000000E+01 0. -1.
         -5    1    1    2    0  502  0.50986970027E+00 -0.35302317202E+01 -0.40800708773E+01  0.71735264322E+01  0.47000000000E+01 0.  1.
<mgrwt>
<rscale>  2 0.59002121E+01</rscale>
<asrwt>0</asrwt>
<pdfrwt beam="1">  1       21 0.32707939E-03 0.59002121E+01</pdfrwt>
<pdfrwt beam="2">  1       21 0.31770192E-02 0.59002121E+01</pdfrwt>
<totfact> 0.28178152E+09</totfact>
</mgrwt>
</event>
<event>
 4    1  0.3900819E+006  0.6719402E+01  0.7546771E-02  0.2330247E+00
         21   -1    0    0  503  502  0.00000000000E+00  0.00000000000E+00  0.99018965625E-01  0.99018965625E-01  0.00000000000E+00 0. -1.
         21   -1    0    0  501  503 -0.00000000000E+00 -0.00000000000E+00 -0.47691230484E+03  0.47691230484E+03  0.00000000000E+00 0. -1.
          5    1    1    2  501    0  0.11284231566E+01 -0.46676572943E+01 -0.28837785165E+03  0.28845612437E+03  0.47000000000E+01 0. -1.
         -5    1    1    2    0  502 -0.11284231566E+01  0.46676572943E+01 -0.18843543422E+03  0.18855519943E+03  0.47000000000E+01 0. -1.
<mgrwt>
<rscale>  2 0.67194020E+01</rscale>
<asrwt>0</asrwt>
<pdfrwt beam="1">  1       21 0.15233331E-04 0.67194020E+01</pdfrwt>
<pdfrwt beam="2">  1       21 0.73372839E-01 0.67194020E+01</pdfrwt>
<totfact> 0.12020477E+09</totfact>
</mgrwt>
</event>
<event>
 4    1  0.3900819E+006  0.5420769E+01  0.7546771E-02  0.2497518E+00
         21   -1    0    0  501  502  0.00000000000E+00  0.00000000000E+00  0.25873055143E+01  0.25873055143E+01  0.00000000000E+00 0.  1.
         21   -1    0    0  502  503 -0.00000000000E+00 -0.00000000000E+00 -0.15742411392E+02  0.15742411392E+02  0.00000000000E+00 0.  1.
          5    1    1    2  501    0 -0.27006764411E+01  0.32899768497E-01 -0.17404896020E+01  0.56933329157E+01  0.47000000000E+01 0.  1.
         -5    1    1    2    0  503  0.27006764411E+01 -0.32899768497E-01 -0.11414616276E+02  0.12636383990E+02  0.47000000000E+01 0.  1.
<mgrwt>
<rscale>  2 0.54207689E+01</rscale>
<asrwt>0</asrwt>
<pdfrwt beam="1">  1       21 0.39804701E-03 0.54207689E+01</pdfrwt>
<pdfrwt beam="2">  1       21 0.24219094E-02 0.54207689E+01</pdfrwt>
<totfact> 0.29478238E+09</totfact>
</mgrwt>
</event>
<event>
 4    1  0.3900819E+006  0.7164650E+01  0.7546771E-02  0.2284708E+00
         21   -1    0    0  503  502  0.00000000000E+00  0.00000000000E+00  0.89576923143E+01  0.89576923143E+01  0.00000000000E+00 0. -1.
         21   -1    0    0  501  503 -0.00000000000E+00 -0.00000000000E+00 -0.15539196733E+02  0.15539196733E+02  0.00000000000E+00 0.  1.
          5    1    1    2  501    0 -0.50361208262E+01  0.19696929364E+01 -0.13022076517E+02  0.14862929727E+02  0.47000000000E+01 0.  1.
         -5    1    1    2    0  502  0.50361208262E+01 -0.19696929364E+01  0.64405720984E+01  0.96339593208E+01  0.47000000000E+01 0. -1.
<mgrwt>
<rscale>  2 0.71646496E+01</rscale>
<asrwt>0</asrwt>
<pdfrwt beam="1">  1       21 0.13781065E-02 0.71646496E+01</pdfrwt>
<pdfrwt beam="2">  1       21 0.23906456E-02 0.71646496E+01</pdfrwt>
<totfact> 0.65901281E+08</totfact>
</mgrwt>
</event>
<event>
 4    1  0.3900819E+006  0.1258910E+02  0.7546771E-02  0.1952005E+00
         21   -1    0    0  501  502  0.00000000000E+00  0.00000000000E+00  0.15354669203E+02  0.15354669203E+02  0.00000000000E+00 0. -1.
         21   -1    0    0  502  503 -0.00000000000E+00 -0.00000000000E+00 -0.10634143268E+02  0.10634143268E+02  0.00000000000E+00 0.  1.
          5    1    1    2  501    0  0.36354871054E+01  0.11098584215E+02  0.45878455535E+01  0.13399017311E+02  0.47000000000E+01 0. -1.
         -5    1    1    2    0  503 -0.36354871054E+01 -0.11098584215E+02  0.13268038116E+00  0.12589795160E+02  0.47000000000E+01 0.  1.
<mgrwt>
<rscale>  2 0.12589096E+02</rscale>
<asrwt>0</asrwt>
<pdfrwt beam="1">  1       21 0.23622568E-02 0.12589096E+02</pdfrwt>
<pdfrwt beam="2">  1       21 0.16360220E-02 0.12589096E+02</pdfrwt>
<totfact> 0.72824589E+08</totfact>
</mgrwt>
</event>
<event>
 4    1  0.3900819E+006  0.4935548E+01  0.7546771E-02  0.2578716E+00
         21   -1    0    0  501  502  0.00000000000E+00  0.00000000000E+00  0.29922323817E-01  0.29922323817E-01  0.00000000000E+00 0. -1.
         21   -1    0    0  502  503 -0.00000000000E+00 -0.00000000000E+00 -0.21961889350E+04  0.21961889350E+04  0.00000000000E+00 0. -1.
          5    1    1    2  501    0 -0.14017986031E+01 -0.55189883602E+00 -0.22695654738E+03  0.22701020688E+03  0.47000000000E+01 0. -1.
         -5    1    1    2    0  503  0.14017986031E+01  0.55189883602E+00 -0.19692024653E+04  0.19692086505E+04  0.47000000000E+01 0. -1.
<mgrwt>
<rscale>  2 0.49355478E+01</rscale>
<asrwt>0</asrwt>
<pdfrwt beam="1">  1       21 0.46053306E-05 0.49355478E+01</pdfrwt>
<pdfrwt beam="2">  1       21 0.33773611E+00 0.49355478E+01</pdfrwt>
<totfact> 0.17419540E+08</totfact>
</mgrwt>
</event>
<event>
 4    1  0.3900819E+006  0.7534475E+01  0.7546771E-02  0.2250262E+00
         21   -1    0    0  501  502  0.00000000000E+00  0.00000000000E+00  0.15593393063E+03  0.15593393063E+03  0.00000000000E+00 0.  1.
         21   -1    0    0  502  503 -0.00000000000E+00 -0.00000000000E+00 -0.36936387704E+00  0.36936387704E+00  0.00000000000E+00 0. -1.
          5    1    1    2  501    0 -0.58883987226E+01 -0.71210682537E-01  0.87152919577E+02  0.87477995526E+02  0.47000000000E+01 0.  1.
         -5    1    1    2    0  503  0.58883987226E+01  0.71210682537E-01  0.68411647173E+02  0.68825298978E+02  0.47000000000E+01 0. -1.
<mgrwt>
<rscale>  2 0.75344748E+01</rscale>
<asrwt>0</asrwt>
<pdfrwt beam="1">  1       21 0.23989783E-01 0.75344748E+01</pdfrwt>
<pdfrwt beam="2">  1       21 0.56825336E-04 0.75344748E+01</pdfrwt>
<totfact> 0.16286473E+09</totfact>
</mgrwt>
</event>
<event>
 4    1  0.3900819E+006  0.8069481E+01  0.7546771E-02  0.2205015E+00
         21   -1    0    0  503  502  0.00000000000E+00  0.00000000000E+00  0.18285355591E+01  0.18285355591E+01  0.00000000000E+00 0.  1.
         21   -1    0    0  501  503 -0.00000000000E+00 -0.00000000000E+00 -0.50666290702E+02  0.50666290702E+02  0.00000000000E+00 0.  1.
          5    1    1    2  501    0  0.42985468520E+01  0.49546973106E+01 -0.38726490446E+02  0.39558280963E+02  0.47000000000E+01 0.  1.
         -5    1    1    2    0  502 -0.42985468520E+01 -0.49546973106E+01 -0.10111264697E+02  0.12936545298E+02  0.47000000000E+01 0.  1.
<mgrwt>
<rscale>  2 0.80694814E+01</rscale>
<asrwt>0</asrwt>
<pdfrwt beam="1">  1       21 0.28131316E-03 0.80694814E+01</pdfrwt>
<pdfrwt beam="2">  1       21 0.77948141E-02 0.80694814E+01</pdfrwt>
<totfact> 0.11522115E+09</totfact>
</mgrwt>
</event>
