<event>
 4    1  0.3964155E+006  0.7777732E+01  0.7546771E-02  0.2229066E+00
         21   -1    0    0  503  502  0.00000000000E+00  0.00000000000E+00  0.85756499759E+00  0.85756499759E+00  0.00000000000E+00 0. -1.
         21   -1    0    0  501  503 -0.00000000000E+00 -0.00000000000E+00 -0.87136464505E+02  0.87136464505E+02  0.00000000000E+00 0.  1.
          5    1    1    2  501    0  0.11927800680E+00 -0.61958761577E+01 -0.62340447931E+02  0.62823757901E+02  0.47000000000E+01 0.  1.
         -5    1    1    2    0  502 -0.11927800680E+00  0.61958761577E+01 -0.23938451576E+02  0.25170271601E+02  0.47000000000E+01 0. -1.
<mgrwt>
<rscale>  2 0.77777316E+01</rscale>
<asrwt>0</asrwt>
<pdfrwt beam="1">  1       21 0.13193308E-03 0.77777316E+01</pdfrwt>
<pdfrwt beam="2">  1       21 0.13405610E-01 0.77777316E+01</pdfrwt>
<totfact> 0.13670737E+09</totfact>
</mgrwt>
</event>
<event>
 4    1  0.3964155E+006  0.6615210E+01  0.7546771E-02  0.2341628E+00
         21   -1    0    0  503  502  0.00000000000E+00  0.00000000000E+00  0.45930387543E+02  0.45930387543E+02  0.00000000000E+00 0.  1.
         21   -1    0    0  501  503 -0.00000000000E+00 -0.00000000000E+00 -0.30271165188E+01  0.30271165188E+01  0.00000000000E+00 0.  1.
          5    1    1    2  501    0  0.43571810520E+01 -0.16388932932E+01  0.11880833195E+01  0.67210519950E+01  0.47000000000E+01 0.  1.
         -5    1    1    2    0  502 -0.43571810520E+01  0.16388932932E+01  0.41715187705E+02  0.42236452067E+02  0.47000000000E+01 0.  1.
<mgrwt>
<rscale>  2 0.66152096E+01</rscale>
<asrwt>0</asrwt>
<pdfrwt beam="1">  1       21 0.70662130E-02 0.66152096E+01</pdfrwt>
<pdfrwt beam="2">  1       21 0.46571027E-03 0.66152096E+01</pdfrwt>
<totfact> 0.57835497E+08</totfact>
</mgrwt>
</event>
<event>
 4    1  0.3964155E+006  0.6799272E+01  0.7546771E-02  0.2321719E+00
         21   -1    0    0  501  502  0.00000000000E+00  0.00000000000E+00  0.39185105878E+03  0.39185105878E+03  0.00000000000E+00 0. -1.
         21   -1    0    0  502  503 -0.00000000000E+00 -0.00000000000E+00 -0.30822740614E+00  0.30822740614E+00  0.00000000000E+00 0.  1.
          5    1    1    2  501    0 -0.48962031635E+01 -0.40900872514E+00  0.34981999380E+03  0.34988606453E+03  0.47000000000E+01 0. -1.
         -5    1    1    2    0  503  0.48962031635E+01  0.40900872514E+00  0.41722837577E+02  0.42273221654E+02  0.47000000000E+01 0.  1.
<mgrwt>
<rscale>  2 0.67992715E+01</rscale>
<asrwt>0</asrwt>
<pdfrwt beam="1">  1       21 0.60284380E-01 0.67992715E+01</pdfrwt>
<pdfrwt beam="2">  1       21 0.47419914E-04 0.67992715E+01</pdfrwt>
<totfact> 0.38381712E+08</totfact>
</mgrwt>
</event>
<event>
 4    1  0.3964155E+006  0.5431674E+01  0.7546771E-02  0.2495837E+00
         21   -1    0    0  503  502  0.00000000000E+00  0.00000000000E+00  0.35464697904E-01  0.35464697904E-01  0.00000000000E+00 0.  1.
         21   -1    0    0  501  503 -0.00000000000E+00 -0.00000000000E+00 -0.83364118720E+03  0.83364118720E+03  0.00000000000E+00 0. -1.
          5    1    1    2  501    0  0.16612829367E+01  0.21571333264E+01 -0.39775306865E+03  0.39779015411E+03  0.47000000000E+01 0. -1.
         -5    1    1    2    0  502 -0.16612829367E+01 -0.21571333264E+01 -0.43585265385E+03  0.43588649779E+03  0.47000000000E+01 0. -1.
<mgrwt>
<rscale>  2 0.54316743E+01</rscale>
<asrwt>0</asrwt>
<pdfrwt beam="1">  1       21 0.54565362E-05 0.54316743E+01</pdfrwt>
<pdfrwt beam="2">  1       21 0.12824241E+00 0.54316743E+01</pdfrwt>
<totfact> 0.13307566E+09</totfact>
</mgrwt>
</event>
<event>
 4    1  0.3964155E+006  0.6730993E+01  0.7546771E-02  0.2328999E+00
         21   -1    0    0  503  502  0.00000000000E+00  0.00000000000E+00  0.91611876370E+01  0.91611876370E+01  0.00000000000E+00 0.  1.
         21   -1    0    0  501  503 -0.00000000000E+00 -0.00000000000E+00 -0.92060235291E+01  0.92060235291E+01  0.00000000000E+00 0.  1.
          5    1    1    2  501    0  0.12633926053E+01  0.46497430711E+01 -0.62699830739E+01  0.91988564099E+01  0.47000000000E+01 0.  1.
         -5    1    1    2    0  502 -0.12633926053E+01 -0.46497430711E+01  0.62251471818E+01  0.91683547563E+01  0.47000000000E+01 0.  1.
<mgrwt>
<rscale>  2 0.67309934E+01</rscale>
<asrwt>0</asrwt>
<pdfrwt beam="1">  1       21 0.14094135E-02 0.67309934E+01</pdfrwt>
<pdfrwt beam="2">  1       21 0.14163113E-02 0.67309934E+01</pdfrwt>
<totfact> 0.13000194E+09</totfact>
</mgrwt>
</event>
<event>
 4    1  0.3964155E+006  0.1141714E+02  0.7546771E-02  0.2002304E+00
         21   -1    0    0  501  502  0.00000000000E+00  0.00000000000E+00  0.21273514773E+01  0.21273514773E+01  0.00000000000E+00 0.  1.
         21   -1    0    0  502  503 -0.00000000000E+00 -0.00000000000E+00 -0.61277189742E+02  0.61277189742E+02  0.00000000000E+00 0.  1.
          5    1    1    2  501    0  0.96895392271E+01 -0.37912989594E+01 -0.29342576448E+02  0.31485519066E+02  0.47000000000E+01 0.  1.
         -5    1    1    2    0  503 -0.96895392271E+01  0.37912989594E+01 -0.29807261817E+02  0.31919022154E+02  0.47000000000E+01 0.  1.
<mgrwt>
<rscale>  2 0.11417141E+02</rscale>
<asrwt>0</asrwt>
<pdfrwt beam="1">  1       21 0.32728484E-03 0.11417141E+02</pdfrwt>
<pdfrwt beam="2">  1       21 0.94272599E-02 0.11417141E+02</pdfrwt>
<totfact> 0.84683016E+08</totfact>
</mgrwt>
</event>
<event>
 4    1  0.3964155E+006  0.5913718E+01  0.7546771E-02  0.2426790E+00
         21   -1    0    0  503  502  0.00000000000E+00  0.00000000000E+00  0.74810206877E+01  0.74810206877E+01  0.00000000000E+00 0. -1.
         21   -1    0    0  501  503 -0.00000000000E+00 -0.00000000000E+00 -0.60435412507E+01  0.60435412507E+01  0.00000000000E+00 0.  1.
          5    1    1    2  501    0  0.34702319725E+01 -0.91627180484E+00 -0.24994573163E+01  0.64202298120E+01  0.47000000000E+01 0.  1.
         -5    1    1    2    0  502 -0.34702319725E+01  0.91627180484E+00  0.39369367533E+01  0.71043321264E+01  0.47000000000E+01 0. -1.
<mgrwt>
<rscale>  2 0.59137183E+01</rscale>
<asrwt>0</asrwt>
<pdfrwt beam="1">  1       21 0.11509263E-02 0.59137183E+01</pdfrwt>
<pdfrwt beam="2">  1       21 0.92977557E-03 0.59137183E+01</pdfrwt>
<totfact> 0.28304849E+09</totfact>
</mgrwt>
</event>
<event>
 4    1  0.3964155E+006  0.6652474E+01  0.7546771E-02  0.2337524E+00
         21   -1    0    0  501  502  0.00000000000E+00  0.00000000000E+00  0.19800450423E+01  0.19800450423E+01  0.00000000000E+00 0. -1.
         21   -1    0    0  502  503 -0.00000000000E+00 -0.00000000000E+00 -0.31624788725E+02  0.31624788725E+02  0.00000000000E+00 0. -1.
          5    1    1    2  501    0  0.12940396271E+01  0.45266842653E+01 -0.57233780178E+01  0.87756746139E+01  0.47000000000E+01 0. -1.
         -5    1    1    2    0  503 -0.12940396271E+01 -0.45266842653E+01 -0.23921365665E+02  0.24829159154E+02  0.47000000000E+01 0. -1.
<mgrwt>
<rscale>  2 0.66524739E+01</rscale>
<asrwt>0</asrwt>
<pdfrwt beam="1">  1       21 0.30462233E-03 0.66524739E+01</pdfrwt>
<pdfrwt beam="2">  1       21 0.48653519E-02 0.66524739E+01</pdfrwt>
<totfact> 0.18349744E+09</totfact>
</mgrwt>
</event>
<event>
 4    1  0.3964155E+006  0.4969920E+01  0.7546771E-02  0.2572518E+00
         21   -1    0    0  501  502  0.00000000000E+00  0.00000000000E+00  0.12709170092E+01  0.12709170092E+01  0.00000000000E+00 0.  1.
         21   -1    0    0  502  503 -0.00000000000E+00 -0.00000000000E+00 -0.24683546294E+02  0.24683546294E+02  0.00000000000E+00 0.  1.
          5    1    1    2  501    0 -0.99244499297E+00  0.12748185040E+01 -0.57221560454E+01  0.75791278582E+01  0.47000000000E+01 0. -1.
         -5    1    1    2    0  503  0.99244499297E+00 -0.12748185040E+01 -0.17690473240E+02  0.18375335445E+02  0.47000000000E+01 0. -1.
<mgrwt>
<rscale>  2 0.49699205E+01</rscale>
<asrwt>0</asrwt>
<pdfrwt beam="1">  1       21 0.19552570E-03 0.49699205E+01</pdfrwt>
<pdfrwt beam="2">  1       21 0.37974685E-02 0.49699205E+01</pdfrwt>
<totfact> 0.37142571E+09</totfact>
</mgrwt>
</event>
<event>
 4    1  0.3964155E+006  0.6631499E+01  0.7546771E-02  0.2339829E+00
         21   -1    0    0  501  502  0.00000000000E+00  0.00000000000E+00  0.11577934503E+00  0.11577934503E+00  0.00000000000E+00 0.  1.
         21   -1    0    0  502  503 -0.00000000000E+00 -0.00000000000E+00 -0.38510539639E+03  0.38510539639E+03  0.00000000000E+00 0.  1.
          5    1    1    2  501    0 -0.15139227879E+01  0.44266039096E+01 -0.21503230204E+03  0.21513453396E+03  0.47000000000E+01 0.  1.
         -5    1    1    2    0  503  0.15139227879E+01 -0.44266039096E+01 -0.16995731501E+03  0.17008664177E+03  0.47000000000E+01 0.  1.
<mgrwt>
<rscale>  2 0.66314994E+01</rscale>
<asrwt>0</asrwt>
<pdfrwt beam="1">  1       21 0.17812468E-04 0.66314994E+01</pdfrwt>
<pdfrwt beam="2">  1       21 0.59246116E-01 0.66314994E+01</pdfrwt>
<totfact> 0.14499516E+09</totfact>
</mgrwt>
</event>
<event>
 4    1  0.3964155E+006  0.4888726E+01  0.7546771E-02  0.2587280E+00
         21   -1    0    0  503  502  0.00000000000E+00  0.00000000000E+00  0.16653815281E+04  0.16653815281E+04  0.00000000000E+00 0. -1.
         21   -1    0    0  501  503 -0.00000000000E+00 -0.00000000000E+00 -0.15799383134E-01  0.15799383134E-01  0.00000000000E+00 0. -1.
          5    1    1    2  501    0 -0.28022765660E+00 -0.13157187905E+01  0.10848170606E+04  0.10848280761E+04  0.47000000000E+01 0. -1.
         -5    1    1    2    0  502  0.28022765660E+00  0.13157187905E+01  0.58054866817E+03  0.58056925147E+03  0.47000000000E+01 0. -1.
<mgrwt>
<rscale>  2 0.48887262E+01</rscale>
<asrwt>0</asrwt>
<pdfrwt beam="1">  1       21 0.25607202E+00 0.48887262E+01</pdfrwt>
<pdfrwt beam="2">  1       21 0.24320082E-05 0.48887262E+01</pdfrwt>
<totfact> 0.83862030E+08</totfact>
</mgrwt>
</event>
<event>
 4    1  0.3964155E+006  0.6274445E+01  0.7546771E-02  0.2381017E+00
         21   -1    0    0  501  502  0.00000000000E+00  0.00000000000E+00  0.44683274017E+02  0.44683274017E+02  0.00000000000E+00 0.  1.
         21   -1    0    0  502  503 -0.00000000000E+00 -0.00000000000E+00 -0.22653341038E+01  0.22653341038E+01  0.00000000000E+00 0.  1.
          5    1    1    2  501    0  0.16864202695E+01  0.37992953470E+01  0.39559034471E+02  0.40053537506E+02  0.47000000000E+01 0.  1.
         -5    1    1    2    0  503 -0.16864202695E+01 -0.37992953470E+01  0.28589054426E+01  0.68950706152E+01  0.47000000000E+01 0.  1.
<mgrwt>
<rscale>  2 0.62744449E+01</rscale>
<asrwt>0</asrwt>
<pdfrwt beam="1">  1       21 0.68743492E-02 0.62744449E+01</pdfrwt>
<pdfrwt beam="2">  1       21 0.34851297E-03 0.62744449E+01</pdfrwt>
<totfact> 0.86664094E+08</totfact>
</mgrwt>
</event>
<event>
 4    1  0.3964155E+006  0.5764995E+01  0.7546771E-02  0.2447051E+00
         21   -1    0    0  501  502  0.00000000000E+00  0.00000000000E+00  0.74759177489E+01  0.74759177489E+01  0.00000000000E+00 0.  1.
         21   -1    0    0  502  503 -0.00000000000E+00 -0.00000000000E+00 -0.59155804588E+01  0.59155804588E+01  0.00000000000E+00 0.  1.
          5    1    1    2  501    0  0.20005149389E+00  0.33324389079E+01  0.41179027037E+01  0.70846518864E+01  0.47000000000E+01 0.  1.
         -5    1    1    2    0  503 -0.20005149389E+00 -0.33324389079E+01 -0.25575654136E+01  0.63068463212E+01  0.47000000000E+01 0.  1.
<mgrwt>
<rscale>  2 0.57649952E+01</rscale>
<asrwt>0</asrwt>
<pdfrwt beam="1">  1       21 0.11501412E-02 0.57649952E+01</pdfrwt>
<pdfrwt beam="2">  1       21 0.91008929E-03 0.57649952E+01</pdfrwt>
<totfact> 0.28536616E+09</totfact>
</mgrwt>
</event>
<event>
 4    1  0.3964155E+006  0.7886565E+01  0.7546771E-02  0.2219926E+00
         21   -1    0    0  501  502  0.00000000000E+00  0.00000000000E+00  0.62557337089E+00  0.62557337089E+00  0.00000000000E+00 0.  1.
         21   -1    0    0  502  503 -0.00000000000E+00 -0.00000000000E+00 -0.42719888890E+03  0.42719888890E+03  0.00000000000E+00 0.  1.
          5    1    1    2  501    0  0.26194763428E+01 -0.57659566440E+01 -0.25913472035E+02  0.27087006945E+02  0.47000000000E+01 0.  1.
         -5    1    1    2    0  503 -0.26194763428E+01  0.57659566440E+01 -0.40065984349E+03  0.40073745533E+03  0.47000000000E+01 0.  1.
<mgrwt>
<rscale>  2 0.78865653E+01</rscale>
<asrwt>0</asrwt>
<pdfrwt beam="1">  1       21 0.96241968E-04 0.78865653E+01</pdfrwt>
<pdfrwt beam="2">  1       21 0.65722967E-01 0.78865653E+01</pdfrwt>
<totfact> 0.13596707E+08</totfact>
</mgrwt>
</event>
<event>
 4    1  0.3964155E+006  0.6727568E+01  0.7546771E-02  0.2329368E+00
         21   -1    0    0  501  502  0.00000000000E+00  0.00000000000E+00  0.57868753892E-01  0.57868753892E-01  0.00000000000E+00 0.  1.
         21   -1    0    0  502  503 -0.00000000000E+00 -0.00000000000E+00 -0.81170132849E+03  0.81170132849E+03  0.00000000000E+00 0. -1.
          5    1    1    2  501    0  0.46011716094E+01  0.14139972176E+01 -0.32833525968E+03  0.32840417616E+03  0.47000000000E+01 0.  1.
         -5    1    1    2    0  503 -0.46011716094E+01 -0.14139972176E+01 -0.48330820005E+03  0.48335502108E+03  0.47000000000E+01 0. -1.
<mgrwt>
<rscale>  2 0.67275678E+01</rscale>
<asrwt>0</asrwt>
<pdfrwt beam="1">  1       21 0.89027226E-05 0.67275678E+01</pdfrwt>
<pdfrwt beam="2">  1       21 0.12487941E+00 0.67275678E+01</pdfrwt>
<totfact> 0.84083916E+08</totfact>
</mgrwt>
</event>
<event>
 4    1  0.3964155E+006  0.5327873E+01  0.7546771E-02  0.2512082E+00
         21   -1    0    0  503  502  0.00000000000E+00  0.00000000000E+00  0.29200514200E+00  0.29200514200E+00  0.00000000000E+00 0.  1.
         21   -1    0    0  501  503 -0.00000000000E+00 -0.00000000000E+00 -0.97257009471E+02  0.97257009471E+02  0.00000000000E+00 0.  1.
          5    1    1    2  501    0 -0.24737748889E+01  0.42031729530E+00 -0.49538728994E+02  0.49824410675E+02  0.47000000000E+01 0.  1.
         -5    1    1    2    0  502  0.24737748889E+01 -0.42031729530E+00 -0.47426275335E+02  0.47724603938E+02  0.47000000000E+01 0.  1.
<mgrwt>
<rscale>  2 0.53278728E+01</rscale>
<asrwt>0</asrwt>
<pdfrwt beam="1">  1       21 0.44923857E-04 0.53278728E+01</pdfrwt>
<pdfrwt beam="2">  1       21 0.14962620E-01 0.53278728E+01</pdfrwt>
<totfact> 0.36294923E+09</totfact>
</mgrwt>
</event>
<event>
 4    1  0.3964155E+006  0.5866611E+01  0.7546771E-02  0.2433114E+00
         21   -1    0    0  501  502  0.00000000000E+00  0.00000000000E+00  0.82391379389E+01  0.82391379389E+01  0.00000000000E+00 0. -1.
         21   -1    0    0  502  503 -0.00000000000E+00 -0.00000000000E+00 -0.62435300571E+01  0.62435300571E+01  0.00000000000E+00 0.  1.
          5    1    1    2  501    0 -0.23415131082E+01 -0.26161887317E+01 -0.31679697024E+01  0.66673202376E+01  0.47000000000E+01 0.  1.
         -5    1    1    2    0  503  0.23415131082E+01  0.26161887317E+01  0.51635775842E+01  0.78153477583E+01  0.47000000000E+01 0. -1.
<mgrwt>
<rscale>  2 0.58666112E+01</rscale>
<asrwt>0</asrwt>
<pdfrwt beam="1">  1       21 0.12675597E-02 0.58666112E+01</pdfrwt>
<pdfrwt beam="2">  1       21 0.96054308E-03 0.58666112E+01</pdfrwt>
<totfact> 0.23416162E+09</totfact>
</mgrwt>
</event>
<event>
 4    1  0.3964155E+006  0.6676069E+01  0.7546771E-02  0.2334945E+00
         21   -1    0    0  503  502  0.00000000000E+00  0.00000000000E+00  0.41674650329E-01  0.41674650329E-01  0.00000000000E+00 0. -1.
         21   -1    0    0  501  503 -0.00000000000E+00 -0.00000000000E+00 -0.18490100770E+04  0.18490100770E+04  0.00000000000E+00 0.  1.
          5    1    1    2  501    0  0.29629345489E+01  0.37014753538E+01 -0.15247835920E+04  0.15247982071E+04  0.47000000000E+01 0.  1.
         -5    1    1    2    0  502 -0.29629345489E+01 -0.37014753538E+01 -0.32418481036E+03  0.32425354457E+03  0.47000000000E+01 0. -1.
<mgrwt>
<rscale>  2 0.66760693E+01</rscale>
<asrwt>0</asrwt>
<pdfrwt beam="1">  1       21 0.64114525E-05 0.66760693E+01</pdfrwt>
<pdfrwt beam="2">  1       21 0.28446452E+00 0.66760693E+01</pdfrwt>
<totfact> 0.20033485E+08</totfact>
</mgrwt>
</event>
<event>
 4    1  0.3964155E+006  0.6220519E+01  0.7546771E-02  0.2387577E+00
         21   -1    0    0  501  502  0.00000000000E+00  0.00000000000E+00  0.40553610203E+00  0.40553610203E+00  0.00000000000E+00 0. -1.
         21   -1    0    0  502  503 -0.00000000000E+00 -0.00000000000E+00 -0.10528902661E+03  0.10528902661E+03  0.00000000000E+00 0.  1.
          5    1    1    2  501    0 -0.29611962810E+01  0.27993160554E+01 -0.36259295825E+02  0.36789011777E+02  0.47000000000E+01 0. -1.
         -5    1    1    2    0  503  0.29611962810E+01 -0.27993160554E+01 -0.68624194683E+02  0.68905550935E+02  0.47000000000E+01 0.  1.
<mgrwt>
<rscale>  2 0.62205188E+01</rscale>
<asrwt>0</asrwt>
<pdfrwt beam="1">  1       21 0.62390064E-04 0.62205188E+01</pdfrwt>
<pdfrwt beam="2">  1       21 0.16198339E-01 0.62205188E+01</pdfrwt>
<totfact> 0.23630526E+09</totfact>
</mgrwt>
</event>
<event>
 4    1  0.3964155E+006  0.4739884E+01  0.7546771E-02  0.2615475E+00
         21   -1    0    0  501  502  0.00000000000E+00  0.00000000000E+00  0.29126478813E+02  0.29126478813E+02  0.00000000000E+00 0. -1.
         21   -1    0    0  502  503 -0.00000000000E+00 -0.00000000000E+00 -0.14716610195E+01  0.14716610195E+01  0.00000000000E+00 0. -1.
          5    1    1    2  501    0 -0.56970012880E+00  0.22791841970E+00  0.24381207247E+02  0.24837668406E+02  0.47000000000E+01 0. -1.
         -5    1    1    2    0  503  0.56970012880E+00 -0.22791841970E+00  0.32736105467E+01  0.57604714264E+01  0.47000000000E+01 0. -1.
<mgrwt>
<rscale>  2 0.47398845E+01</rscale>
<asrwt>0</asrwt>
<pdfrwt beam="1">  1       21 0.44809963E-02 0.47398845E+01</pdfrwt>
<pdfrwt beam="2">  1       21 0.22640941E-03 0.47398845E+01</pdfrwt>
<totfact> 0.22853712E+09</totfact>
</mgrwt>
</event>
<event>
 4    1  0.3964155E+006  0.8819440E+01  0.7546771E-02  0.2149139E+00
         21   -1    0    0  503  502  0.00000000000E+00  0.00000000000E+00  0.89421269680E+01  0.89421269680E+01  0.00000000000E+00 0.  1.
         21   -1    0    0  501  503 -0.00000000000E+00 -0.00000000000E+00 -0.88025388466E+01  0.88025388466E+01  0.00000000000E+00 0. -1.
          5    1    1    2  501    0 -0.21674705706E+01  0.71410497600E+01 -0.89506720754E+00  0.88647428420E+01  0.47000000000E+01 0.  1.
         -5    1    1    2    0  502  0.21674705706E+01 -0.71410497600E+01  0.10346553290E+01  0.88799229726E+01  0.47000000000E+01 0. -1.
<mgrwt>
<rscale>  2 0.88194399E+01</rscale>
<asrwt>0</asrwt>
<pdfrwt beam="1">  1       21 0.13757118E-02 0.88194399E+01</pdfrwt>
<pdfrwt beam="2">  1       21 0.13542367E-02 0.88194399E+01</pdfrwt>
<totfact> 0.17420416E+09</totfact>
</mgrwt>
</event>
<event>
 4    1  0.3964155E+006  0.5187014E+01  0.7546771E-02  0.2535010E+00
         21   -1    0    0  503  502  0.00000000000E+00  0.00000000000E+00  0.90147853353E+01  0.90147853353E+01  0.00000000000E+00 0.  1.
         21   -1    0    0  501  503 -0.00000000000E+00 -0.00000000000E+00 -0.30523217972E+01  0.30523217972E+01  0.00000000000E+00 0.  1.
          5    1    1    2  501    0  0.10455005839E+01 -0.19292593649E+01  0.20822107136E+01  0.55893393728E+01  0.47000000000E+01 0.  1.
         -5    1    1    2    0  502 -0.10455005839E+01  0.19292593649E+01  0.38802528244E+01  0.64777677597E+01  0.47000000000E+01 0.  1.
<mgrwt>
<rscale>  2 0.51870139E+01</rscale>
<asrwt>0</asrwt>
<pdfrwt beam="1">  1       21 0.13868900E-02 0.51870139E+01</pdfrwt>
<pdfrwt beam="2">  1       21 0.46958797E-03 0.51870139E+01</pdfrwt>
<totfact> 0.49611251E+09</totfact>
</mgrwt>
</event>
<event>
 4    1  0.3964155E+006  0.7184257E+01  0.7546771E-02  0.2282809E+00
         21   -1    0    0  503  502  0.00000000000E+00  0.00000000000E+00  0.83503752750E+03  0.83503752750E+03  0.00000000000E+00 0.  1.
         21   -1    0    0  501  503 -0.00000000000E+00 -0.00000000000E+00 -0.50937774402E+00  0.50937774402E+00  0.00000000000E+00 0.  1.
          5    1    1    2  501    0  0.40845784597E+01  0.35832613923E+01  0.25657189064E+02  0.26644040498E+02  0.47000000000E+01 0.  1.
         -5    1    1    2    0  502 -0.40845784597E+01 -0.35832613923E+01  0.80887096069E+03  0.80890286474E+03  0.47000000000E+01 0.  1.
<mgrwt>
<rscale>  2 0.71842566E+01</rscale>
<asrwt>0</asrwt>
<pdfrwt beam="1">  1       21 0.12846622E+00 0.71842566E+01</pdfrwt>
<pdfrwt beam="2">  1       21 0.78366475E-04 0.71842566E+01</pdfrwt>
<totfact> 0.44207025E+07</totfact>
</mgrwt>
</event>
<event>
 4    1  0.3964155E+006  0.5052826E+01  0.7546771E-02  0.2557867E+00
         21   -1    0    0  503  502  0.00000000000E+00  0.00000000000E+00  0.74016916512E+00  0.74016916512E+00  0.00000000000E+00 0.  1.
         21   -1    0    0  501  503 -0.00000000000E+00 -0.00000000000E+00 -0.56665746082E+02  0.56665746082E+02  0.00000000000E+00 0.  1.
          5    1    1    2  501    0  0.18520155100E+01  0.10531018682E+00 -0.45917186018E+02  0.46194361382E+02  0.47000000000E+01 0.  1.
         -5    1    1    2    0  502 -0.18520155100E+01 -0.10531018682E+00 -0.10008390899E+02  0.11211553865E+02  0.47000000000E+01 0.  1.
<mgrwt>
<rscale>  2 0.50528261E+01</rscale>
<asrwt>0</asrwt>
<pdfrwt beam="1">  1       21 0.11387211E-03 0.50528261E+01</pdfrwt>
<pdfrwt beam="2">  1       21 0.87178126E-02 0.50528261E+01</pdfrwt>
<totfact> 0.22905516E+09</totfact>
</mgrwt>
</event>
<event>
 4    1  0.3964155E+006  0.8857300E+01  0.7546771E-02  0.2146520E+00
         21   -1    0    0  503  502  0.00000000000E+00  0.00000000000E+00  0.11154161178E+01  0.11154161178E+01  0.00000000000E+00 0. -1.
         21   -1    0    0  501  503 -0.00000000000E+00 -0.00000000000E+00 -0.99157183106E+02  0.99157183106E+02  0.00000000000E+00 0. -1.
          5    1    1    2  501    0 -0.39844837623E+01  0.63628341629E+01 -0.76051785259E+02  0.76565826649E+02  0.47000000000E+01 0. -1.
         -5    1    1    2    0  502  0.39844837623E+01 -0.63628341629E+01 -0.21989981730E+02  0.23706772575E+02  0.47000000000E+01 0. -1.
<mgrwt>
<rscale>  2 0.88573003E+01</rscale>
<asrwt>0</asrwt>
<pdfrwt beam="1">  1       21 0.17160249E-03 0.88573003E+01</pdfrwt>
<pdfrwt beam="2">  1       21 0.15254950E-01 0.88573003E+01</pdfrwt>
<totfact> 0.83925323E+08</totfact>
</mgrwt>
</event>
<event>
 4    1  0.3964155E+006  0.4923820E+01  0.7546771E-02  0.2580848E+00
         21   -1    0    0  501  502  0.00000000000E+00  0.00000000000E+00  0.51843139871E-01  0.51843139871E-01  0.00000000000E+00 0.  1.
         21   -1    0    0  502  503 -0.00000000000E+00 -0.00000000000E+00 -0.14808201249E+04  0.14808201249E+04  0.00000000000E+00 0.  1.
          5    1    1    2  501    0 -0.14501704495E+01  0.22584239344E+00 -0.12792179854E+03  0.12801652449E+03  0.47000000000E+01 0.  1.
         -5    1    1    2    0  503  0.14501704495E+01 -0.22584239344E+00 -0.13528464833E+04  0.13528554436E+04  0.47000000000E+01 0.  1.
<mgrwt>
<rscale>  2 0.49238196E+01</rscale>
<asrwt>0</asrwt>
<pdfrwt beam="1">  1       21 0.79756288E-05 0.49238196E+01</pdfrwt>
<pdfrwt beam="2">  1       21 0.22782530E+00 0.49238196E+01</pdfrwt>
<totfact> 0.21751965E+08</totfact>
</mgrwt>
</event>
<event>
 4    1  0.3964155E+006  0.1341977E+02  0.7546771E-02  0.1920505E+00
         21   -1    0    0  501  502  0.00000000000E+00  0.00000000000E+00  0.16564051967E+02  0.16564051967E+02  0.00000000000E+00 0.  1.
         21   -1    0    0  502  503 -0.00000000000E+00 -0.00000000000E+00 -0.14923907135E+02  0.14923907135E+02  0.00000000000E+00 0. -1.
          5    1    1    2  501    0  0.12391432780E+02  0.21101545149E+01  0.90232785254E+01  0.16171268156E+02  0.47000000000E+01 0.  1.
         -5    1    1    2    0  503 -0.12391432780E+02 -0.21101545149E+01 -0.73831336937E+01  0.15316690947E+02  0.47000000000E+01 0. -1.
<mgrwt>
<rscale>  2 0.13419775E+02</rscale>
<asrwt>0</asrwt>
<pdfrwt beam="1">  1       21 0.25483157E-02 0.13419775E+02</pdfrwt>
<pdfrwt beam="2">  1       21 0.22959857E-02 0.13419775E+02</pdfrwt>
<totfact> 0.40323150E+08</totfact>
</mgrwt>
</event>
<event>
 4    1  0.3964155E+006  0.7238169E+01  0.7546771E-02  0.2277632E+00
         21   -1    0    0  501  502  0.00000000000E+00  0.00000000000E+00  0.94134325386E+00  0.94134325386E+00  0.00000000000E+00 0.  1.
         21   -1    0    0  502  503 -0.00000000000E+00 -0.00000000000E+00 -0.57923583562E+02  0.57923583562E+02  0.00000000000E+00 0.  1.
          5    1    1    2  501    0  0.39660972349E+01 -0.38172185092E+01 -0.22667236824E+02  0.23794846283E+02  0.47000000000E+01 0.  1.
         -5    1    1    2    0  503 -0.39660972349E+01  0.38172185092E+01 -0.34315003485E+02  0.35070080533E+02  0.47000000000E+01 0.  1.
<mgrwt>
<rscale>  2 0.72381686E+01</rscale>
<asrwt>0</asrwt>
<pdfrwt beam="1">  1       21 0.14482205E-03 0.72381686E+01</pdfrwt>
<pdfrwt beam="2">  1       21 0.89113200E-02 0.72381686E+01</pdfrwt>
<totfact> 0.21697826E+09</totfact>
</mgrwt>
</event>
<event>
 4    1  0.3964155E+006  0.4716376E+01  0.7546771E-02  0.2620070E+00
         21   -1    0    0  501  502  0.00000000000E+00  0.00000000000E+00  0.45328963490E+03  0.45328963490E+03  0.00000000000E+00 0.  1.
         21   -1    0    0  502  503 -0.00000000000E+00 -0.00000000000E+00 -0.14852181943E+00  0.14852181943E+00  0.00000000000E+00 0.  1.
          5    1    1    2  501    0  0.33165250413E+00  0.21025129083E+00  0.41209158965E+03  0.41211857815E+03  0.47000000000E+01 0.  1.
         -5    1    1    2    0  503 -0.33165250413E+00 -0.21025129083E+00  0.41049523430E+02  0.41319578565E+02  0.47000000000E+01 0.  1.
<mgrwt>
<rscale>  2 0.47163756E+01</rscale>
<asrwt>0</asrwt>
<pdfrwt beam="1">  1       21 0.69735759E-01 0.47163756E+01</pdfrwt>
<pdfrwt beam="2">  1       21 0.22849874E-04 0.47163756E+01</pdfrwt>
<totfact> 0.59401397E+08</totfact>
</mgrwt>
</event>
<event>
 4    1  0.3964155E+006  0.8294739E+01  0.7546771E-02  0.2187384E+00
         21   -1    0    0  501  502  0.00000000000E+00  0.00000000000E+00  0.13752748366E+01  0.13752748366E+01  0.00000000000E+00 0.  1.
         21   -1    0    0  502  503 -0.00000000000E+00 -0.00000000000E+00 -0.50826040541E+02  0.50826040541E+02  0.00000000000E+00 0.  1.
          5    1    1    2  501    0  0.16530433852E+01 -0.66317522550E+01 -0.21455489845E+02  0.23003059251E+02  0.47000000000E+01 0.  1.
         -5    1    1    2    0  503 -0.16530433852E+01  0.66317522550E+01 -0.27995275859E+02  0.29198256126E+02  0.47000000000E+01 0.  1.
<mgrwt>
<rscale>  2 0.82947387E+01</rscale>
<asrwt>0</asrwt>
<pdfrwt beam="1">  1       21 0.21158078E-03 0.82947387E+01</pdfrwt>
<pdfrwt beam="2">  1       21 0.78193897E-02 0.82947387E+01</pdfrwt>
<totfact> 0.17350231E+09</totfact>
</mgrwt>
</event>
<event>
 4    1  0.3964155E+006  0.6870638E+01  0.7546771E-02  0.2314236E+00
         21   -1    0    0  501  502  0.00000000000E+00  0.00000000000E+00  0.11008004340E+02  0.11008004340E+02  0.00000000000E+00 0.  1.
         21   -1    0    0  502  503 -0.00000000000E+00 -0.00000000000E+00 -0.43860560294E+01  0.43860560294E+01  0.00000000000E+00 0.  1.
          5    1    1    2  501    0 -0.32152915692E+00 -0.50012280319E+01  0.44600541077E+01  0.81913213506E+01  0.47000000000E+01 0.  1.
         -5    1    1    2    0  503  0.32152915692E+00  0.50012280319E+01  0.21618942026E+01  0.72027390185E+01  0.47000000000E+01 0.  1.
<mgrwt>
<rscale>  2 0.68706377E+01</rscale>
<asrwt>0</asrwt>
<pdfrwt beam="1">  1       21 0.16935391E-02 0.68706377E+01</pdfrwt>
<pdfrwt beam="2">  1       21 0.67477785E-03 0.68706377E+01</pdfrwt>
<totfact> 0.29097616E+09</totfact>
</mgrwt>
</event>
<event>
 4    1  0.3964155E+006  0.8448614E+01  0.7546771E-02  0.2175775E+00
         21   -1    0    0  501  502  0.00000000000E+00  0.00000000000E+00  0.93715925465E+01  0.93715925465E+01  0.00000000000E+00 0. -1.
         21   -1    0    0  502  503 -0.00000000000E+00 -0.00000000000E+00 -0.23216817295E+02  0.23216817295E+02  0.00000000000E+00 0. -1.
          5    1    1    2  501    0 -0.45551697179E+01  0.53422385204E+01  0.64340525016E+01  0.10619609934E+02  0.47000000000E+01 0. -1.
         -5    1    1    2    0  503  0.45551697179E+01 -0.53422385204E+01 -0.20279277250E+02  0.21968799907E+02  0.47000000000E+01 0. -1.
<mgrwt>
<rscale>  2 0.84486143E+01</rscale>
<asrwt>0</asrwt>
<pdfrwt beam="1">  1       21 0.14417835E-02 0.84486143E+01</pdfrwt>
<pdfrwt beam="2">  1       21 0.35718180E-02 0.84486143E+01</pdfrwt>
<totfact> 0.37954615E+08</totfact>
</mgrwt>
</event>
<event>
 4    1  0.3964155E+006  0.6058650E+01  0.7546771E-02  0.2407852E+00
         21   -1    0    0  501  502  0.00000000000E+00  0.00000000000E+00  0.64232785578E-01  0.64232785578E-01  0.00000000000E+00 0.  1.
         21   -1    0    0  502  503 -0.00000000000E+00 -0.00000000000E+00 -0.21653036947E+04  0.21653036947E+04  0.00000000000E+00 0.  1.
          5    1    1    2  501    0 -0.38202581699E+01 -0.15122320499E+00 -0.15373137270E+03  0.15385071398E+03  0.47000000000E+01 0.  1.
         -5    1    1    2    0  503  0.38202581699E+01  0.15122320499E+00 -0.20115080892E+04  0.20115172135E+04  0.47000000000E+01 0.  1.
<mgrwt>
<rscale>  2 0.60586501E+01</rscale>
<asrwt>0</asrwt>
<pdfrwt beam="1">  1       21 0.98836722E-05 0.60586501E+01</pdfrwt>
<pdfrwt beam="2">  1       21 0.33306617E+00 0.60586501E+01</pdfrwt>
<totfact> 0.70044041E+07</totfact>
</mgrwt>
</event>
<event>
 4    1  0.3964155E+006  0.6638373E+01  0.7546771E-02  0.2339072E+00
         21   -1    0    0  503  502  0.00000000000E+00  0.00000000000E+00  0.18755790460E+00  0.18755790460E+00  0.00000000000E+00 0. -1.
         21   -1    0    0  501  503 -0.00000000000E+00 -0.00000000000E+00 -0.25898990765E+03  0.25898990765E+03  0.00000000000E+00 0. -1.
          5    1    1    2  501    0 -0.13304575440E+01 -0.44953174470E+01 -0.16887699987E+03  0.16900742315E+03  0.47000000000E+01 0. -1.
         -5    1    1    2    0  502  0.13304575440E+01  0.44953174470E+01 -0.89925349876E+02  0.90170042400E+02  0.47000000000E+01 0. -1.
<mgrwt>
<rscale>  2 0.66383730E+01</rscale>
<asrwt>0</asrwt>
<pdfrwt beam="1">  1       21 0.28854987E-04 0.66383730E+01</pdfrwt>
<pdfrwt beam="2">  1       21 0.39844705E-01 0.66383730E+01</pdfrwt>
<totfact> 0.15584063E+09</totfact>
</mgrwt>
</event>
<event>
 4    1  0.3964155E+006  0.5734795E+01  0.7546771E-02  0.2451274E+00
         21   -1    0    0  503  502  0.00000000000E+00  0.00000000000E+00  0.41742348519E-01  0.41742348519E-01  0.00000000000E+00 0.  1.
         21   -1    0    0  501  503 -0.00000000000E+00 -0.00000000000E+00 -0.15052021698E+04  0.15052021698E+04  0.00000000000E+00 0.  1.
          5    1    1    2  501    0  0.12244943759E+01 -0.30493425901E+01 -0.12721420080E+04  0.12721549341E+04  0.47000000000E+01 0.  1.
         -5    1    1    2    0  502 -0.12244943759E+01  0.30493425901E+01 -0.23301841946E+03  0.23308897804E+03  0.47000000000E+01 0.  1.
<mgrwt>
<rscale>  2 0.57347953E+01</rscale>
<asrwt>0</asrwt>
<pdfrwt beam="1">  1       21 0.64198351E-05 0.57347953E+01</pdfrwt>
<pdfrwt beam="2">  1       21 0.23164404E+00 0.57347953E+01</pdfrwt>
<totfact> 0.30595596E+08</totfact>
</mgrwt>
</event>
<event>
 4    1  0.3964155E+006  0.5056396E+01  0.7546771E-02  0.2557245E+00
         21   -1    0    0  503  502  0.00000000000E+00  0.00000000000E+00  0.35523037275E+02  0.35523037275E+02  0.00000000000E+00 0. -1.
         21   -1    0    0  501  503 -0.00000000000E+00 -0.00000000000E+00 -0.98824009197E+00  0.98824009197E+00  0.00000000000E+00 0. -1.
          5    1    1    2  501    0  0.54310092447E+00  0.17838681154E+01  0.77516551516E+01  0.92550149463E+01  0.47000000000E+01 0. -1.
         -5    1    1    2    0  502 -0.54310092447E+00 -0.17838681154E+01  0.26783142031E+02  0.27256262420E+02  0.47000000000E+01 0. -1.
<mgrwt>
<rscale>  2 0.50563964E+01</rscale>
<asrwt>0</asrwt>
<pdfrwt beam="1">  1       21 0.54650817E-02 0.50563964E+01</pdfrwt>
<pdfrwt beam="2">  1       21 0.15203697E-03 0.50563964E+01</pdfrwt>
<totfact> 0.31169777E+09</totfact>
</mgrwt>
</event>
<event>
 4    1  0.3964155E+006  0.5175736E+01  0.7546771E-02  0.2536892E+00
         21   -1    0    0  503  502  0.00000000000E+00  0.00000000000E+00  0.83570399937E+02  0.83570399937E+02  0.00000000000E+00 0.  1.
         21   -1    0    0  501  503 -0.00000000000E+00 -0.00000000000E+00 -0.13272152894E+02  0.13272152894E+02  0.00000000000E+00 0.  1.
          5    1    1    2  501    0  0.28000133380E+00 -0.21493810036E+01 -0.12683847433E+02  0.13699205274E+02  0.47000000000E+01 0.  1.
         -5    1    1    2    0  502 -0.28000133380E+00  0.21493810036E+01  0.82982094475E+02  0.83143347557E+02  0.47000000000E+01 0.  1.
<mgrwt>
<rscale>  2 0.51757356E+01</rscale>
<asrwt>0</asrwt>
<pdfrwt beam="1">  1       21 0.12856984E-01 0.51757356E+01</pdfrwt>
<pdfrwt beam="2">  1       21 0.20418697E-02 0.51757356E+01</pdfrwt>
<totfact> 0.24453674E+07</totfact>
</mgrwt>
</event>
<event>
 4    1  0.3964155E+006  0.7186881E+01  0.7546771E-02  0.2282556E+00
         21   -1    0    0  503  502  0.00000000000E+00  0.00000000000E+00  0.67689412627E+00  0.67689412627E+00  0.00000000000E+00 0. -1.
         21   -1    0    0  501  503 -0.00000000000E+00 -0.00000000000E+00 -0.76333683535E+02  0.76333683535E+02  0.00000000000E+00 0. -1.
          5    1    1    2  501    0  0.12436107649E+01 -0.52928905076E+01 -0.38558258640E+02  0.39222322305E+02  0.47000000000E+01 0. -1.
         -5    1    1    2    0  502 -0.12436107649E+01  0.52928905076E+01 -0.37098530768E+02  0.37788255356E+02  0.47000000000E+01 0. -1.
<mgrwt>
<rscale>  2 0.71868809E+01</rscale>
<asrwt>0</asrwt>
<pdfrwt beam="1">  1       21 0.10413754E-03 0.71868809E+01</pdfrwt>
<pdfrwt beam="2">  1       21 0.11743646E-01 0.71868809E+01</pdfrwt>
<totfact> 0.22005239E+09</totfact>
</mgrwt>
</event>
<event>
 4    1  0.3964155E+006  0.6171755E+01  0.7546771E-02  0.2393592E+00
         21   -1    0    0  501  502  0.00000000000E+00  0.00000000000E+00  0.35513169612E+01  0.35513169612E+01  0.00000000000E+00 0.  1.
         21   -1    0    0  502  503 -0.00000000000E+00 -0.00000000000E+00 -0.11181217018E+02  0.11181217018E+02  0.00000000000E+00 0. -1.
          5    1    1    2  501    0  0.24460261187E+01  0.31650456664E+01 -0.23282316637E+01  0.65963035500E+01  0.47000000000E+01 0.  1.
         -5    1    1    2    0  503 -0.24460261187E+01 -0.31650456664E+01 -0.53016683926E+01  0.81362304287E+01  0.47000000000E+01 0.  1.
<mgrwt>
<rscale>  2 0.61717548E+01</rscale>
<asrwt>0</asrwt>
<pdfrwt beam="1">  1       21 0.54635647E-03 0.61717548E+01</pdfrwt>
<pdfrwt beam="2">  1       21 0.17201872E-02 0.61717548E+01</pdfrwt>
<totfact> 0.34942064E+09</totfact>
</mgrwt>
</event>
<event>
 4    1  0.3964155E+006  0.1897395E+02  0.7546771E-02  0.1766537E+00
         21   -1    0    0  501  502  0.00000000000E+00  0.00000000000E+00  0.93907639988E+01  0.93907639988E+01  0.00000000000E+00 0. -1.
         21   -1    0    0  502  503 -0.00000000000E+00 -0.00000000000E+00 -0.39661197328E+02  0.39661197328E+02  0.00000000000E+00 0.  1.
          5    1    1    2  501    0  0.18342492460E+02  0.12139870144E+01 -0.10653226480E+02  0.21760101759E+02  0.47000000000E+01 0. -1.
         -5    1    1    2    0  503 -0.18342492460E+02 -0.12139870144E+01 -0.19617206850E+02  0.27291859568E+02  0.47000000000E+01 0.  1.
<mgrwt>
<rscale>  2 0.18973950E+02</rscale>
<asrwt>0</asrwt>
<pdfrwt beam="1">  1       21 0.14447329E-02 0.18973950E+02</pdfrwt>
<pdfrwt beam="2">  1       21 0.61017226E-02 0.18973950E+02</pdfrwt>
<totfact> 0.24021803E+08</totfact>
</mgrwt>
</event>
<event>
 4    1  0.3964155E+006  0.4797304E+01  0.7546771E-02  0.2604419E+00
         21   -1    0    0  501  502  0.00000000000E+00  0.00000000000E+00  0.56555735878E+01  0.56555735878E+01  0.00000000000E+00 0. -1.
         21   -1    0    0  502  503 -0.00000000000E+00 -0.00000000000E+00 -0.40987065213E+01  0.40987065213E+01  0.00000000000E+00 0. -1.
          5    1    1    2  501    0 -0.57535037551E+00 -0.77012615686E+00  0.11916697806E+01  0.49430961166E+01  0.47000000000E+01 0. -1.
         -5    1    1    2    0  503  0.57535037551E+00  0.77012615686E+00  0.36519728601E+00  0.48111839925E+01  0.47000000000E+01 0. -1.
<mgrwt>
<rscale>  2 0.47973037E+01</rscale>
<asrwt>0</asrwt>
<pdfrwt beam="1">  1       21 0.87008824E-03 0.47973037E+01</pdfrwt>
<pdfrwt beam="2">  1       21 0.63057023E-03 0.47973037E+01</pdfrwt>
<totfact> 0.58349487E+09</totfact>
</mgrwt>
</event>
<event>
 4    1  0.3964155E+006  0.7154736E+01  0.7546771E-02  0.2285671E+00
         21   -1    0    0  503  502  0.00000000000E+00  0.00000000000E+00  0.22458512869E+01  0.22458512869E+01  0.00000000000E+00 0.  1.
         21   -1    0    0  501  503 -0.00000000000E+00 -0.00000000000E+00 -0.90661107518E+02  0.90661107518E+02  0.00000000000E+00 0. -1.
          5    1    1    2  501    0 -0.43491010171E+01  0.31914839483E+01 -0.84399645795E+02  0.84702363957E+02  0.47000000000E+01 0. -1.
         -5    1    1    2    0  502  0.43491010171E+01 -0.31914839483E+01 -0.40156104352E+01  0.82045948478E+01  0.47000000000E+01 0.  1.
<mgrwt>
<rscale>  2 0.71547362E+01</rscale>
<asrwt>0</asrwt>
<pdfrwt beam="1">  1       21 0.34551550E-03 0.71547362E+01</pdfrwt>
<pdfrwt beam="2">  1       21 0.13947866E-01 0.71547362E+01</pdfrwt>
<totfact> 0.32178186E+08</totfact>
</mgrwt>
</event>
<event>
 4    1  0.3964155E+006  0.5199355E+01  0.7546771E-02  0.2532959E+00
         21   -1    0    0  503  502  0.00000000000E+00  0.00000000000E+00  0.10611626541E+02  0.10611626541E+02  0.00000000000E+00 0. -1.
         21   -1    0    0  501  503 -0.00000000000E+00 -0.00000000000E+00 -0.25530322311E+01  0.25530322311E+01  0.00000000000E+00 0. -1.
          5    1    1    2  501    0  0.18954101085E+01 -0.11622029761E+01  0.37233493672E+01  0.63950469699E+01  0.47000000000E+01 0.  1.
         -5    1    1    2    0  502 -0.18954101085E+01  0.11622029761E+01  0.43352449425E+01  0.67696118019E+01  0.47000000000E+01 0.  1.
<mgrwt>
<rscale>  2 0.51993553E+01</rscale>
<asrwt>0</asrwt>
<pdfrwt beam="1">  1       21 0.16325579E-02 0.51993553E+01</pdfrwt>
<pdfrwt beam="2">  1       21 0.39277420E-03 0.51993553E+01</pdfrwt>
<totfact> 0.50479869E+09</totfact>
</mgrwt>
</event>
<event>
 4    1  0.3964155E+006  0.8901483E+01  0.7546771E-02  0.2143486E+00
         21   -1    0    0  501  502  0.00000000000E+00  0.00000000000E+00  0.40522779813E+03  0.40522779813E+03  0.00000000000E+00 0. -1.
         21   -1    0    0  502  503 -0.00000000000E+00 -0.00000000000E+00 -0.19597184741E+00  0.19597184741E+00  0.00000000000E+00 0.  1.
          5    1    1    2  501    0  0.10426384592E+01  0.74872766633E+01  0.19295025308E+03  0.19315547254E+03  0.47000000000E+01 0. -1.
         -5    1    1    2    0  503 -0.10426384592E+01 -0.74872766633E+01  0.21208157320E+03  0.21226829744E+03  0.47000000000E+01 0.  1.
<mgrwt>
<rscale>  2 0.89014834E+01</rscale>
<asrwt>0</asrwt>
<pdfrwt beam="1">  1       21 0.62342067E-01 0.89014834E+01</pdfrwt>
<pdfrwt beam="2">  1       21 0.30149839E-04 0.89014834E+01</pdfrwt>
<totfact> 0.77635433E+08</totfact>
</mgrwt>
</event>
<event>
 4    1  0.3964155E+006  0.8260838E+01  0.7546771E-02  0.2189988E+00
         21   -1    0    0  501  502  0.00000000000E+00  0.00000000000E+00  0.14791879925E+01  0.14791879925E+01  0.00000000000E+00 0.  1.
         21   -1    0    0  502  503 -0.00000000000E+00 -0.00000000000E+00 -0.26601733446E+03  0.26601733446E+03  0.00000000000E+00 0. -1.
          5    1    1    2  501    0  0.40458536872E+01 -0.54573361186E+01 -0.10670371323E+02  0.13494379339E+02  0.47000000000E+01 0.  1.
         -5    1    1    2    0  503 -0.40458536872E+01  0.54573361186E+01 -0.25386777514E+03  0.25400214311E+03  0.47000000000E+01 0. -1.
<mgrwt>
<rscale>  2 0.82608383E+01</rscale>
<asrwt>0</asrwt>
<pdfrwt beam="1">  1       21 0.22756734E-03 0.82608383E+01</pdfrwt>
<pdfrwt beam="2">  1       21 0.40925752E-01 0.82608383E+01</pdfrwt>
<totfact> 0.10236019E+08</totfact>
</mgrwt>
</event>
<event>
 4    1  0.3964155E+006  0.5409842E+01  0.7546771E-02  0.2499209E+00
         21   -1    0    0  503  502  0.00000000000E+00  0.00000000000E+00  0.73832553515E+00  0.73832553515E+00  0.00000000000E+00 0.  1.
         21   -1    0    0  501  503 -0.00000000000E+00 -0.00000000000E+00 -0.56605905283E+02  0.56605905283E+02  0.00000000000E+00 0.  1.
          5    1    1    2  501    0 -0.15917494221E+01  0.21546974498E+01 -0.12236239256E+02  0.13378786882E+02  0.47000000000E+01 0.  1.
         -5    1    1    2    0  502  0.15917494221E+01 -0.21546974498E+01 -0.43631340492E+02  0.43965443936E+02  0.47000000000E+01 0.  1.
<mgrwt>
<rscale>  2 0.54098417E+01</rscale>
<asrwt>0</asrwt>
<pdfrwt beam="1">  1       21 0.11358854E-03 0.54098417E+01</pdfrwt>
<pdfrwt beam="2">  1       21 0.87086012E-02 0.54098417E+01</pdfrwt>
<totfact> 0.24571381E+09</totfact>
</mgrwt>
</event>
<event>
 4    1  0.3964155E+006  0.1237448E+02  0.7546771E-02  0.1960665E+00
         21   -1    0    0  501  502  0.00000000000E+00  0.00000000000E+00  0.41135235918E+01  0.41135235918E+01  0.00000000000E+00 0. -1.
         21   -1    0    0  502  503 -0.00000000000E+00 -0.00000000000E+00 -0.61439526101E+02  0.61439526101E+02  0.00000000000E+00 0.  1.
          5    1    1    2  501    0 -0.46712312598E+01 -0.10450716041E+02 -0.80864441793E+01  0.14782369455E+02  0.47000000000E+01 0. -1.
         -5    1    1    2    0  503  0.46712312598E+01  0.10450716041E+02 -0.49239558330E+02  0.50770680238E+02  0.47000000000E+01 0.  1.
<mgrwt>
<rscale>  2 0.12374485E+02</rscale>
<asrwt>0</asrwt>
<pdfrwt beam="1">  1       21 0.63284982E-03 0.12374485E+02</pdfrwt>
<pdfrwt beam="2">  1       21 0.94522343E-02 0.12374485E+02</pdfrwt>
<totfact> 0.34033668E+08</totfact>
</mgrwt>
</event>
<event>
 4    1  0.3964155E+006  0.4775731E+01  0.7546771E-02  0.2608546E+00
         21   -1    0    0  503  502  0.00000000000E+00  0.00000000000E+00  0.86145407731E+01  0.86145407731E+01  0.00000000000E+00 0. -1.
         21   -1    0    0  501  503 -0.00000000000E+00 -0.00000000000E+00 -0.30174834096E+01  0.30174834096E+01  0.00000000000E+00 0. -1.
          5    1    1    2  501    0 -0.80530274531E+00  0.26285015410E+00  0.76217744680E+00  0.48361676124E+01  0.47000000000E+01 0. -1.
         -5    1    1    2    0  502  0.80530274531E+00 -0.26285015410E+00  0.48348799167E+01  0.67958565703E+01  0.47000000000E+01 0. -1.
<mgrwt>
<rscale>  2 0.47757306E+01</rscale>
<asrwt>0</asrwt>
<pdfrwt beam="1">  1       21 0.13253140E-02 0.47757306E+01</pdfrwt>
<pdfrwt beam="2">  1       21 0.46422822E-03 0.47757306E+01</pdfrwt>
<totfact> 0.49185094E+09</totfact>
</mgrwt>
</event>
<event>
 4    1  0.3964155E+006  0.4797707E+01  0.7546771E-02  0.2604342E+00
         21   -1    0    0  503  502  0.00000000000E+00  0.00000000000E+00  0.28523383390E+02  0.28523383390E+02  0.00000000000E+00 0.  1.
         21   -1    0    0  501  503 -0.00000000000E+00 -0.00000000000E+00 -0.12177725141E+01  0.12177725141E+01  0.00000000000E+00 0.  1.
          5    1    1    2  501    0 -0.82735762622E+00  0.49343124948E+00  0.50160144712E+01  0.69410659279E+01  0.47000000000E+01 0. -1.
         -5    1    1    2    0  502  0.82735762622E+00 -0.49343124948E+00  0.22289596404E+02  0.22800089976E+02  0.47000000000E+01 0. -1.
<mgrwt>
<rscale>  2 0.47977073E+01</rscale>
<asrwt>0</asrwt>
<pdfrwt beam="1">  1       21 0.43882123E-02 0.47977073E+01</pdfrwt>
<pdfrwt beam="2">  1       21 0.18734964E-03 0.47977073E+01</pdfrwt>
<totfact> 0.30756618E+09</totfact>
</mgrwt>
</event>
<event>
 4    1  0.3964155E+006  0.1068164E+02  0.7546771E-02  0.2038151E+00
         21   -1    0    0  503  502  0.00000000000E+00  0.00000000000E+00  0.37160985527E+00  0.37160985527E+00  0.00000000000E+00 0. -1.
         21   -1    0    0  501  503 -0.00000000000E+00 -0.00000000000E+00 -0.31117368648E+03  0.31117368648E+03  0.00000000000E+00 0. -1.
          5    1    1    2  501    0  0.94060999440E+01 -0.18795653458E+01 -0.17336432145E+03  0.17369307826E+03  0.47000000000E+01 0. -1.
         -5    1    1    2    0  502 -0.94060999440E+01  0.18795653458E+01 -0.13743775517E+03  0.13785221808E+03  0.47000000000E+01 0. -1.
<mgrwt>
<rscale>  2 0.10681642E+02</rscale>
<asrwt>0</asrwt>
<pdfrwt beam="1">  1       21 0.57170590E-04 0.10681642E+02</pdfrwt>
<pdfrwt beam="2">  1       21 0.47873006E-01 0.10681642E+02</pdfrwt>
<totfact> 0.58589459E+08</totfact>
</mgrwt>
</event>
<event>
 4    1  0.3964155E+006  0.6750373E+01  0.7546771E-02  0.2326920E+00
         21   -1    0    0  501  502  0.00000000000E+00  0.00000000000E+00  0.13697570383E+02  0.13697570383E+02  0.00000000000E+00 0. -1.
         21   -1    0    0  502  503 -0.00000000000E+00 -0.00000000000E+00 -0.33570638423E+01  0.33570638423E+01  0.00000000000E+00 0.  1.
          5    1    1    2  501    0 -0.29453380253E+01  0.38474037223E+01  0.59814063078E+01  0.90191326027E+01  0.47000000000E+01 0. -1.
         -5    1    1    2    0  503  0.29453380253E+01 -0.38474037223E+01  0.43591002331E+01  0.80355016227E+01  0.47000000000E+01 0.  1.
<mgrwt>
<rscale>  2 0.67503727E+01</rscale>
<asrwt>0</asrwt>
<pdfrwt beam="1">  1       21 0.21073185E-02 0.67503727E+01</pdfrwt>
<pdfrwt beam="2">  1       21 0.51647137E-03 0.67503727E+01</pdfrwt>
<totfact> 0.30447120E+09</totfact>
</mgrwt>
</event>
<event>
 4    1  0.3964155E+006  0.6353944E+01  0.7546771E-02  0.2371514E+00
         21   -1    0    0  503  502  0.00000000000E+00  0.00000000000E+00  0.22439659999E+02  0.22439659999E+02  0.00000000000E+00 0. -1.
         21   -1    0    0  501  503 -0.00000000000E+00 -0.00000000000E+00 -0.38489143260E+01  0.38489143260E+01  0.00000000000E+00 0.  1.
          5    1    1    2  501    0 -0.33924736325E+01  0.26026372679E+01 -0.29683415352E+00  0.63608732584E+01  0.47000000000E+01 0.  1.
         -5    1    1    2    0  502  0.33924736325E+01 -0.26026372679E+01  0.18887579827E+02  0.19927701067E+02  0.47000000000E+01 0. -1.
<mgrwt>
<rscale>  2 0.63539435E+01</rscale>
<asrwt>0</asrwt>
<pdfrwt beam="1">  1       21 0.34522553E-02 0.63539435E+01</pdfrwt>
<pdfrwt beam="2">  1       21 0.59214068E-03 0.63539435E+01</pdfrwt>
<totfact> 0.11662838E+09</totfact>
</mgrwt>
</event>
<event>
 4    1  0.3964155E+006  0.1088508E+02  0.7546771E-02  0.2027860E+00
         21   -1    0    0  501  502  0.00000000000E+00  0.00000000000E+00  0.26621109520E+00  0.26621109520E+00  0.00000000000E+00 0. -1.
         21   -1    0    0  502  503 -0.00000000000E+00 -0.00000000000E+00 -0.44543261604E+03  0.44543261604E+03  0.00000000000E+00 0.  1.
          5    1    1    2  501    0  0.39322708186E+01  0.89962280163E+01 -0.21630106874E+03  0.21657478434E+03  0.47000000000E+01 0.  1.
         -5    1    1    2    0  503 -0.39322708186E+01 -0.89962280163E+01 -0.22886533620E+03  0.22912404279E+03  0.47000000000E+01 0. -1.
<mgrwt>
<rscale>  2 0.10885076E+02</rscale>
<asrwt>0</asrwt>
<pdfrwt beam="1">  1       21 0.40955939E-04 0.10885076E+02</pdfrwt>
<pdfrwt beam="2">  1       21 0.68527449E-01 0.10885076E+02</pdfrwt>
<totfact> 0.47054763E+08</totfact>
</mgrwt>
</event>
<event>
 4    1  0.3964155E+006  0.6065507E+01  0.7546771E-02  0.2406975E+00
         21   -1    0    0  501  502  0.00000000000E+00  0.00000000000E+00  0.26062470950E+02  0.26062470950E+02  0.00000000000E+00 0.  1.
         21   -1    0    0  502  503 -0.00000000000E+00 -0.00000000000E+00 -0.38723119834E+01  0.38723119834E+01  0.00000000000E+00 0.  1.
          5    1    1    2  501    0  0.86682485153E+00 -0.37348351489E+01  0.23026422329E+02  0.23811898374E+02  0.47000000000E+01 0.  1.
         -5    1    1    2    0  503 -0.86682485153E+00  0.37348351489E+01 -0.83626336254E+00  0.61228845591E+01  0.47000000000E+01 0.  1.
<mgrwt>
<rscale>  2 0.60655073E+01</rscale>
<asrwt>0</asrwt>
<pdfrwt beam="1">  1       21 0.40096108E-02 0.60655073E+01</pdfrwt>
<pdfrwt beam="2">  1       21 0.59574032E-03 0.60655073E+01</pdfrwt>
<totfact> 0.89432590E+08</totfact>
</mgrwt>
</event>
<event>
 4    1  0.3964155E+006  0.5560331E+01  0.7546771E-02  0.2476420E+00
         21   -1    0    0  501  502  0.00000000000E+00  0.00000000000E+00  0.34098279690E+02  0.34098279690E+02  0.00000000000E+00 0.  1.
         21   -1    0    0  502  503 -0.00000000000E+00 -0.00000000000E+00 -0.14154484926E+01  0.14154484926E+01  0.00000000000E+00 0.  1.
          5    1    1    2  501    0 -0.17789508509E+01  0.23796250143E+01  0.26986917882E+02  0.27553784098E+02  0.47000000000E+01 0.  1.
         -5    1    1    2    0  503  0.17789508509E+01 -0.23796250143E+01  0.56959133156E+01  0.79599440851E+01  0.47000000000E+01 0.  1.
<mgrwt>
<rscale>  2 0.55603310E+01</rscale>
<asrwt>0</asrwt>
<pdfrwt beam="1">  1       21 0.52458886E-02 0.55603310E+01</pdfrwt>
<pdfrwt beam="2">  1       21 0.21776133E-03 0.55603310E+01</pdfrwt>
<totfact> 0.22343883E+09</totfact>
</mgrwt>
</event>
<event>
 4    1  0.3964155E+006  0.5265862E+01  0.7546771E-02  0.2522046E+00
         21   -1    0    0  501  502  0.00000000000E+00  0.00000000000E+00  0.35300525594E+02  0.35300525594E+02  0.00000000000E+00 0.  1.
         21   -1    0    0  502  503 -0.00000000000E+00 -0.00000000000E+00 -0.82128676832E+00  0.82128676832E+00  0.00000000000E+00 0.  1.
          5    1    1    2  501    0  0.10726046124E+01 -0.21186850164E+01  0.21008613367E+02  0.21658512009E+02  0.47000000000E+01 0.  1.
         -5    1    1    2    0  503 -0.10726046124E+01  0.21186850164E+01  0.13470625458E+02  0.14463300353E+02  0.47000000000E+01 0.  1.
<mgrwt>
<rscale>  2 0.52658624E+01</rscale>
<asrwt>0</asrwt>
<pdfrwt beam="1">  1       21 0.54308489E-02 0.52658624E+01</pdfrwt>
<pdfrwt beam="2">  1       21 0.12635184E-03 0.52658624E+01</pdfrwt>
<totfact> 0.41974111E+09</totfact>
</mgrwt>
</event>
<event>
 4    1  0.3964155E+006  0.6491208E+01  0.7546771E-02  0.2355564E+00
         21   -1    0    0  501  502  0.00000000000E+00  0.00000000000E+00  0.73203833664E+00  0.73203833664E+00  0.00000000000E+00 0.  1.
         21   -1    0    0  502  503 -0.00000000000E+00 -0.00000000000E+00 -0.65594600560E+02  0.65594600560E+02  0.00000000000E+00 0. -1.
          5    1    1    2  501    0 -0.34123302244E+01 -0.28985828507E+01 -0.20824310414E+02  0.21812557950E+02  0.47000000000E+01 0.  1.
         -5    1    1    2    0  503  0.34123302244E+01  0.28985828507E+01 -0.44038251809E+02  0.44514080947E+02  0.47000000000E+01 0.  1.
<mgrwt>
<rscale>  2 0.64912079E+01</rscale>
<asrwt>0</asrwt>
<pdfrwt beam="1">  1       21 0.11262123E-03 0.64912079E+01</pdfrwt>
<pdfrwt beam="2">  1       21 0.10091482E-01 0.64912079E+01</pdfrwt>
<totfact> 0.23185946E+09</totfact>
</mgrwt>
</event>
<event>
 4    1  0.3964155E+006  0.6107889E+01  0.7546771E-02  0.2401590E+00
         21   -1    0    0  503  502  0.00000000000E+00  0.00000000000E+00  0.10647471901E+02  0.10647471901E+02  0.00000000000E+00 0. -1.
         21   -1    0    0  501  503 -0.00000000000E+00 -0.00000000000E+00 -0.42040044650E+01  0.42040044650E+01  0.00000000000E+00 0. -1.
          5    1    1    2  501    0  0.33585069108E+01 -0.19841232328E+01  0.19112982569E+00  0.61108791743E+01  0.47000000000E+01 0. -1.
         -5    1    1    2    0  502 -0.33585069108E+01  0.19841232328E+01  0.62523376102E+01  0.87405971915E+01  0.47000000000E+01 0. -1.
<mgrwt>
<rscale>  2 0.61078895E+01</rscale>
<asrwt>0</asrwt>
<pdfrwt beam="1">  1       21 0.16380726E-02 0.61078895E+01</pdfrwt>
<pdfrwt beam="2">  1       21 0.64676992E-03 0.61078895E+01</pdfrwt>
<totfact> 0.29339421E+09</totfact>
</mgrwt>
</event>
<event>
 4    1  0.3964155E+006  0.7979790E+01  0.7546771E-02  0.2212258E+00
         21   -1    0    0  501  502  0.00000000000E+00  0.00000000000E+00  0.31400788831E+02  0.31400788831E+02  0.00000000000E+00 0. -1.
         21   -1    0    0  502  503 -0.00000000000E+00 -0.00000000000E+00 -0.17209741808E+02  0.17209741808E+02  0.00000000000E+00 0.  1.
          5    1    1    2  501    0  0.79582067576E+00  0.63995095346E+01  0.29923935208E+02  0.30969645642E+02  0.47000000000E+01 0. -1.
         -5    1    1    2    0  503 -0.79582067576E+00 -0.63995095346E+01 -0.15732888186E+02  0.17640884998E+02  0.47000000000E+01 0.  1.
<mgrwt>
<rscale>  2 0.79797903E+01</rscale>
<asrwt>0</asrwt>
<pdfrwt beam="1">  1       21 0.48308906E-02 0.79797903E+01</pdfrwt>
<pdfrwt beam="2">  1       21 0.26476526E-02 0.79797903E+01</pdfrwt>
<totfact> 0.96004521E+07</totfact>
</mgrwt>
</event>
<event>
 4    1  0.3964155E+006  0.8576433E+01  0.7546771E-02  0.2166386E+00
         21   -1    0    0  501  502  0.00000000000E+00  0.00000000000E+00  0.15057351623E+02  0.15057351623E+02  0.00000000000E+00 0.  1.
         21   -1    0    0  502  503 -0.00000000000E+00 -0.00000000000E+00 -0.12417756243E+03  0.12417756243E+03  0.00000000000E+00 0. -1.
          5    1    1    2  501    0  0.41656798548E+01  0.58405752567E+01  0.13674277523E+02  0.16141284761E+02  0.47000000000E+01 0.  1.
         -5    1    1    2    0  503 -0.41656798548E+01 -0.58405752567E+01 -0.12279448833E+03  0.12309362930E+03  0.47000000000E+01 0. -1.
<mgrwt>
<rscale>  2 0.85764333E+01</rscale>
<asrwt>0</asrwt>
<pdfrwt beam="1">  1       21 0.23165156E-02 0.85764333E+01</pdfrwt>
<pdfrwt beam="2">  1       21 0.19104240E-01 0.85764333E+01</pdfrwt>
<totfact> 0.13950527E+07</totfact>
</mgrwt>
</event>
<event>
 4    1  0.3964155E+006  0.8559417E+01  0.7546771E-02  0.2167623E+00
         21   -1    0    0  501  502  0.00000000000E+00  0.00000000000E+00  0.28653623055E+02  0.28653623055E+02  0.00000000000E+00 0. -1.
         21   -1    0    0  502  503 -0.00000000000E+00 -0.00000000000E+00 -0.28926140041E+01  0.28926140041E+01  0.00000000000E+00 0.  1.
          5    1    1    2  501    0 -0.57840634264E+01 -0.42093036604E+01  0.18254231574E+02  0.20161363977E+02  0.47000000000E+01 0.  1.
         -5    1    1    2    0  503  0.57840634264E+01  0.42093036604E+01  0.75067774771E+01  0.11384873083E+02  0.47000000000E+01 0.  1.
<mgrwt>
<rscale>  2 0.85594174E+01</rscale>
<asrwt>0</asrwt>
<pdfrwt beam="1">  1       21 0.44082495E-02 0.85594174E+01</pdfrwt>
<pdfrwt beam="2">  1       21 0.44501756E-03 0.85594174E+01</pdfrwt>
<totfact> 0.15015835E+09</totfact>
</mgrwt>
</event>
<event>
 4    1  0.3964155E+006  0.4852463E+01  0.7546771E-02  0.2594011E+00
         21   -1    0    0  501  502  0.00000000000E+00  0.00000000000E+00  0.16583811230E+02  0.16583811230E+02  0.00000000000E+00 0.  1.
         21   -1    0    0  502  503 -0.00000000000E+00 -0.00000000000E+00 -0.35300856076E+01  0.35300856076E+01  0.00000000000E+00 0.  1.
          5    1    1    2  501    0 -0.51502819423E+00  0.10913948958E+01  0.14302569475E+02  0.15103307268E+02  0.47000000000E+01 0.  1.
         -5    1    1    2    0  503  0.51502819423E+00 -0.10913948958E+01 -0.12488438527E+01  0.50105895689E+01  0.47000000000E+01 0.  1.
<mgrwt>
<rscale>  2 0.48524630E+01</rscale>
<asrwt>0</asrwt>
<pdfrwt beam="1">  1       21 0.25513555E-02 0.48524630E+01</pdfrwt>
<pdfrwt beam="2">  1       21 0.54309010E-03 0.48524630E+01</pdfrwt>
<totfact> 0.16006068E+09</totfact>
</mgrwt>
</event>
<event>
 4    1  0.3964155E+006  0.6533601E+01  0.7546771E-02  0.2350750E+00
         21   -1    0    0  501  502  0.00000000000E+00  0.00000000000E+00  0.15509676334E+04  0.15509676334E+04  0.00000000000E+00 0.  1.
         21   -1    0    0  502  503 -0.00000000000E+00 -0.00000000000E+00 -0.57749437203E-01  0.57749437203E-01  0.00000000000E+00 0. -1.
          5    1    1    2  501    0 -0.24608212551E+01 -0.38134369015E+01  0.13365099637E+04  0.13365259335E+04  0.47000000000E+01 0.  1.
         -5    1    1    2    0  503  0.24608212551E+01  0.38134369015E+01  0.21439992027E+03  0.21449944931E+03  0.47000000000E+01 0. -1.
<mgrwt>
<rscale>  2 0.65336010E+01</rscale>
<asrwt>0</asrwt>
<pdfrwt beam="1">  1       21 0.23857705E+00 0.65336010E+01</pdfrwt>
<pdfrwt beam="2">  1       21 0.88857710E-05 0.65336010E+01</pdfrwt>
<totfact> 0.19732604E+08</totfact>
</mgrwt>
</event>
<event>
 4    1  0.3964155E+006  0.5119956E+01  0.7546771E-02  0.2546304E+00
         21   -1    0    0  501  502  0.00000000000E+00  0.00000000000E+00  0.21053119049E+02  0.21053119049E+02  0.00000000000E+00 0.  1.
         21   -1    0    0  502  503 -0.00000000000E+00 -0.00000000000E+00 -0.12453412358E+01  0.12453412358E+01  0.00000000000E+00 0.  1.
          5    1    1    2  501    0  0.17651728650E+01  0.10040494423E+01  0.97600015973E+01  0.11021414687E+02  0.47000000000E+01 0.  1.
         -5    1    1    2    0  503 -0.17651728650E+01 -0.10040494423E+01  0.10047776216E+02  0.11277045597E+02  0.47000000000E+01 0.  1.
<mgrwt>
<rscale>  2 0.51199561E+01</rscale>
<asrwt>0</asrwt>
<pdfrwt beam="1">  1       21 0.32389411E-02 0.51199561E+01</pdfrwt>
<pdfrwt beam="2">  1       21 0.19159097E-03 0.51199561E+01</pdfrwt>
<totfact> 0.49530783E+09</totfact>
</mgrwt>
</event>
<event>
 4    1  0.3964155E+006  0.5617808E+01  0.7546771E-02  0.2467990E+00
         21   -1    0    0  501  502  0.00000000000E+00  0.00000000000E+00  0.67245949622E+02  0.67245949622E+02  0.00000000000E+00 0. -1.
         21   -1    0    0  502  503 -0.00000000000E+00 -0.00000000000E+00 -0.78238189699E+00  0.78238189699E+00  0.00000000000E+00 0. -1.
          5    1    1    2  501    0 -0.16645142867E+01 -0.25882740685E+01  0.54748032323E+02  0.55035505029E+02  0.47000000000E+01 0.  1.
         -5    1    1    2    0  503  0.16645142867E+01  0.25882740685E+01  0.11715535402E+02  0.12992826490E+02  0.47000000000E+01 0.  1.
<mgrwt>
<rscale>  2 0.56178083E+01</rscale>
<asrwt>0</asrwt>
<pdfrwt beam="1">  1       21 0.10345526E-01 0.56178083E+01</pdfrwt>
<pdfrwt beam="2">  1       21 0.12036650E-03 0.56178083E+01</pdfrwt>
<totfact> 0.18091091E+09</totfact>
</mgrwt>
</event>
<event>
 4    1  0.3964155E+006  0.1747310E+02  0.7546771E-02  0.1800814E+00
         21   -1    0    0  501  502  0.00000000000E+00  0.00000000000E+00  0.25929189810E+01  0.25929189810E+01  0.00000000000E+00 0.  1.
         21   -1    0    0  502  503 -0.00000000000E+00 -0.00000000000E+00 -0.70442260404E+03  0.70442260404E+03  0.00000000000E+00 0. -1.
          5    1    1    2  501    0 -0.73192544348E+01  0.15154134951E+02 -0.28302332968E+02  0.33261559539E+02  0.47000000000E+01 0.  1.
         -5    1    1    2    0  503  0.73192544348E+01 -0.15154134951E+02 -0.67352735209E+03  0.67375396348E+03  0.47000000000E+01 0. -1.
<mgrwt>
<rscale>  2 0.17473102E+02</rscale>
<asrwt>0</asrwt>
<pdfrwt beam="1">  1       21 0.39891061E-03 0.17473102E+02</pdfrwt>
<pdfrwt beam="2">  1       21 0.10837271E+00 0.17473102E+02</pdfrwt>
<totfact> 0.86021072E+06</totfact>
</mgrwt>
</event>
<event>
 4    1  0.3964155E+006  0.5723158E+01  0.7546771E-02  0.2452910E+00
         21   -1    0    0  503  502  0.00000000000E+00  0.00000000000E+00  0.97126980050E+00  0.97126980050E+00  0.00000000000E+00 0. -1.
         21   -1    0    0  501  503 -0.00000000000E+00 -0.00000000000E+00 -0.14547401793E+03  0.14547401793E+03  0.00000000000E+00 0. -1.
          5    1    1    2  501    0 -0.22732192014E-01  0.32655814052E+01 -0.13642810902E+03  0.13654809947E+03  0.47000000000E+01 0. -1.
         -5    1    1    2    0  502  0.22732192014E-01 -0.32655814052E+01 -0.80746391076E+01  0.98971882565E+01  0.47000000000E+01 0. -1.
<mgrwt>
<rscale>  2 0.57231581E+01</rscale>
<asrwt>0</asrwt>
<pdfrwt beam="1">  1       21 0.14942626E-03 0.57231581E+01</pdfrwt>
<pdfrwt beam="2">  1       21 0.22380597E-01 0.57231581E+01</pdfrwt>
<totfact> 0.40737941E+08</totfact>
</mgrwt>
</event>
<event>
 4    1  0.3964155E+006  0.5966337E+01  0.7546771E-02  0.2419826E+00
         21   -1    0    0  503  502  0.00000000000E+00  0.00000000000E+00  0.60269466947E+03  0.60269466947E+03  0.00000000000E+00 0.  1.
         21   -1    0    0  501  503 -0.00000000000E+00 -0.00000000000E+00 -0.62468729741E-01  0.62468729741E-01  0.00000000000E+00 0.  1.
          5    1    1    2  501    0  0.36724178011E+01  0.14325065231E+00  0.23095006904E+03  0.23102712301E+03  0.47000000000E+01 0.  1.
         -5    1    1    2    0  502 -0.36724178011E+01 -0.14325065231E+00  0.37168213170E+03  0.37173001520E+03  0.47000000000E+01 0.  1.
<mgrwt>
<rscale>  2 0.59663367E+01</rscale>
<asrwt>0</asrwt>
<pdfrwt beam="1">  1       21 0.92717600E-01 0.59663367E+01</pdfrwt>
<pdfrwt beam="2">  1       21 0.96110565E-05 0.59663367E+01</pdfrwt>
<totfact> 0.12955184E+09</totfact>
</mgrwt>
</event>
<event>
 4    1  0.3964155E+006  0.4858666E+01  0.7546771E-02  0.2592854E+00
         21   -1    0    0  503  502  0.00000000000E+00  0.00000000000E+00  0.12234024154E+03  0.12234024154E+03  0.00000000000E+00 0. -1.
         21   -1    0    0  501  503 -0.00000000000E+00 -0.00000000000E+00 -0.77096973410E+00  0.77096973410E+00  0.00000000000E+00 0.  1.
          5    1    1    2  501    0  0.85889323320E+00 -0.88257673478E+00  0.74858973146E+01  0.89244214313E+01  0.47000000000E+01 0.  1.
         -5    1    1    2    0  502 -0.85889323320E+00  0.88257673478E+00  0.11408337449E+03  0.11418678984E+03  0.47000000000E+01 0. -1.
<mgrwt>
<rscale>  2 0.48586664E+01</rscale>
<asrwt>0</asrwt>
<pdfrwt beam="1">  1       21 0.18821560E-01 0.48586664E+01</pdfrwt>
<pdfrwt beam="2">  1       21 0.11861083E-03 0.48586664E+01</pdfrwt>
<totfact> 0.64072964E+08</totfact>
</mgrwt>
</event>
<event>
 4    1  0.3964155E+006  0.6901392E+01  0.7546771E-02  0.2311051E+00
         21   -1    0    0  501  502  0.00000000000E+00  0.00000000000E+00  0.40570241707E-01  0.40570241707E-01  0.00000000000E+00 0. -1.
         21   -1    0    0  502  503 -0.00000000000E+00 -0.00000000000E+00 -0.14915529474E+04  0.14915529474E+04  0.00000000000E+00 0. -1.
          5    1    1    2  501    0  0.26364140976E+00  0.50467515207E+01 -0.40163331231E+03  0.40169260233E+03  0.47000000000E+01 0. -1.
         -5    1    1    2    0  503 -0.26364140976E+00 -0.50467515207E+01 -0.10898790648E+04  0.10899009153E+04  0.47000000000E+01 0. -1.
<mgrwt>
<rscale>  2 0.69013917E+01</rscale>
<asrwt>0</asrwt>
<pdfrwt beam="1">  1       21 0.62410645E-05 0.69013917E+01</pdfrwt>
<pdfrwt beam="2">  1       21 0.22948848E+00 0.69013917E+01</pdfrwt>
<totfact> 0.35643404E+08</totfact>
</mgrwt>
</event>
<event>
 4    1  0.3964155E+006  0.9986718E+01  0.7546771E-02  0.2075744E+00
         21   -1    0    0  503  502  0.00000000000E+00  0.00000000000E+00  0.51795449747E+02  0.51795449747E+02  0.00000000000E+00 0. -1.
         21   -1    0    0  501  503 -0.00000000000E+00 -0.00000000000E+00 -0.47810979287E+01  0.47810979287E+01  0.00000000000E+00 0. -1.
          5    1    1    2  501    0 -0.50485203273E+01  0.72219782989E+01  0.16452887297E+01  0.10121338995E+02  0.47000000000E+01 0. -1.
         -5    1    1    2    0  502  0.50485203273E+01 -0.72219782989E+01  0.45369063089E+02  0.46455208681E+02  0.47000000000E+01 0. -1.
<mgrwt>
<rscale>  2 0.99867176E+01</rscale>
<asrwt>0</asrwt>
<pdfrwt beam="1">  1       21 0.79685303E-02 0.99867176E+01</pdfrwt>
<pdfrwt beam="2">  1       21 0.73555356E-03 0.99867176E+01</pdfrwt>
<totfact> 0.32336615E+08</totfact>
</mgrwt>
</event>
<event>
 4    1  0.3964155E+006  0.5002750E+01  0.7546771E-02  0.2566666E+00
         21   -1    0    0  501  502  0.00000000000E+00  0.00000000000E+00  0.21804105219E+00  0.21804105219E+00  0.00000000000E+00 0.  1.
         21   -1    0    0  502  503 -0.00000000000E+00 -0.00000000000E+00 -0.11525019593E+03  0.11525019593E+03  0.00000000000E+00 0.  1.
          5    1    1    2  501    0  0.64094970501E+00 -0.15895554567E+01 -0.61190206439E+02  0.61394371624E+02  0.47000000000E+01 0.  1.
         -5    1    1    2    0  503 -0.64094970501E+00  0.15895554567E+01 -0.53841948437E+02  0.54073865357E+02  0.47000000000E+01 0.  1.
<mgrwt>
<rscale>  2 0.50027496E+01</rscale>
<asrwt>0</asrwt>
<pdfrwt beam="1">  1       21 0.33544643E-04 0.50027496E+01</pdfrwt>
<pdfrwt beam="2">  1       21 0.17730870E-01 0.50027496E+01</pdfrwt>
<totfact> 0.38570663E+09</totfact>
</mgrwt>
</event>
<event>
 4    1  0.3964155E+006  0.1140678E+02  0.7546771E-02  0.2002783E+00
         21   -1    0    0  503  502  0.00000000000E+00  0.00000000000E+00  0.17894051111E+01  0.17894051111E+01  0.00000000000E+00 0.  1.
         21   -1    0    0  501  503 -0.00000000000E+00 -0.00000000000E+00 -0.81206287459E+02  0.81206287459E+02  0.00000000000E+00 0. -1.
          5    1    1    2  501    0  0.55265114543E+01 -0.88024065153E+01 -0.53128199688E+02  0.54338938998E+02  0.47000000000E+01 0. -1.
         -5    1    1    2    0  502 -0.55265114543E+01  0.88024065153E+01 -0.26288682660E+02  0.28656753572E+02  0.47000000000E+01 0. -1.
<mgrwt>
<rscale>  2 0.11406783E+02</rscale>
<asrwt>0</asrwt>
<pdfrwt beam="1">  1       21 0.27529303E-03 0.11406783E+02</pdfrwt>
<pdfrwt beam="2">  1       21 0.12493278E-01 0.11406783E+02</pdfrwt>
<totfact> 0.68786773E+08</totfact>
</mgrwt>
</event>
<event>
 4    1  0.3964155E+006  0.8627022E+01  0.7546771E-02  0.2162732E+00
         21   -1    0    0  501  502  0.00000000000E+00  0.00000000000E+00  0.12125719926E+02  0.12125719926E+02  0.00000000000E+00 0. -1.
         21   -1    0    0  502  503 -0.00000000000E+00 -0.00000000000E+00 -0.11804832329E+02  0.11804832329E+02  0.00000000000E+00 0. -1.
          5    1    1    2  501    0  0.63854407853E+01  0.34002443772E+01  0.84507352594E+01  0.12076441623E+02  0.47000000000E+01 0. -1.
         -5    1    1    2    0  503 -0.63854407853E+01 -0.34002443772E+01 -0.81298476630E+01  0.11854110632E+02  0.47000000000E+01 0. -1.
<mgrwt>
<rscale>  2 0.86270224E+01</rscale>
<asrwt>0</asrwt>
<pdfrwt beam="1">  1       21 0.18654954E-02 0.86270224E+01</pdfrwt>
<pdfrwt beam="2">  1       21 0.18161281E-02 0.86270224E+01</pdfrwt>
<totfact> 0.71771152E+08</totfact>
</mgrwt>
</event>
<event>
 4    1  0.3964155E+006  0.9239601E+01  0.7546771E-02  0.2121034E+00
         21   -1    0    0  501  502  0.00000000000E+00  0.00000000000E+00  0.80179768776E+01  0.80179768776E+01  0.00000000000E+00 0. -1.
         21   -1    0    0  502  503 -0.00000000000E+00 -0.00000000000E+00 -0.19200453762E+02  0.19200453762E+02  0.00000000000E+00 0.  1.
          5    1    1    2  501    0 -0.75663151573E+01  0.24558292030E+01  0.34919674531E+01  0.98774520412E+01  0.47000000000E+01 0. -1.
         -5    1    1    2    0  503  0.75663151573E+01 -0.24558292030E+01 -0.14674444337E+02  0.17340978598E+02  0.47000000000E+01 0.  1.
<mgrwt>
<rscale>  2 0.92396008E+01</rscale>
<asrwt>0</asrwt>
<pdfrwt beam="1">  1       21 0.12335349E-02 0.92396008E+01</pdfrwt>
<pdfrwt beam="2">  1       21 0.29539160E-02 0.92396008E+01</pdfrwt>
<totfact> 0.66705617E+08</totfact>
</mgrwt>
</event>
<event>
 4    1  0.3964155E+006  0.5180504E+01  0.7546771E-02  0.2536095E+00
         21   -1    0    0  501  502  0.00000000000E+00  0.00000000000E+00  0.34306390482E+01  0.34306390482E+01  0.00000000000E+00 0. -1.
         21   -1    0    0  502  503 -0.00000000000E+00 -0.00000000000E+00 -0.89663091857E+01  0.89663091857E+01  0.00000000000E+00 0.  1.
          5    1    1    2  501    0 -0.14012246659E+01 -0.16685881235E+01 -0.55435883917E+00  0.52100797127E+01  0.47000000000E+01 0. -1.
         -5    1    1    2    0  503  0.14012246659E+01  0.16685881235E+01 -0.49813112984E+01  0.71868685212E+01  0.47000000000E+01 0.  1.
<mgrwt>
<rscale>  2 0.51805035E+01</rscale>
<asrwt>0</asrwt>
<pdfrwt beam="1">  1       21 0.52779063E-03 0.51805035E+01</pdfrwt>
<pdfrwt beam="2">  1       21 0.13794322E-02 0.51805035E+01</pdfrwt>
<totfact> 0.42507541E+09</totfact>
</mgrwt>
</event>
<event>
 4    1  0.3964155E+006  0.8603956E+01  0.7546771E-02  0.2164394E+00
         21   -1    0    0  503  502  0.00000000000E+00  0.00000000000E+00  0.18761848616E+03  0.18761848616E+03  0.00000000000E+00 0.  1.
         21   -1    0    0  501  503 -0.00000000000E+00 -0.00000000000E+00 -0.58455921088E+00  0.58455921088E+00  0.00000000000E+00 0.  1.
          5    1    1    2  501    0  0.61088315520E+01  0.38236419276E+01  0.14716456516E+03  0.14741586516E+03  0.47000000000E+01 0.  1.
         -5    1    1    2    0  502 -0.61088315520E+01 -0.38236419276E+01  0.39869361784E+02  0.40787180212E+02  0.47000000000E+01 0.  1.
<mgrwt>
<rscale>  2 0.86039561E+01</rscale>
<asrwt>0</asrwt>
<pdfrwt beam="1">  1       21 0.28864334E-01 0.86039561E+01</pdfrwt>
<pdfrwt beam="2">  1       21 0.89932336E-04 0.86039561E+01</pdfrwt>
<totfact> 0.69305259E+08</totfact>
</mgrwt>
</event>
<event>
 4    1  0.3964155E+006  0.7064820E+01  0.7546771E-02  0.2294508E+00
         21   -1    0    0  501  502  0.00000000000E+00  0.00000000000E+00  0.54595579645E+01  0.54595579645E+01  0.00000000000E+00 0. -1.
         21   -1    0    0  502  503 -0.00000000000E+00 -0.00000000000E+00 -0.11470608299E+02  0.11470608299E+02  0.00000000000E+00 0. -1.
          5    1    1    2  501    0 -0.50429738396E+01  0.15459921813E+01  0.80846372551E+00  0.71109275462E+01  0.47000000000E+01 0. -1.
         -5    1    1    2    0  503  0.50429738396E+01 -0.15459921813E+01 -0.68195140599E+01  0.98192387172E+01  0.47000000000E+01 0. -1.
<mgrwt>
<rscale>  2 0.70648197E+01</rscale>
<asrwt>0</asrwt>
<pdfrwt beam="1">  1       21 0.83993200E-03 0.70648197E+01</pdfrwt>
<pdfrwt beam="2">  1       21 0.17647090E-02 0.70648197E+01</pdfrwt>
<totfact> 0.20562562E+09</totfact>
</mgrwt>
</event>
<event>
 4    1  0.3964155E+006  0.9033896E+01  0.7546771E-02  0.2134535E+00
         21   -1    0    0  501  502  0.00000000000E+00  0.00000000000E+00  0.23896512164E+04  0.23896512164E+04  0.00000000000E+00 0. -1.
         21   -1    0    0  502  503 -0.00000000000E+00 -0.00000000000E+00 -0.45741772323E-01  0.45741772323E-01  0.00000000000E+00 0. -1.
          5    1    1    2  501    0  0.17658300234E+01 -0.75102014679E+01  0.59335974061E+03  0.59342850712E+03  0.47000000000E+01 0. -1.
         -5    1    1    2    0  503 -0.17658300234E+01  0.75102014679E+01  0.17962457340E+04  0.17962684510E+04  0.47000000000E+01 0. -1.
<mgrwt>
<rscale>  2 0.90338963E+01</rscale>
<asrwt>0</asrwt>
<pdfrwt beam="1">  1       21 0.36753869E+00 0.90338963E+01</pdfrwt>
<pdfrwt beam="2">  1       21 0.70391097E-05 0.90338963E+01</pdfrwt>
<totfact> 0.86262984E+07</totfact>
</mgrwt>
</event>
<event>
 4    1  0.3964155E+006  0.5756119E+01  0.7546771E-02  0.2448289E+00
         21   -1    0    0  503  502  0.00000000000E+00  0.00000000000E+00  0.78097181177E-01  0.78097181177E-01  0.00000000000E+00 0.  1.
         21   -1    0    0  501  503 -0.00000000000E+00 -0.00000000000E+00 -0.66470852253E+03  0.66470852253E+03  0.00000000000E+00 0. -1.
          5    1    1    2  501    0 -0.72111505930E+00 -0.32439013896E+01 -0.53223451393E+03  0.53226563925E+03  0.47000000000E+01 0. -1.
         -5    1    1    2    0  502  0.72111505930E+00  0.32439013896E+01 -0.13239591142E+03  0.13252098047E+03  0.47000000000E+01 0.  1.
<mgrwt>
<rscale>  2 0.57561188E+01</rscale>
<asrwt>0</asrwt>
<pdfrwt beam="1">  1       21 0.12015163E-04 0.57561188E+01</pdfrwt>
<pdfrwt beam="2">  1       21 0.10226105E+00 0.57561188E+01</pdfrwt>
<totfact> 0.77087992E+08</totfact>
</mgrwt>
</event>
<event>
 4    1  0.3964155E+006  0.5461065E+01  0.7546771E-02  0.2491333E+00
         21   -1    0    0  503  502  0.00000000000E+00  0.00000000000E+00  0.50953979405E+01  0.50953979405E+01  0.00000000000E+00 0.  1.
         21   -1    0    0  501  503 -0.00000000000E+00 -0.00000000000E+00 -0.17044248489E+02  0.17044248489E+02  0.00000000000E+00 0.  1.
          5    1    1    2  501    0 -0.10150008491E+01 -0.25890162439E+01 -0.14944406414E+02  0.15910955814E+02  0.47000000000E+01 0.  1.
         -5    1    1    2    0  502  0.10150008491E+01  0.25890162439E+01  0.29955558661E+01  0.62286906153E+01  0.47000000000E+01 0.  1.
<mgrwt>
<rscale>  2 0.54610651E+01</rscale>
<asrwt>0</asrwt>
<pdfrwt beam="1">  1       21 0.78390736E-03 0.54610651E+01</pdfrwt>
<pdfrwt beam="2">  1       21 0.26221921E-02 0.54610651E+01</pdfrwt>
<totfact> 0.10362768E+09</totfact>
</mgrwt>
</event>
<event>
 4    1  0.3964155E+006  0.8743640E+01  0.7546771E-02  0.2154437E+00
         21   -1    0    0  503  502  0.00000000000E+00  0.00000000000E+00  0.19759601537E+02  0.19759601537E+02  0.00000000000E+00 0.  1.
         21   -1    0    0  501  503 -0.00000000000E+00 -0.00000000000E+00 -0.38705095622E+01  0.38705095622E+01  0.00000000000E+00 0.  1.
          5    1    1    2  501    0 -0.73663824980E+01 -0.31248909859E+00  0.81725694229E+01  0.11968380488E+02  0.47000000000E+01 0.  1.
         -5    1    1    2    0  502  0.73663824980E+01  0.31248909859E+00  0.77165225521E+01  0.11661730611E+02  0.47000000000E+01 0.  1.
<mgrwt>
<rscale>  2 0.87436400E+01</rscale>
<asrwt>0</asrwt>
<pdfrwt beam="1">  1       21 0.30399386E-02 0.87436400E+01</pdfrwt>
<pdfrwt beam="2">  1       21 0.59546302E-03 0.87436400E+01</pdfrwt>
<totfact> 0.17589478E+09</totfact>
</mgrwt>
</event>
<event>
 4    1  0.3964155E+006  0.5853737E+01  0.7546771E-02  0.2434858E+00
         21   -1    0    0  503  502  0.00000000000E+00  0.00000000000E+00  0.24576052414E+01  0.24576052414E+01  0.00000000000E+00 0.  1.
         21   -1    0    0  501  503 -0.00000000000E+00 -0.00000000000E+00 -0.16500788036E+02  0.16500788036E+02  0.00000000000E+00 0.  1.
          5    1    1    2  501    0 -0.34849669280E+01 -0.17674827521E+00 -0.10753722016E+02  0.12243723765E+02  0.47000000000E+01 0.  1.
         -5    1    1    2    0  502  0.34849669280E+01  0.17674827521E+00 -0.32894607783E+01  0.67146695119E+01  0.47000000000E+01 0.  1.
<mgrwt>
<rscale>  2 0.58537368E+01</rscale>
<asrwt>0</asrwt>
<pdfrwt beam="1">  1       21 0.37809311E-03 0.58537368E+01</pdfrwt>
<pdfrwt beam="2">  1       21 0.25385828E-02 0.58537368E+01</pdfrwt>
<totfact> 0.31726160E+09</totfact>
</mgrwt>
</event>
<event>
 4    1  0.3964155E+006  0.4713109E+01  0.7546771E-02  0.2620711E+00
         21   -1    0    0  501  502  0.00000000000E+00  0.00000000000E+00  0.46665496279E+00  0.46665496279E+00  0.00000000000E+00 0.  1.
         21   -1    0    0  502  503 -0.00000000000E+00 -0.00000000000E+00 -0.49010341019E+02  0.49010341019E+02  0.00000000000E+00 0.  1.
          5    1    1    2  501    0  0.24121755847E+00  0.25536312322E+00 -0.28466407491E+02  0.28853938235E+02  0.47000000000E+01 0.  1.
         -5    1    1    2    0  503 -0.24121755847E+00 -0.25536312322E+00 -0.20077278565E+02  0.20623057746E+02  0.47000000000E+01 0.  1.
<mgrwt>
<rscale>  2 0.47131090E+01</rscale>
<asrwt>0</asrwt>
<pdfrwt beam="1">  1       21 0.71793098E-04 0.47131090E+01</pdfrwt>
<pdfrwt beam="2">  1       21 0.75400497E-02 0.47131090E+01</pdfrwt>
<totfact> 0.48824496E+09</totfact>
</mgrwt>
</event>
<event>
 4    1  0.3964155E+006  0.4887962E+01  0.7546771E-02  0.2587421E+00
         21   -1    0    0  503  502  0.00000000000E+00  0.00000000000E+00  0.78524770211E+00  0.78524770211E+00  0.00000000000E+00 0. -1.
         21   -1    0    0  501  503 -0.00000000000E+00 -0.00000000000E+00 -0.40854066295E+02  0.40854066295E+02  0.00000000000E+00 0. -1.
          5    1    1    2  501    0  0.12602350185E+01 -0.46257586683E+00 -0.30552863642E+02  0.30941390490E+02  0.47000000000E+01 0. -1.
         -5    1    1    2    0  502 -0.12602350185E+01  0.46257586683E+00 -0.95159549509E+01  0.10697923507E+02  0.47000000000E+01 0. -1.
<mgrwt>
<rscale>  2 0.48879616E+01</rscale>
<asrwt>0</asrwt>
<pdfrwt beam="1">  1       21 0.12080732E-03 0.48879616E+01</pdfrwt>
<pdfrwt beam="2">  1       21 0.62852418E-02 0.48879616E+01</pdfrwt>
<totfact> 0.33318401E+09</totfact>
</mgrwt>
</event>
<event>
 4    1  0.3964155E+006  0.5385934E+01  0.7546771E-02  0.2502929E+00
         21   -1    0    0  503  502  0.00000000000E+00  0.00000000000E+00  0.53022596668E+01  0.53022596668E+01  0.00000000000E+00 0.  1.
         21   -1    0    0  501  503 -0.00000000000E+00 -0.00000000000E+00 -0.27421287384E+02  0.27421287384E+02  0.00000000000E+00 0.  1.
          5    1    1    2  501    0  0.15438168810E+01 -0.21295335602E+01 -0.25698374251E+02  0.26256708151E+02  0.47000000000E+01 0.  1.
         -5    1    1    2    0  502 -0.15438168810E+01  0.21295335602E+01  0.35793465343E+01  0.64668389000E+01  0.47000000000E+01 0.  1.
<mgrwt>
<rscale>  2 0.53859339E+01</rscale>
<asrwt>0</asrwt>
<pdfrwt beam="1">  1       21 0.81573224E-03 0.53859339E+01</pdfrwt>
<pdfrwt beam="2">  1       21 0.42186597E-02 0.53859339E+01</pdfrwt>
<totfact> 0.48636324E+08</totfact>
</mgrwt>
</event>
<event>
 4    1  0.3964155E+006  0.5493422E+01  0.7546771E-02  0.2486421E+00
         21   -1    0    0  501  502  0.00000000000E+00  0.00000000000E+00  0.10789248570E+02  0.10789248570E+02  0.00000000000E+00 0.  1.
         21   -1    0    0  502  503 -0.00000000000E+00 -0.00000000000E+00 -0.34483524157E+01  0.34483524157E+01  0.00000000000E+00 0.  1.
          5    1    1    2  501    0 -0.27887884588E+01 -0.55708518527E+00  0.67643331097E+01  0.87140052439E+01  0.47000000000E+01 0.  1.
         -5    1    1    2    0  503  0.27887884588E+01  0.55708518527E+00  0.57656304434E+00  0.55235957415E+01  0.47000000000E+01 0.  1.
<mgrwt>
<rscale>  2 0.54934220E+01</rscale>
<asrwt>0</asrwt>
<pdfrwt beam="1">  1       21 0.16598844E-02 0.54934220E+01</pdfrwt>
<pdfrwt beam="2">  1       21 0.53051576E-03 0.54934220E+01</pdfrwt>
<totfact> 0.34445095E+09</totfact>
</mgrwt>
</event>
<event>
 4    1  0.3964155E+006  0.7145130E+01  0.7546771E-02  0.2286607E+00
         21   -1    0    0  501  502  0.00000000000E+00  0.00000000000E+00  0.40927343776E+02  0.40927343776E+02  0.00000000000E+00 0. -1.
         21   -1    0    0  502  503 -0.00000000000E+00 -0.00000000000E+00 -0.15231442022E+01  0.15231442022E+01  0.00000000000E+00 0. -1.
          5    1    1    2  501    0  0.46192921763E+01  0.27613455774E+01  0.10671157905E+02  0.12842371301E+02  0.47000000000E+01 0. -1.
         -5    1    1    2    0  503 -0.46192921763E+01 -0.27613455774E+01  0.28733041669E+02  0.29608116677E+02  0.47000000000E+01 0. -1.
<mgrwt>
<rscale>  2 0.71451305E+01</rscale>
<asrwt>0</asrwt>
<pdfrwt beam="1">  1       21 0.62965136E-02 0.71451305E+01</pdfrwt>
<pdfrwt beam="2">  1       21 0.23432991E-03 0.71451305E+01</pdfrwt>
<totfact> 0.18886969E+09</totfact>
</mgrwt>
</event>
<event>
 4    1  0.3964155E+006  0.5753970E+01  0.7546771E-02  0.2448589E+00
         21   -1    0    0  503  502  0.00000000000E+00  0.00000000000E+00  0.43170610935E+01  0.43170610935E+01  0.00000000000E+00 0. -1.
         21   -1    0    0  501  503 -0.00000000000E+00 -0.00000000000E+00 -0.15565499374E+02  0.15565499374E+02  0.00000000000E+00 0. -1.
          5    1    1    2  501    0 -0.30459793565E+01  0.13191568633E+01 -0.12704885286E+02  0.13947124262E+02  0.47000000000E+01 0. -1.
         -5    1    1    2    0  502  0.30459793565E+01 -0.13191568633E+01  0.14564470048E+01  0.59354362054E+01  0.47000000000E+01 0. -1.
<mgrwt>
<rscale>  2 0.57539695E+01</rscale>
<asrwt>0</asrwt>
<pdfrwt beam="1">  1       21 0.66416325E-03 0.57539695E+01</pdfrwt>
<pdfrwt beam="2">  1       21 0.23946922E-02 0.57539695E+01</pdfrwt>
<totfact> 0.15564710E+09</totfact>
</mgrwt>
</event>
<event>
 4    1  0.3964155E+006  0.6445498E+01  0.7546771E-02  0.2360813E+00
         21   -1    0    0  501  502  0.00000000000E+00  0.00000000000E+00  0.10784930833E+03  0.10784930833E+03  0.00000000000E+00 0.  1.
         21   -1    0    0  502  503 -0.00000000000E+00 -0.00000000000E+00 -0.59916148786E+00  0.59916148786E+00  0.00000000000E+00 0.  1.
          5    1    1    2  501    0  0.38931206562E+01 -0.20731760563E+01  0.86027749618E+02  0.86268871279E+02  0.47000000000E+01 0.  1.
         -5    1    1    2    0  503 -0.38931206562E+01  0.20731760563E+01  0.21222397222E+02  0.22179598537E+02  0.47000000000E+01 0.  1.
<mgrwt>
<rscale>  2 0.64454982E+01</rscale>
<asrwt>0</asrwt>
<pdfrwt beam="1">  1       21 0.16592186E-01 0.64454982E+01</pdfrwt>
<pdfrwt beam="2">  1       21 0.92178776E-04 0.64454982E+01</pdfrwt>
<totfact> 0.13840462E+09</totfact>
</mgrwt>
</event>
<event>
 4    1  0.3964155E+006  0.5596687E+01  0.7546771E-02  0.2471070E+00
         21   -1    0    0  503  502  0.00000000000E+00  0.00000000000E+00  0.89766620646E+01  0.89766620646E+01  0.00000000000E+00 0. -1.
         21   -1    0    0  501  503 -0.00000000000E+00 -0.00000000000E+00 -0.38597285241E+01  0.38597285241E+01  0.00000000000E+00 0.  1.
          5    1    1    2  501    0 -0.28930494886E+01  0.92907014419E+00  0.57033585800E+00  0.56256723747E+01  0.47000000000E+01 0. -1.
         -5    1    1    2    0  502  0.28930494886E+01 -0.92907014419E+00  0.45465976825E+01  0.72107182141E+01  0.47000000000E+01 0. -1.
<mgrwt>
<rscale>  2 0.55966871E+01</rscale>
<asrwt>0</asrwt>
<pdfrwt beam="1">  1       21 0.13810249E-02 0.55966871E+01</pdfrwt>
<pdfrwt beam="2">  1       21 0.59380439E-03 0.55966871E+01</pdfrwt>
<totfact> 0.38918882E+09</totfact>
</mgrwt>
</event>
<event>
 4    1  0.3964155E+006  0.5097382E+01  0.7546771E-02  0.2550163E+00
         21   -1    0    0  503  502  0.00000000000E+00  0.00000000000E+00  0.75032028614E-01  0.75032028614E-01  0.00000000000E+00 0. -1.
         21   -1    0    0  501  503 -0.00000000000E+00 -0.00000000000E+00 -0.38886379231E+03  0.38886379231E+03  0.00000000000E+00 0. -1.
          5    1    1    2  501    0  0.19653506757E+01  0.17522635269E+00 -0.25873600317E+03  0.25878621030E+03  0.47000000000E+01 0. -1.
         -5    1    1    2    0  502 -0.19653506757E+01 -0.17522635269E+00 -0.13005275712E+03  0.13015261404E+03  0.47000000000E+01 0. -1.
<mgrwt>
<rscale>  2 0.50973824E+01</rscale>
<asrwt>0</asrwt>
<pdfrwt beam="1">  1       21 0.11542796E-04 0.50973824E+01</pdfrwt>
<pdfrwt beam="2">  1       21 0.59828273E-01 0.50973824E+01</pdfrwt>
<totfact> 0.20765466E+09</totfact>
</mgrwt>
</event>
<event>
 4    1  0.3964155E+006  0.4911177E+01  0.7546771E-02  0.2583156E+00
         21   -1    0    0  503  502  0.00000000000E+00  0.00000000000E+00  0.99033637110E+01  0.99033637110E+01  0.00000000000E+00 0. -1.
         21   -1    0    0  501  503 -0.00000000000E+00 -0.00000000000E+00 -0.24357913236E+01  0.24357913236E+01  0.00000000000E+00 0. -1.
          5    1    1    2  501    0 -0.59697492756E+00  0.12935516568E+01  0.38011102323E+01  0.62103215659E+01  0.47000000000E+01 0. -1.
         -5    1    1    2    0  502  0.59697492756E+00 -0.12935516568E+01  0.36664621551E+01  0.61288334687E+01  0.47000000000E+01 0. -1.
<mgrwt>
<rscale>  2 0.49111765E+01</rscale>
<asrwt>0</asrwt>
<pdfrwt beam="1">  1       21 0.15235944E-02 0.49111765E+01</pdfrwt>
<pdfrwt beam="2">  1       21 0.37473713E-03 0.49111765E+01</pdfrwt>
<totfact> 0.55855949E+09</totfact>
</mgrwt>
</event>
<event>
 4    1  0.3964155E+006  0.8760215E+01  0.7546771E-02  0.2153272E+00
         21   -1    0    0  501  502  0.00000000000E+00  0.00000000000E+00  0.31971635513E+03  0.31971635513E+03  0.00000000000E+00 0.  1.
         21   -1    0    0  502  503 -0.00000000000E+00 -0.00000000000E+00 -0.29269084819E+00  0.29269084819E+00  0.00000000000E+00 0.  1.
          5    1    1    2  501    0 -0.33549588232E+01  0.65875353979E+01  0.91842513695E+02  0.92259355586E+02  0.47000000000E+01 0.  1.
         -5    1    1    2    0  503  0.33549588232E+01 -0.65875353979E+01  0.22758115059E+03  0.22774969039E+03  0.47000000000E+01 0.  1.
<mgrwt>
<rscale>  2 0.87602153E+01</rscale>
<asrwt>0</asrwt>
<pdfrwt beam="1">  1       21 0.49186852E-01 0.87602153E+01</pdfrwt>
<pdfrwt beam="2">  1       21 0.45029617E-04 0.87602153E+01</pdfrwt>
<totfact> 0.69667803E+08</totfact>
</mgrwt>
</event>
<event>
 4    1  0.3964155E+006  0.5803529E+01  0.7546771E-02  0.2441718E+00
         21   -1    0    0  503  502  0.00000000000E+00  0.00000000000E+00  0.34806424250E+01  0.34806424250E+01  0.00000000000E+00 0.  1.
         21   -1    0    0  501  503 -0.00000000000E+00 -0.00000000000E+00 -0.98037774427E+01  0.98037774427E+01  0.00000000000E+00 0. -1.
          5    1    1    2  501    0  0.31890813996E+01  0.11919367996E+01 -0.24051910705E+01  0.62821889174E+01  0.47000000000E+01 0. -1.
         -5    1    1    2    0  502 -0.31890813996E+01 -0.11919367996E+01 -0.39179439472E+01  0.70022309503E+01  0.47000000000E+01 0.  1.
<mgrwt>
<rscale>  2 0.58035294E+01</rscale>
<asrwt>0</asrwt>
<pdfrwt beam="1">  1       21 0.53548345E-03 0.58035294E+01</pdfrwt>
<pdfrwt beam="2">  1       21 0.15082735E-02 0.58035294E+01</pdfrwt>
<totfact> 0.41007107E+09</totfact>
</mgrwt>
</event>
<event>
 4    1  0.3964155E+006  0.8570888E+01  0.7546771E-02  0.2166789E+00
         21   -1    0    0  501  502  0.00000000000E+00  0.00000000000E+00  0.83134016559E+02  0.83134016559E+02  0.00000000000E+00 0. -1.
         21   -1    0    0  502  503 -0.00000000000E+00 -0.00000000000E+00 -0.21180886885E+01  0.21180886885E+01  0.00000000000E+00 0.  1.
          5    1    1    2  501    0 -0.70643507726E+01  0.12103992882E+01  0.73049681019E+02  0.73550771684E+02  0.47000000000E+01 0. -1.
         -5    1    1    2    0  503  0.70643507726E+01 -0.12103992882E+01  0.79662468515E+01  0.11701333564E+02  0.47000000000E+01 0.  1.
<mgrwt>
<rscale>  2 0.85708878E+01</rscale>
<asrwt>0</asrwt>
<pdfrwt beam="1">  1       21 0.12789846E-01 0.85708878E+01</pdfrwt>
<pdfrwt beam="2">  1       21 0.32585986E-03 0.85708878E+01</pdfrwt>
<totfact> 0.44728390E+08</totfact>
</mgrwt>
</event>
<event>
 4    1  0.3964155E+006  0.4879882E+01  0.7546771E-02  0.2588914E+00
         21   -1    0    0  501  502  0.00000000000E+00  0.00000000000E+00  0.59794205004E+03  0.59794205004E+03  0.00000000000E+00 0. -1.
         21   -1    0    0  502  503 -0.00000000000E+00 -0.00000000000E+00 -0.96623618671E+00  0.96623618671E+00  0.00000000000E+00 0. -1.
          5    1    1    2  501    0  0.90630174835E+00 -0.94966853285E+00  0.59170581406E+03  0.59172593626E+03  0.47000000000E+01 0. -1.
         -5    1    1    2    0  503 -0.90630174835E+00  0.94966853285E+00  0.52699997913E+01  0.71823499624E+01  0.47000000000E+01 0. -1.
<mgrwt>
<rscale>  2 0.48798825E+01</rscale>
<asrwt>0</asrwt>
<pdfrwt beam="1">  1       21 0.91990789E-01 0.48798825E+01</pdfrwt>
<pdfrwt beam="2">  1       21 0.14865220E-03 0.48798825E+01</pdfrwt>
<totfact> 0.30071936E+07</totfact>
</mgrwt>
</event>
<event>
 4    1  0.3964155E+006  0.4757980E+01  0.7546771E-02  0.2611966E+00
         21   -1    0    0  503  502  0.00000000000E+00  0.00000000000E+00  0.10110078538E+00  0.10110078538E+00  0.00000000000E+00 0.  1.
         21   -1    0    0  501  503 -0.00000000000E+00 -0.00000000000E+00 -0.24952427159E+03  0.24952427159E+03  0.00000000000E+00 0.  1.
          5    1    1    2  501    0  0.55896646934E+00 -0.48572729339E+00 -0.16469391107E+03  0.16476262536E+03  0.47000000000E+01 0.  1.
         -5    1    1    2    0  502 -0.55896646934E+00  0.48572729339E+00 -0.84729259734E+02  0.84862747007E+02  0.47000000000E+01 0.  1.
<mgrwt>
<rscale>  2 0.47579801E+01</rscale>
<asrwt>0</asrwt>
<pdfrwt beam="1">  1       21 0.15553860E-04 0.47579801E+01</pdfrwt>
<pdfrwt beam="2">  1       21 0.38388613E-01 0.47579801E+01</pdfrwt>
<totfact> 0.28778411E+09</totfact>
</mgrwt>
</event>
<event>
 4    1  0.3964155E+006  0.8655256E+01  0.7546771E-02  0.2160707E+00
         21   -1    0    0  501  502  0.00000000000E+00  0.00000000000E+00  0.70411490438E+00  0.70411490438E+00  0.00000000000E+00 0.  1.
         21   -1    0    0  502  503 -0.00000000000E+00 -0.00000000000E+00 -0.16572489616E+03  0.16572489616E+03  0.00000000000E+00 0.  1.
          5    1    1    2  501    0  0.71292450764E+01  0.14132671575E+01 -0.32719906411E+02  0.33845320725E+02  0.47000000000E+01 0.  1.
         -5    1    1    2    0  503 -0.71292450764E+01 -0.14132671575E+01 -0.13230087484E+03  0.13258369033E+03  0.47000000000E+01 0.  1.
<mgrwt>
<rscale>  2 0.86552562E+01</rscale>
<asrwt>0</asrwt>
<pdfrwt beam="1">  1       21 0.10832533E-03 0.86552562E+01</pdfrwt>
<pdfrwt beam="2">  1       21 0.25496147E-01 0.86552562E+01</pdfrwt>
<totfact> 0.66620302E+08</totfact>
</mgrwt>
</event>
<event>
 4    1  0.3964155E+006  0.1703903E+02  0.7546771E-02  0.1811553E+00
         21   -1    0    0  503  502  0.00000000000E+00  0.00000000000E+00  0.97663692432E+00  0.97663692432E+00  0.00000000000E+00 0. -1.
         21   -1    0    0  501  503 -0.00000000000E+00 -0.00000000000E+00 -0.30722982744E+03  0.30722982744E+03  0.00000000000E+00 0.  1.
          5    1    1    2  501    0 -0.13557910815E+02 -0.91881219124E+01 -0.12538547533E+03  0.12653792299E+03  0.47000000000E+01 0. -1.
         -5    1    1    2    0  502  0.13557910815E+02  0.91881219124E+01 -0.18086771518E+03  0.18166854138E+03  0.47000000000E+01 0.  1.
<mgrwt>
<rscale>  2 0.17039030E+02</rscale>
<asrwt>0</asrwt>
<pdfrwt beam="1">  1       21 0.15025161E-03 0.17039030E+02</pdfrwt>
<pdfrwt beam="2">  1       21 0.47266198E-01 0.17039030E+02</pdfrwt>
<totfact> 0.18808328E+08</totfact>
</mgrwt>
</event>
<event>
 4    1  0.3964155E+006  0.5224385E+01  0.7546771E-02  0.2528824E+00
         21   -1    0    0  503  502  0.00000000000E+00  0.00000000000E+00  0.60759241339E+01  0.60759241339E+01  0.00000000000E+00 0.  1.
         21   -1    0    0  501  503 -0.00000000000E+00 -0.00000000000E+00 -0.19008049271E+02  0.19008049271E+02  0.00000000000E+00 0.  1.
          5    1    1    2  501    0 -0.12993795501E+01  0.18750491974E+01 -0.17426274653E+02  0.18192560155E+02  0.47000000000E+01 0.  1.
         -5    1    1    2    0  502  0.12993795501E+01 -0.18750491974E+01  0.44941495160E+01  0.68914132499E+01  0.47000000000E+01 0.  1.
<mgrwt>
<rscale>  2 0.52243848E+01</rscale>
<asrwt>0</asrwt>
<pdfrwt beam="1">  1       21 0.93475756E-03 0.52243848E+01</pdfrwt>
<pdfrwt beam="2">  1       21 0.29243153E-02 0.52243848E+01</pdfrwt>
<totfact> 0.66584274E+08</totfact>
</mgrwt>
</event>
<event>
 4    1  0.3964155E+006  0.5006281E+01  0.7546771E-02  0.2566041E+00
         21   -1    0    0  501  502  0.00000000000E+00  0.00000000000E+00  0.50671189107E+00  0.50671189107E+00  0.00000000000E+00 0. -1.
         21   -1    0    0  502  503 -0.00000000000E+00 -0.00000000000E+00 -0.49643913489E+02  0.49643913489E+02  0.00000000000E+00 0. -1.
          5    1    1    2  501    0 -0.14136005362E+01 -0.98721145324E+00 -0.23049616411E+02  0.23587023331E+02  0.47000000000E+01 0. -1.
         -5    1    1    2    0  503  0.14136005362E+01  0.98721145324E+00 -0.26087585187E+02  0.26563602049E+02  0.47000000000E+01 0. -1.
<mgrwt>
<rscale>  2 0.50062813E+01</rscale>
<asrwt>0</asrwt>
<pdfrwt beam="1">  1       21 0.77955667E-04 0.50062813E+01</pdfrwt>
<pdfrwt beam="2">  1       21 0.76375260E-02 0.50062813E+01</pdfrwt>
<totfact> 0.45770804E+09</totfact>
</mgrwt>
</event>
<event>
 4    1  0.3964155E+006  0.4737843E+01  0.7546771E-02  0.2615873E+00
         21   -1    0    0  501  502  0.00000000000E+00  0.00000000000E+00  0.54018311562E+02  0.54018311562E+02  0.00000000000E+00 0.  1.
         21   -1    0    0  502  503 -0.00000000000E+00 -0.00000000000E+00 -0.45616622831E+00  0.45616622831E+00  0.00000000000E+00 0.  1.
          5    1    1    2  501    0  0.59736535163E+00 -0.17555700155E-01  0.34908755179E+02  0.35228799891E+02  0.47000000000E+01 0. -1.
         -5    1    1    2    0  503 -0.59736535163E+00  0.17555700155E-01  0.18653390154E+02  0.19245677899E+02  0.47000000000E+01 0. -1.
<mgrwt>
<rscale>  2 0.47378427E+01</rscale>
<asrwt>0</asrwt>
<pdfrwt beam="1">  1       21 0.83105044E-02 0.47378427E+01</pdfrwt>
<pdfrwt beam="2">  1       21 0.70179462E-04 0.47378427E+01</pdfrwt>
<totfact> 0.43784055E+09</totfact>
</mgrwt>
</event>
<event>
 4    1  0.3964155E+006  0.7629282E+01  0.7546771E-02  0.2241870E+00
         21   -1    0    0  501  502  0.00000000000E+00  0.00000000000E+00  0.13873353629E+01  0.13873353629E+01  0.00000000000E+00 0.  1.
         21   -1    0    0  502  503 -0.00000000000E+00 -0.00000000000E+00 -0.93698717483E+02  0.93698717483E+02  0.00000000000E+00 0.  1.
          5    1    1    2  501    0  0.42241870140E+01 -0.42745983021E+01 -0.10825341638E+02  0.13243638781E+02  0.47000000000E+01 0.  1.
         -5    1    1    2    0  503 -0.42241870140E+01  0.42745983021E+01 -0.81486040482E+02  0.81842414065E+02  0.47000000000E+01 0.  1.
<mgrwt>
<rscale>  2 0.76292822E+01</rscale>
<asrwt>0</asrwt>
<pdfrwt beam="1">  1       21 0.21343614E-03 0.76292822E+01</pdfrwt>
<pdfrwt beam="2">  1       21 0.14415192E-01 0.76292822E+01</pdfrwt>
<totfact> 0.62031836E+08</totfact>
</mgrwt>
</event>
<event>
 4    1  0.3964155E+006  0.8261536E+01  0.7546771E-02  0.2189934E+00
         21   -1    0    0  503  502  0.00000000000E+00  0.00000000000E+00  0.20202089708E+01  0.20202089708E+01  0.00000000000E+00 0.  1.
         21   -1    0    0  501  503 -0.00000000000E+00 -0.00000000000E+00 -0.67245551455E+02  0.67245551455E+02  0.00000000000E+00 0.  1.
          5    1    1    2  501    0 -0.16162781831E+01  0.65992888818E+01 -0.57042628509E+02  0.57637786531E+02  0.47000000000E+01 0.  1.
         -5    1    1    2    0  502  0.16162781831E+01 -0.65992888818E+01 -0.81827139750E+01  0.11627973895E+02  0.47000000000E+01 0.  1.
<mgrwt>
<rscale>  2 0.82615355E+01</rscale>
<asrwt>0</asrwt>
<pdfrwt beam="1">  1       21 0.31080137E-03 0.82615355E+01</pdfrwt>
<pdfrwt beam="2">  1       21 0.10345470E-01 0.82615355E+01</pdfrwt>
<totfact> 0.65452198E+08</totfact>
</mgrwt>
</event>
<event>
 4    1  0.3964155E+006  0.4771259E+01  0.7546771E-02  0.2609405E+00
         21   -1    0    0  501  502  0.00000000000E+00  0.00000000000E+00  0.18089769818E+02  0.18089769818E+02  0.00000000000E+00 0.  1.
         21   -1    0    0  502  503 -0.00000000000E+00 -0.00000000000E+00 -0.13197163744E+01  0.13197163744E+01  0.00000000000E+00 0.  1.
          5    1    1    2  501    0  0.74489561308E+00 -0.34646804401E+00  0.10476182672E+02  0.11511529566E+02  0.47000000000E+01 0.  1.
         -5    1    1    2    0  503 -0.74489561308E+00  0.34646804401E+00  0.62938707721E+01  0.78979566266E+01  0.47000000000E+01 0.  1.
<mgrwt>
<rscale>  2 0.47712587E+01</rscale>
<asrwt>0</asrwt>
<pdfrwt beam="1">  1       21 0.27830413E-02 0.47712587E+01</pdfrwt>
<pdfrwt beam="2">  1       21 0.20303330E-03 0.47712587E+01</pdfrwt>
<totfact> 0.52827972E+09</totfact>
</mgrwt>
</event>
<event>
 4    1  0.3964155E+006  0.6097185E+01  0.7546771E-02  0.2402944E+00
         21   -1    0    0  503  502  0.00000000000E+00  0.00000000000E+00  0.26455450254E+01  0.26455450254E+01  0.00000000000E+00 0.  1.
         21   -1    0    0  501  503 -0.00000000000E+00 -0.00000000000E+00 -0.71639449565E+02  0.71639449565E+02  0.00000000000E+00 0.  1.
          5    1    1    2  501    0  0.35114915902E+01 -0.16598479117E+01 -0.67798025743E+02  0.68071638462E+02  0.47000000000E+01 0.  1.
         -5    1    1    2    0  502 -0.35114915902E+01  0.16598479117E+01 -0.11958787964E+01  0.62133561280E+01  0.47000000000E+01 0.  1.
<mgrwt>
<rscale>  2 0.60971853E+01</rscale>
<asrwt>0</asrwt>
<pdfrwt beam="1">  1       21 0.40700691E-03 0.60971853E+01</pdfrwt>
<pdfrwt beam="2">  1       21 0.11021454E-01 0.60971853E+01</pdfrwt>
<totfact> 0.33294782E+08</totfact>
</mgrwt>
</event>
<event>
 4    1  0.3964155E+006  0.7575599E+01  0.7546771E-02  0.2246601E+00
         21   -1    0    0  503  502  0.00000000000E+00  0.00000000000E+00  0.60597188370E-01  0.60597188370E-01  0.00000000000E+00 0. -1.
         21   -1    0    0  501  503 -0.00000000000E+00 -0.00000000000E+00 -0.96711283024E+03  0.96711283024E+03  0.00000000000E+00 0.  1.
          5    1    1    2  501    0  0.38351371267E+01  0.45377780707E+01 -0.55314519814E+03  0.55319707151E+03  0.47000000000E+01 0. -1.
         -5    1    1    2    0  502 -0.38351371267E+01 -0.45377780707E+01 -0.41390703491E+03  0.41397635591E+03  0.47000000000E+01 0.  1.
<mgrwt>
<rscale>  2 0.75755994E+01</rscale>
<asrwt>0</asrwt>
<pdfrwt beam="1">  1       21 0.93224717E-05 0.75755994E+01</pdfrwt>
<pdfrwt beam="2">  1       21 0.14878934E+00 0.75755994E+01</pdfrwt>
<totfact> 0.58030864E+08</totfact>
</mgrwt>
</event>
<event>
 4    1  0.3964155E+006  0.5674281E+01  0.7546771E-02  0.2459848E+00
         21   -1    0    0  501  502  0.00000000000E+00  0.00000000000E+00  0.36194083001E+02  0.36194083001E+02  0.00000000000E+00 0. -1.
         21   -1    0    0  502  503 -0.00000000000E+00 -0.00000000000E+00 -0.10555930357E+02  0.10555930357E+02  0.00000000000E+00 0. -1.
          5    1    1    2  501    0  0.30831273256E+01 -0.77575158577E+00  0.35187469792E+02  0.35642046729E+02  0.47000000000E+01 0. -1.
         -5    1    1    2    0  503 -0.30831273256E+01  0.77575158577E+00 -0.95493171481E+01  0.11107966629E+02  0.47000000000E+01 0. -1.
<mgrwt>
<rscale>  2 0.56742810E+01</rscale>
<asrwt>0</asrwt>
<pdfrwt beam="1">  1       21 0.55683204E-02 0.56742810E+01</pdfrwt>
<pdfrwt beam="2">  1       21 0.16239893E-02 0.56742810E+01</pdfrwt>
<totfact> 0.12752252E+08</totfact>
</mgrwt>
</event>
<event>
 4    1  0.3964155E+006  0.5180722E+01  0.7546771E-02  0.2536059E+00
         21   -1    0    0  503  502  0.00000000000E+00  0.00000000000E+00  0.21816980067E+00  0.21816980067E+00  0.00000000000E+00 0.  1.
         21   -1    0    0  501  503 -0.00000000000E+00 -0.00000000000E+00 -0.19549469903E+03  0.19549469903E+03  0.00000000000E+00 0.  1.
          5    1    1    2  501    0 -0.21391448357E+01 -0.41706614302E+00 -0.15721907026E+03  0.15730440533E+03  0.47000000000E+01 0.  1.
         -5    1    1    2    0  502  0.21391448357E+01  0.41706614302E+00 -0.38057458972E+02  0.38408463497E+02  0.47000000000E+01 0.  1.
<mgrwt>
<rscale>  2 0.51807224E+01</rscale>
<asrwt>0</asrwt>
<pdfrwt beam="1">  1       21 0.33564800E-04 0.51807224E+01</pdfrwt>
<pdfrwt beam="2">  1       21 0.30075915E-01 0.51807224E+01</pdfrwt>
<totfact> 0.16943365E+09</totfact>
</mgrwt>
</event>
<event>
 4    1  0.3964155E+006  0.6744374E+01  0.7546771E-02  0.2327563E+00
         21   -1    0    0  503  502  0.00000000000E+00  0.00000000000E+00  0.53497971433E-01  0.53497971433E-01  0.00000000000E+00 0. -1.
         21   -1    0    0  501  503 -0.00000000000E+00 -0.00000000000E+00 -0.96919361882E+03  0.96919361882E+03  0.00000000000E+00 0.  1.
          5    1    1    2  501    0 -0.18931186878E+01  0.44511441034E+01 -0.65434443683E+03  0.65437919327E+03  0.47000000000E+01 0.  1.
         -5    1    1    2    0  502  0.18931186878E+01 -0.44511441034E+01 -0.31479568402E+03  0.31486792352E+03  0.47000000000E+01 0. -1.
<mgrwt>
<rscale>  2 0.67443741E+01</rscale>
<asrwt>0</asrwt>
<pdfrwt beam="1">  1       21 0.82309286E-05 0.67443741E+01</pdfrwt>
<pdfrwt beam="2">  1       21 0.14909817E+00 0.67443741E+01</pdfrwt>
<totfact> 0.63974267E+08</totfact>
</mgrwt>
</event>
<event>
 4    1  0.3964155E+006  0.4787761E+01  0.7546771E-02  0.2606240E+00
         21   -1    0    0  503  502  0.00000000000E+00  0.00000000000E+00  0.27297942350E+00  0.27297942350E+00  0.00000000000E+00 0.  1.
         21   -1    0    0  501  503 -0.00000000000E+00 -0.00000000000E+00 -0.92901090503E+02  0.92901090503E+02  0.00000000000E+00 0.  1.
          5    1    1    2  501    0  0.71014917301E+00 -0.57301340344E+00 -0.60757001205E+02  0.60945351354E+02  0.47000000000E+01 0.  1.
         -5    1    1    2    0  502 -0.71014917301E+00  0.57301340344E+00 -0.31871109875E+02  0.32228718573E+02  0.47000000000E+01 0.  1.
<mgrwt>
<rscale>  2 0.47877611E+01</rscale>
<asrwt>0</asrwt>
<pdfrwt beam="1">  1       21 0.41996838E-04 0.47877611E+01</pdfrwt>
<pdfrwt beam="2">  1       21 0.14292474E-01 0.47877611E+01</pdfrwt>
<totfact> 0.38364198E+09</totfact>
</mgrwt>
</event>
<event>
 4    1  0.3964155E+006  0.5743142E+01  0.7546771E-02  0.2450103E+00
         21   -1    0    0  503  502  0.00000000000E+00  0.00000000000E+00  0.18010740431E+01  0.18010740431E+01  0.00000000000E+00 0.  1.
         21   -1    0    0  501  503 -0.00000000000E+00 -0.00000000000E+00 -0.18433458904E+02  0.18433458904E+02  0.00000000000E+00 0.  1.
          5    1    1    2  501    0  0.24690835643E+01 -0.21902743578E+01 -0.91329090249E+01  0.10788591320E+02  0.47000000000E+01 0.  1.
         -5    1    1    2    0  502 -0.24690835643E+01  0.21902743578E+01 -0.74994758359E+01  0.94459416271E+01  0.47000000000E+01 0.  1.
<mgrwt>
<rscale>  2 0.57431416E+01</rscale>
<asrwt>0</asrwt>
<pdfrwt beam="1">  1       21 0.27708831E-03 0.57431416E+01</pdfrwt>
<pdfrwt beam="2">  1       21 0.28359168E-02 0.57431416E+01</pdfrwt>
<totfact> 0.40707238E+09</totfact>
</mgrwt>
</event>
<event>
 4    1  0.3964155E+006  0.5738020E+01  0.7546771E-02  0.2450821E+00
         21   -1    0    0  503  502  0.00000000000E+00  0.00000000000E+00  0.77912369868E-01  0.77912369868E-01  0.00000000000E+00 0. -1.
         21   -1    0    0  501  503 -0.00000000000E+00 -0.00000000000E+00 -0.74033110915E+03  0.74033110915E+03  0.00000000000E+00 0. -1.
          5    1    1    2  501    0  0.80779953988E+00 -0.31909763003E+01 -0.61265714743E+03  0.61268401739E+03  0.47000000000E+01 0. -1.
         -5    1    1    2    0  502 -0.80779953988E+00  0.31909763003E+01 -0.12759604935E+03  0.12772500413E+03  0.47000000000E+01 0. -1.
<mgrwt>
<rscale>  2 0.57380197E+01</rscale>
<asrwt>0</asrwt>
<pdfrwt beam="1">  1       21 0.11985833E-04 0.57380197E+01</pdfrwt>
<pdfrwt beam="2">  1       21 0.11390360E+00 0.57380197E+01</pdfrwt>
<totfact> 0.61903552E+08</totfact>
</mgrwt>
</event>
<event>
 4    1  0.3964155E+006  0.7714260E+01  0.7546771E-02  0.2234492E+00
         21   -1    0    0  503  502  0.00000000000E+00  0.00000000000E+00  0.33764991305E+00  0.33764991305E+00  0.00000000000E+00 0. -1.
         21   -1    0    0  501  503 -0.00000000000E+00 -0.00000000000E+00 -0.37718820014E+03  0.37718820014E+03  0.00000000000E+00 0. -1.
          5    1    1    2  501    0 -0.32189066215E+01 -0.52017741333E+01 -0.32620079237E+03  0.32629199616E+03  0.47000000000E+01 0. -1.
         -5    1    1    2    0  502  0.32189066215E+01  0.52017741333E+01 -0.50649757859E+02  0.51233853897E+02  0.47000000000E+01 0. -1.
<mgrwt>
<rscale>  2 0.77142604E+01</rscale>
<asrwt>0</asrwt>
<pdfrwt beam="1">  1       21 0.51946098E-04 0.77142604E+01</pdfrwt>
<pdfrwt beam="2">  1       21 0.58029001E-01 0.77142604E+01</pdfrwt>
<totfact> 0.39294478E+08</totfact>
</mgrwt>
</event>
<event>
 4    1  0.3964155E+006  0.5799085E+01  0.7546771E-02  0.2442330E+00
         21   -1    0    0  503  502  0.00000000000E+00  0.00000000000E+00  0.10747349385E+02  0.10747349385E+02  0.00000000000E+00 0. -1.
         21   -1    0    0  501  503 -0.00000000000E+00 -0.00000000000E+00 -0.35959927845E+01  0.35959927845E+01  0.00000000000E+00 0. -1.
          5    1    1    2  501    0  0.17540330926E+01  0.29090819143E+01  0.99148109388E+00  0.58832324817E+01  0.47000000000E+01 0. -1.
         -5    1    1    2    0  502 -0.17540330926E+01 -0.29090819143E+01  0.61598755067E+01  0.84601096879E+01  0.47000000000E+01 0. -1.
<mgrwt>
<rscale>  2 0.57990852E+01</rscale>
<asrwt>0</asrwt>
<pdfrwt beam="1">  1       21 0.16534384E-02 0.57990852E+01</pdfrwt>
<pdfrwt beam="2">  1       21 0.55322966E-03 0.57990852E+01</pdfrwt>
<totfact> 0.34360517E+09</totfact>
</mgrwt>
</event>
<event>
 4    1  0.3964155E+006  0.5117285E+01  0.7546771E-02  0.2546759E+00
         21   -1    0    0  501  502  0.00000000000E+00  0.00000000000E+00  0.15667705167E+00  0.15667705167E+00  0.00000000000E+00 0.  1.
         21   -1    0    0  502  503 -0.00000000000E+00 -0.00000000000E+00 -0.29436311409E+03  0.29436311409E+03  0.00000000000E+00 0. -1.
          5    1    1    2  501    0 -0.19376724453E+01 -0.58483849090E+00 -0.50291022063E+02  0.50550702376E+02  0.47000000000E+01 0.  1.
         -5    1    1    2    0  503  0.19376724453E+01  0.58483849090E+00 -0.24391541497E+03  0.24396908876E+03  0.47000000000E+01 0.  1.
<mgrwt>
<rscale>  2 0.51172855E+01</rscale>
<asrwt>0</asrwt>
<pdfrwt beam="1">  1       21 0.24104336E-04 0.51172855E+01</pdfrwt>
<pdfrwt beam="2">  1       21 0.45286305E-01 0.51172855E+01</pdfrwt>
<totfact> 0.12933485E+09</totfact>
</mgrwt>
</event>
<event>
 4    1  0.3964155E+006  0.5360339E+01  0.7546771E-02  0.2506943E+00
         21   -1    0    0  501  502  0.00000000000E+00  0.00000000000E+00  0.76101823578E+03  0.76101823578E+03  0.00000000000E+00 0. -1.
         21   -1    0    0  502  503 -0.00000000000E+00 -0.00000000000E+00 -0.39091164005E-01  0.39091164005E-01  0.00000000000E+00 0. -1.
          5    1    1    2  501    0  0.24795467324E+01  0.70361761098E+00  0.45080769100E+03  0.45083955848E+03  0.47000000000E+01 0. -1.
         -5    1    1    2    0  503 -0.24795467324E+01 -0.70361761098E+00  0.31017145362E+03  0.31021776846E+03  0.47000000000E+01 0. -1.
<mgrwt>
<rscale>  2 0.53603386E+01</rscale>
<asrwt>0</asrwt>
<pdfrwt beam="1">  1       21 0.11706786E+00 0.53603386E+01</pdfrwt>
<pdfrwt beam="2">  1       21 0.60146347E-05 0.53603386E+01</pdfrwt>
<totfact> 0.13978824E+09</totfact>
</mgrwt>
</event>
<event>
 4    1  0.3964155E+006  0.8829269E+01  0.7546771E-02  0.2148457E+00
         21   -1    0    0  503  502  0.00000000000E+00  0.00000000000E+00  0.80031570270E+02  0.80031570270E+02  0.00000000000E+00 0.  1.
         21   -1    0    0  501  503 -0.00000000000E+00 -0.00000000000E+00 -0.39847388997E+01  0.39847388997E+01  0.00000000000E+00 0. -1.
          5    1    1    2  501    0 -0.65114377511E+01 -0.36697636010E+01  0.15089040983E+01  0.89572751466E+01  0.47000000000E+01 0. -1.
         -5    1    1    2    0  502  0.65114377511E+01  0.36697636010E+01  0.74537927272E+02  0.75059034023E+02  0.47000000000E+01 0.  1.
<mgrwt>
<rscale>  2 0.88292687E+01</rscale>
<asrwt>0</asrwt>
<pdfrwt beam="1">  1       21 0.12312548E-01 0.88292687E+01</pdfrwt>
<pdfrwt beam="2">  1       21 0.61303681E-03 0.88292687E+01</pdfrwt>
<totfact> 0.19773765E+08</totfact>
</mgrwt>
</event>
<event>
 4    1  0.3964155E+006  0.4884789E+01  0.7546771E-02  0.2588007E+00
         21   -1    0    0  503  502  0.00000000000E+00  0.00000000000E+00  0.27173190053E+01  0.27173190053E+01  0.00000000000E+00 0.  1.
         21   -1    0    0  501  503 -0.00000000000E+00 -0.00000000000E+00 -0.15996683291E+02  0.15996683291E+02  0.00000000000E+00 0.  1.
          5    1    1    2  501    0  0.66586607174E-01 -0.13291828760E+01 -0.12923971917E+02  0.13816302364E+02  0.47000000000E+01 0. -1.
         -5    1    1    2    0  502 -0.66586607174E-01  0.13291828760E+01 -0.35539236872E+00  0.48976999326E+01  0.47000000000E+01 0. -1.
<mgrwt>
<rscale>  2 0.48847887E+01</rscale>
<asrwt>0</asrwt>
<pdfrwt beam="1">  1       21 0.41804908E-03 0.48847887E+01</pdfrwt>
<pdfrwt beam="2">  1       21 0.24610282E-02 0.48847887E+01</pdfrwt>
<totfact> 0.24273925E+09</totfact>
</mgrwt>
</event>
<event>
 4    1  0.3964155E+006  0.5231540E+01  0.7546771E-02  0.2527648E+00
         21   -1    0    0  501  502  0.00000000000E+00  0.00000000000E+00  0.33282158765E-01  0.33282158765E-01  0.00000000000E+00 0.  1.
         21   -1    0    0  502  503 -0.00000000000E+00 -0.00000000000E+00 -0.11933078109E+04  0.11933078109E+04  0.00000000000E+00 0.  1.
          5    1    1    2  501    0 -0.42506241675E+00 -0.22579494913E+01 -0.26395424744E+03  0.26400608658E+03  0.47000000000E+01 0.  1.
         -5    1    1    2    0  503  0.42506241675E+00  0.22579494913E+01 -0.92932028134E+03  0.92933500651E+03  0.47000000000E+01 0.  1.
<mgrwt>
<rscale>  2 0.52315403E+01</rscale>
<asrwt>0</asrwt>
<pdfrwt beam="1">  1       21 0.51206601E-05 0.52315403E+01</pdfrwt>
<pdfrwt beam="2">  1       21 0.18357406E+00 0.52315403E+01</pdfrwt>
<totfact> 0.65833514E+08</totfact>
</mgrwt>
</event>
<event>
 4    1  0.3964155E+006  0.1223125E+02  0.7546771E-02  0.1966574E+00
         21   -1    0    0  501  502  0.00000000000E+00  0.00000000000E+00  0.40684162521E+00  0.40684162521E+00  0.00000000000E+00 0.  1.
         21   -1    0    0  502  503 -0.00000000000E+00 -0.00000000000E+00 -0.44488698065E+03  0.44488698065E+03  0.00000000000E+00 0. -1.
          5    1    1    2  501    0 -0.24871993510E+01 -0.11014865926E+02 -0.12951222978E+03  0.13008851254E+03  0.47000000000E+01 0.  1.
         -5    1    1    2    0  503  0.24871993510E+01  0.11014865926E+02 -0.31496790924E+03  0.31520530973E+03  0.47000000000E+01 0. -1.
<mgrwt>
<rscale>  2 0.12231248E+02</rscale>
<asrwt>0</asrwt>
<pdfrwt beam="1">  1       21 0.62591150E-04 0.12231248E+02</pdfrwt>
<pdfrwt beam="2">  1       21 0.68444007E-01 0.12231248E+02</pdfrwt>
<totfact> 0.27676266E+08</totfact>
</mgrwt>
</event>
<event>
 4    1  0.3964155E+006  0.5478437E+01  0.7546771E-02  0.2488690E+00
         21   -1    0    0  501  502  0.00000000000E+00  0.00000000000E+00  0.16093720157E+03  0.16093720157E+03  0.00000000000E+00 0. -1.
         21   -1    0    0  502  503 -0.00000000000E+00 -0.00000000000E+00 -0.20865388554E+00  0.20865388554E+00  0.00000000000E+00 0.  1.
          5    1    1    2  501    0 -0.28124427761E+01  0.11590690226E+00  0.10662419230E+03  0.10676484277E+03  0.47000000000E+01 0.  1.
         -5    1    1    2    0  503  0.28124427761E+01 -0.11590690226E+00  0.54104355385E+02  0.54381012683E+02  0.47000000000E+01 0. -1.
<mgrwt>
<rscale>  2 0.54784367E+01</rscale>
<asrwt>0</asrwt>
<pdfrwt beam="1">  1       21 0.24759470E-01 0.54784367E+01</pdfrwt>
<pdfrwt beam="2">  1       21 0.32100727E-04 0.54784367E+01</pdfrwt>
<totfact> 0.26027340E+09</totfact>
</mgrwt>
</event>
<event>
 4    1  0.3964155E+006  0.1098360E+02  0.7546771E-02  0.2022983E+00
         21   -1    0    0  501  502  0.00000000000E+00  0.00000000000E+00  0.11058448983E+02  0.11058448983E+02  0.00000000000E+00 0.  1.
         21   -1    0    0  502  503 -0.00000000000E+00 -0.00000000000E+00 -0.89547884582E+02  0.89547884582E+02  0.00000000000E+00 0. -1.
          5    1    1    2  501    0 -0.82190837564E+01  0.55674073460E+01  0.78948556779E+01  0.13526570464E+02  0.47000000000E+01 0.  1.
         -5    1    1    2    0  503  0.82190837564E+01 -0.55674073460E+01 -0.86384291277E+02  0.87079763101E+02  0.47000000000E+01 0. -1.
<mgrwt>
<rscale>  2 0.10983595E+02</rscale>
<asrwt>0</asrwt>
<pdfrwt beam="1">  1       21 0.17012998E-02 0.10983595E+02</pdfrwt>
<pdfrwt beam="2">  1       21 0.13776598E-01 0.10983595E+02</pdfrwt>
<totfact> 0.41426765E+07</totfact>
</mgrwt>
</event>
<event>
 4    1  0.3964155E+006  0.5398134E+01  0.7546771E-02  0.2501027E+00
         21   -1    0    0  501  502  0.00000000000E+00  0.00000000000E+00  0.56976266071E+02  0.56976266071E+02  0.00000000000E+00 0.  1.
         21   -1    0    0  502  503 -0.00000000000E+00 -0.00000000000E+00 -0.10431586709E+01  0.10431586709E+01  0.00000000000E+00 0.  1.
          5    1    1    2  501    0  0.18762682342E+01  0.18786884798E+01  0.48677971387E+02  0.48976369315E+02  0.47000000000E+01 0.  1.
         -5    1    1    2    0  503 -0.18762682342E+01 -0.18786884798E+01  0.72551360125E+01  0.90430554267E+01  0.47000000000E+01 0.  1.
<mgrwt>
<rscale>  2 0.53981342E+01</rscale>
<asrwt>0</asrwt>
<pdfrwt beam="1">  1       21 0.87655769E-02 0.53981342E+01</pdfrwt>
<pdfrwt beam="2">  1       21 0.16048599E-03 0.53981342E+01</pdfrwt>
<totfact> 0.15272500E+09</totfact>
</mgrwt>
</event>
<event>
 4    1  0.3964155E+006  0.5475989E+01  0.7546771E-02  0.2489061E+00
         21   -1    0    0  501  502  0.00000000000E+00  0.00000000000E+00  0.45761725386E+01  0.45761725386E+01  0.00000000000E+00 0. -1.
         21   -1    0    0  502  503 -0.00000000000E+00 -0.00000000000E+00 -0.65731162870E+01  0.65731162870E+01  0.00000000000E+00 0.  1.
          5    1    1    2  501    0 -0.28090091454E+01 -0.76997243114E-01 -0.68807852904E+00  0.55190500103E+01  0.47000000000E+01 0.  1.
         -5    1    1    2    0  503  0.28090091454E+01  0.76997243114E-01 -0.13088652194E+01  0.56302388152E+01  0.47000000000E+01 0. -1.
<mgrwt>
<rscale>  2 0.54759895E+01</rscale>
<asrwt>0</asrwt>
<pdfrwt beam="1">  1       21 0.70402655E-03 0.54759895E+01</pdfrwt>
<pdfrwt beam="2">  1       21 0.10112487E-02 0.54759895E+01</pdfrwt>
<totfact> 0.46678466E+09</totfact>
</mgrwt>
</event>
<event>
 4    1  0.3964155E+006  0.5387017E+01  0.7546771E-02  0.2502760E+00
         21   -1    0    0  501  502  0.00000000000E+00  0.00000000000E+00  0.53657560185E-01  0.53657560185E-01  0.00000000000E+00 0.  1.
         21   -1    0    0  502  503 -0.00000000000E+00 -0.00000000000E+00 -0.54320521023E+03  0.54320521023E+03  0.00000000000E+00 0. -1.
          5    1    1    2  501    0  0.26323796539E+01  0.22944446284E-01 -0.28951408589E+03  0.28956419992E+03  0.47000000000E+01 0. -1.
         -5    1    1    2    0  503 -0.26323796539E+01 -0.22944446284E-01 -0.25363746678E+03  0.25369466787E+03  0.47000000000E+01 0. -1.
<mgrwt>
<rscale>  2 0.53870167E+01</rscale>
<asrwt>0</asrwt>
<pdfrwt beam="1">  1       21 0.82553347E-05 0.53870167E+01</pdfrwt>
<pdfrwt beam="2">  1       21 0.83566738E-01 0.53870167E+01</pdfrwt>
<totfact> 0.18046804E+09</totfact>
</mgrwt>
</event>
<event>
 4    1  0.3964155E+006  0.5300061E+01  0.7546771E-02  0.2516526E+00
         21   -1    0    0  501  502  0.00000000000E+00  0.00000000000E+00  0.43987589451E+02  0.43987589451E+02  0.00000000000E+00 0.  1.
         21   -1    0    0  502  503 -0.00000000000E+00 -0.00000000000E+00 -0.80700899449E+00  0.80700899449E+00  0.00000000000E+00 0. -1.
          5    1    1    2  501    0 -0.12465261690E+00 -0.24464480565E+01  0.31821666851E+02  0.32260023675E+02  0.47000000000E+01 0.  1.
         -5    1    1    2    0  503  0.12465261690E+00  0.24464480565E+01  0.11358913606E+02  0.12534574771E+02  0.47000000000E+01 0. -1.
<mgrwt>
<rscale>  2 0.53000610E+01</rscale>
<asrwt>0</asrwt>
<pdfrwt beam="1">  1       21 0.67673196E-02 0.53000610E+01</pdfrwt>
<pdfrwt beam="2">  1       21 0.12415526E-03 0.53000610E+01</pdfrwt>
<totfact> 0.31222501E+09</totfact>
</mgrwt>
</event>
<event>
 4    1  0.3964155E+006  0.1389026E+02  0.7546771E-02  0.1903950E+00
         21   -1    0    0  503  502  0.00000000000E+00  0.00000000000E+00  0.62874068741E+03  0.62874068741E+03  0.00000000000E+00 0.  1.
         21   -1    0    0  501  503 -0.00000000000E+00 -0.00000000000E+00 -0.32253558084E+00  0.32253558084E+00  0.00000000000E+00 0. -1.
          5    1    1    2  501    0 -0.51763937432E+01 -0.12002264031E+02  0.24488268848E+03  0.24527631462E+03  0.47000000000E+01 0.  1.
         -5    1    1    2    0  502  0.51763937432E+01  0.12002264031E+02  0.38353546334E+03  0.38378690837E+03  0.47000000000E+01 0. -1.
<mgrwt>
<rscale>  2 0.13890263E+02</rscale>
<asrwt>0</asrwt>
<pdfrwt beam="1">  1       21 0.96728355E-01 0.13890263E+02</pdfrwt>
<pdfrwt beam="2">  1       21 0.49621362E-04 0.13890263E+02</pdfrwt>
<totfact> 0.19732064E+08</totfact>
</mgrwt>
</event>
<event>
 4    1  0.3964155E+006  0.5902587E+01  0.7546771E-02  0.2428277E+00
         21   -1    0    0  501  502  0.00000000000E+00  0.00000000000E+00  0.28947228035E+01  0.28947228035E+01  0.00000000000E+00 0.  1.
         21   -1    0    0  502  503 -0.00000000000E+00 -0.00000000000E+00 -0.95066169153E+02  0.95066169153E+02  0.00000000000E+00 0. -1.
          5    1    1    2  501    0 -0.26938208906E+01 -0.23438989905E+01 -0.31075868540E+00  0.59107617469E+01  0.47000000000E+01 0.  1.
         -5    1    1    2    0  503  0.26938208906E+01  0.23438989905E+01 -0.91860687664E+02  0.92050130210E+02  0.47000000000E+01 0. -1.
<mgrwt>
<rscale>  2 0.59025870E+01</rscale>
<asrwt>0</asrwt>
<pdfrwt beam="1">  1       21 0.44534194E-03 0.59025870E+01</pdfrwt>
<pdfrwt beam="2">  1       21 0.14625565E-01 0.59025870E+01</pdfrwt>
<totfact> 0.18484512E+08</totfact>
</mgrwt>
</event>
<event>
 4    1  0.3964155E+006  0.6466630E+01  0.7546771E-02  0.2358379E+00
         21   -1    0    0  501  502  0.00000000000E+00  0.00000000000E+00  0.39653010310E+02  0.39653010310E+02  0.00000000000E+00 0.  1.
         21   -1    0    0  502  503 -0.00000000000E+00 -0.00000000000E+00 -0.13146286723E+01  0.13146286723E+01  0.00000000000E+00 0. -1.
          5    1    1    2  501    0 -0.42152394081E+01  0.13996631267E+01  0.28279562799E+02  0.29009497966E+02  0.47000000000E+01 0.  1.
         -5    1    1    2    0  503  0.42152394081E+01 -0.13996631267E+01  0.10058818839E+02  0.11958141016E+02  0.47000000000E+01 0. -1.
<mgrwt>
<rscale>  2 0.64666297E+01</rscale>
<asrwt>0</asrwt>
<pdfrwt beam="1">  1       21 0.61004622E-02 0.64666297E+01</pdfrwt>
<pdfrwt beam="2">  1       21 0.20225060E-03 0.64666297E+01</pdfrwt>
<totfact> 0.22450860E+09</totfact>
</mgrwt>
</event>
<event>
 4    1  0.3964155E+006  0.5312026E+01  0.7546771E-02  0.2514609E+00
         21   -1    0    0  503  502  0.00000000000E+00  0.00000000000E+00  0.25659283498E+02  0.25659283498E+02  0.00000000000E+00 0. -1.
         21   -1    0    0  501  503 -0.00000000000E+00 -0.00000000000E+00 -0.11663994525E+01  0.11663994525E+01  0.00000000000E+00 0. -1.
          5    1    1    2  501    0  0.24709614573E+01 -0.14823149353E+00  0.90391061786E+01  0.10484420042E+02  0.47000000000E+01 0.  1.
         -5    1    1    2    0  502 -0.24709614573E+01  0.14823149353E+00  0.15453777867E+02  0.16341262909E+02  0.47000000000E+01 0.  1.
<mgrwt>
<rscale>  2 0.53120263E+01</rscale>
<asrwt>0</asrwt>
<pdfrwt beam="1">  1       21 0.39475817E-02 0.53120263E+01</pdfrwt>
<pdfrwt beam="2">  1       21 0.17944609E-03 0.53120263E+01</pdfrwt>
<totfact> 0.42175030E+09</totfact>
</mgrwt>
</event>
<event>
 4    1  0.3964155E+006  0.5298825E+01  0.7546771E-02  0.2516725E+00
         21   -1    0    0  501  502  0.00000000000E+00  0.00000000000E+00  0.12107219996E+03  0.12107219996E+03  0.00000000000E+00 0. -1.
         21   -1    0    0  502  503 -0.00000000000E+00 -0.00000000000E+00 -0.28009990375E+00  0.28009990375E+00  0.00000000000E+00 0.  1.
          5    1    1    2  501    0 -0.22893676963E+01  0.86391267849E+00  0.85564176736E+02  0.85728092770E+02  0.47000000000E+01 0. -1.
         -5    1    1    2    0  503  0.22893676963E+01 -0.86391267849E+00  0.35227923323E+02  0.35624207096E+02  0.47000000000E+01 0.  1.
<mgrwt>
<rscale>  2 0.52988253E+01</rscale>
<asrwt>0</asrwt>
<pdfrwt beam="1">  1       21 0.18626451E-01 0.52988253E+01</pdfrwt>
<pdfrwt beam="2">  1       21 0.43092389E-04 0.52988253E+01</pdfrwt>
<totfact> 0.27027017E+09</totfact>
</mgrwt>
</event>
<event>
 4    1  0.3964155E+006  0.4724592E+01  0.7546771E-02  0.2618460E+00
         21   -1    0    0  503  502  0.00000000000E+00  0.00000000000E+00  0.11189498560E+01  0.11189498560E+01  0.00000000000E+00 0.  1.
         21   -1    0    0  501  503 -0.00000000000E+00 -0.00000000000E+00 -0.20000528128E+02  0.20000528128E+02  0.00000000000E+00 0.  1.
          5    1    1    2  501    0  0.94809681274E-01 -0.47199457791E+00 -0.89040449423E+01  0.10079870242E+02  0.47000000000E+01 0. -1.
         -5    1    1    2    0  502 -0.94809681274E-01  0.47199457791E+00 -0.99775333296E+01  0.11039607742E+02  0.47000000000E+01 0. -1.
<mgrwt>
<rscale>  2 0.47245918E+01</rscale>
<asrwt>0</asrwt>
<pdfrwt beam="1">  1       21 0.17214615E-03 0.47245918E+01</pdfrwt>
<pdfrwt beam="2">  1       21 0.30770041E-02 0.47245918E+01</pdfrwt>
<totfact> 0.56471429E+09</totfact>
</mgrwt>
</event>
<event>
 4    1  0.3964155E+006  0.6584983E+01  0.7546771E-02  0.2344985E+00
         21   -1    0    0  501  502  0.00000000000E+00  0.00000000000E+00  0.13120932295E+02  0.13120932295E+02  0.00000000000E+00 0.  1.
         21   -1    0    0  502  503 -0.00000000000E+00 -0.00000000000E+00 -0.33418882910E+01  0.33418882910E+01  0.00000000000E+00 0.  1.
          5    1    1    2  501    0  0.45471929999E+01 -0.77138520624E+00  0.57567283666E+01  0.87465376465E+01  0.47000000000E+01 0.  1.
         -5    1    1    2    0  503 -0.45471929999E+01  0.77138520624E+00  0.40223156372E+01  0.77162829393E+01  0.47000000000E+01 0.  1.
<mgrwt>
<rscale>  2 0.65849829E+01</rscale>
<asrwt>0</asrwt>
<pdfrwt beam="1">  1       21 0.20186049E-02 0.65849829E+01</pdfrwt>
<pdfrwt beam="2">  1       21 0.51413667E-03 0.65849829E+01</pdfrwt>
<totfact> 0.31956493E+09</totfact>
</mgrwt>
</event>
<event>
 4    1  0.3964155E+006  0.6582094E+01  0.7546771E-02  0.2345307E+00
         21   -1    0    0  501  502  0.00000000000E+00  0.00000000000E+00  0.75138282381E-01  0.75138282381E-01  0.00000000000E+00 0. -1.
         21   -1    0    0  502  503 -0.00000000000E+00 -0.00000000000E+00 -0.71332575593E+03  0.71332575593E+03  0.00000000000E+00 0.  1.
          5    1    1    2  501    0  0.43393238352E+01 -0.15505589124E+01 -0.20045404373E+03  0.20056207919E+03  0.47000000000E+01 0.  1.
         -5    1    1    2    0  503 -0.43393238352E+01  0.15505589124E+01 -0.51279657392E+03  0.51283881502E+03  0.47000000000E+01 0.  1.
<mgrwt>
<rscale>  2 0.65820942E+01</rscale>
<asrwt>0</asrwt>
<pdfrwt beam="1">  1       21 0.11559420E-04 0.65820942E+01</pdfrwt>
<pdfrwt beam="2">  1       21 0.10974542E+00 0.65820942E+01</pdfrwt>
<totfact> 0.76669216E+08</totfact>
</mgrwt>
</event>
<event>
 4    1  0.3964155E+006  0.5397259E+01  0.7546771E-02  0.2501164E+00
         21   -1    0    0  503  502  0.00000000000E+00  0.00000000000E+00  0.25182256702E+00  0.25182256702E+00  0.00000000000E+00 0.  1.
         21   -1    0    0  501  503 -0.00000000000E+00 -0.00000000000E+00 -0.12335318796E+03  0.12335318796E+03  0.00000000000E+00 0.  1.
          5    1    1    2  501    0  0.16283401167E+00 -0.26483757842E+01 -0.76966501745E+02  0.77155510497E+02  0.47000000000E+01 0.  1.
         -5    1    1    2    0  502 -0.16283401167E+00  0.26483757842E+01 -0.46134863649E+02  0.46449500031E+02  0.47000000000E+01 0.  1.
<mgrwt>
<rscale>  2 0.53972594E+01</rscale>
<asrwt>0</asrwt>
<pdfrwt beam="1">  1       21 0.38741981E-04 0.53972594E+01</pdfrwt>
<pdfrwt beam="2">  1       21 0.18977390E-01 0.53972594E+01</pdfrwt>
<totfact> 0.30735518E+09</totfact>
</mgrwt>
</event>
<event>
 4    1  0.3964155E+006  0.5742949E+01  0.7546771E-02  0.2450130E+00
         21   -1    0    0  503  502  0.00000000000E+00  0.00000000000E+00  0.39263926423E+02  0.39263926423E+02  0.00000000000E+00 0.  1.
         21   -1    0    0  501  503 -0.00000000000E+00 -0.00000000000E+00 -0.94375181506E+00  0.94375181506E+00  0.00000000000E+00 0.  1.
          5    1    1    2  501    0 -0.12122642271E+01  0.30695083429E+01  0.12494163773E+02  0.13750839771E+02  0.47000000000E+01 0.  1.
         -5    1    1    2    0  502  0.12122642271E+01 -0.30695083429E+01  0.25826010835E+02  0.26456838467E+02  0.47000000000E+01 0.  1.
<mgrwt>
<rscale>  2 0.57429492E+01</rscale>
<asrwt>0</asrwt>
<pdfrwt beam="1">  1       21 0.60406028E-02 0.57429492E+01</pdfrwt>
<pdfrwt beam="2">  1       21 0.14519262E-03 0.57429492E+01</pdfrwt>
<totfact> 0.32280193E+09</totfact>
</mgrwt>
</event>
<event>
 4    1  0.3964155E+006  0.4763364E+01  0.7546771E-02  0.2610926E+00
         21   -1    0    0  501  502  0.00000000000E+00  0.00000000000E+00  0.49751617223E+02  0.49751617223E+02  0.00000000000E+00 0.  1.
         21   -1    0    0  502  503 -0.00000000000E+00 -0.00000000000E+00 -0.69225915336E+00  0.69225915336E+00  0.00000000000E+00 0.  1.
          5    1    1    2  501    0 -0.51831547288E+00  0.57531533491E+00  0.39262463046E+02  0.39550355790E+02  0.47000000000E+01 0.  1.
         -5    1    1    2    0  503  0.51831547288E+00 -0.57531533491E+00  0.97968950233E+01  0.10893520586E+02  0.47000000000E+01 0.  1.
<mgrwt>
<rscale>  2 0.47633642E+01</rscale>
<asrwt>0</asrwt>
<pdfrwt beam="1">  1       21 0.76540922E-02 0.47633642E+01</pdfrwt>
<pdfrwt beam="2">  1       21 0.10650145E-03 0.47633642E+01</pdfrwt>
<totfact> 0.28659090E+09</totfact>
</mgrwt>
</event>
<event>
 4    1  0.3964155E+006  0.7249419E+01  0.7546771E-02  0.2276560E+00
         21   -1    0    0  501  502  0.00000000000E+00  0.00000000000E+00  0.44843263544E+02  0.44843263544E+02  0.00000000000E+00 0. -1.
         21   -1    0    0  502  503 -0.00000000000E+00 -0.00000000000E+00 -0.17659409230E+01  0.17659409230E+01  0.00000000000E+00 0. -1.
          5    1    1    2  501    0  0.24010395535E+01 -0.49698180805E+01  0.80228117041E+01  0.10812936249E+02  0.47000000000E+01 0. -1.
         -5    1    1    2    0  503 -0.24010395535E+01  0.49698180805E+01  0.35054510917E+02  0.35796268218E+02  0.47000000000E+01 0. -1.
<mgrwt>
<rscale>  2 0.72494195E+01</rscale>
<asrwt>0</asrwt>
<pdfrwt beam="1">  1       21 0.68989628E-02 0.72494195E+01</pdfrwt>
<pdfrwt beam="2">  1       21 0.27168325E-03 0.72494195E+01</pdfrwt>
<totfact> 0.13541034E+09</totfact>
</mgrwt>
</event>
<event>
 4    1  0.3964155E+006  0.1513112E+02  0.7546771E-02  0.1864094E+00
         21   -1    0    0  501  502  0.00000000000E+00  0.00000000000E+00  0.31417515886E+01  0.31417515886E+01  0.00000000000E+00 0. -1.
         21   -1    0    0  502  503 -0.00000000000E+00 -0.00000000000E+00 -0.81329995926E+02  0.81329995926E+02  0.00000000000E+00 0.  1.
          5    1    1    2  501    0  0.52525257872E+01  0.13389239164E+02 -0.25475012113E+02  0.29629832850E+02  0.47000000000E+01 0.  1.
         -5    1    1    2    0  503 -0.52525257872E+01 -0.13389239164E+02 -0.52713232225E+02  0.54841914665E+02  0.47000000000E+01 0. -1.
<mgrwt>
<rscale>  2 0.15131119E+02</rscale>
<asrwt>0</asrwt>
<pdfrwt beam="1">  1       21 0.48334648E-03 0.15131119E+02</pdfrwt>
<pdfrwt beam="2">  1       21 0.12512305E-01 0.15131119E+02</pdfrwt>
<totfact> 0.34781210E+08</totfact>
</mgrwt>
</event>
<event>
 4    1  0.3964155E+006  0.5357573E+01  0.7546771E-02  0.2507379E+00
         21   -1    0    0  503  502  0.00000000000E+00  0.00000000000E+00  0.57893739297E+00  0.57893739297E+00  0.00000000000E+00 0. -1.
         21   -1    0    0  501  503 -0.00000000000E+00 -0.00000000000E+00 -0.13349178966E+04  0.13349178966E+04  0.00000000000E+00 0.  1.
          5    1    1    2  501    0 -0.25679152854E+01  0.13929293376E+00 -0.13224002465E+04  0.13224110993E+04  0.47000000000E+01 0.  1.
         -5    1    1    2    0  502  0.25679152854E+01 -0.13929293376E+00 -0.11938712668E+02  0.13085734661E+02  0.47000000000E+01 0. -1.
<mgrwt>
<rscale>  2 0.53575733E+01</rscale>
<asrwt>0</asrwt>
<pdfrwt beam="1">  1       21 0.89067073E-04 0.53575733E+01</pdfrwt>
<pdfrwt beam="2">  1       21 0.20537249E+00 0.53575733E+01</pdfrwt>
<totfact> 0.11683597E+07</totfact>
</mgrwt>
</event>
<event>
 4    1  0.3964155E+006  0.6528212E+01  0.7546771E-02  0.2351359E+00
         21   -1    0    0  503  502  0.00000000000E+00  0.00000000000E+00  0.17513958765E+02  0.17513958765E+02  0.00000000000E+00 0. -1.
         21   -1    0    0  501  503 -0.00000000000E+00 -0.00000000000E+00 -0.52208867623E+01  0.52208867623E+01  0.00000000000E+00 0. -1.
          5    1    1    2  501    0 -0.98118553560E+00 -0.44232152404E+01 -0.21596246327E+01  0.68761571152E+01  0.47000000000E+01 0. -1.
         -5    1    1    2    0  502  0.98118553560E+00  0.44232152404E+01  0.14452696636E+02  0.15858688413E+02  0.47000000000E+01 0. -1.
<mgrwt>
<rscale>  2 0.65282125E+01</rscale>
<asrwt>0</asrwt>
<pdfrwt beam="1">  1       21 0.26944552E-02 0.65282125E+01</pdfrwt>
<pdfrwt beam="2">  1       21 0.80321336E-03 0.65282125E+01</pdfrwt>
<totfact> 0.11155681E+09</totfact>
</mgrwt>
</event>
<event>
 4    1  0.3964155E+006  0.6052420E+01  0.7546771E-02  0.2408651E+00
         21   -1    0    0  501  502  0.00000000000E+00  0.00000000000E+00  0.32237412760E+00  0.32237412760E+00  0.00000000000E+00 0. -1.
         21   -1    0    0  502  503 -0.00000000000E+00 -0.00000000000E+00 -0.11588030373E+03  0.11588030373E+03  0.00000000000E+00 0. -1.
          5    1    1    2  501    0 -0.14688560775E+01 -0.35191258103E+01 -0.49684681861E+02  0.50051966957E+02  0.47000000000E+01 0. -1.
         -5    1    1    2    0  503  0.14688560775E+01  0.35191258103E+01 -0.65873247745E+02  0.66150710904E+02  0.47000000000E+01 0. -1.
<mgrwt>
<rscale>  2 0.60524197E+01</rscale>
<asrwt>0</asrwt>
<pdfrwt beam="1">  1       21 0.49596001E-04 0.60524197E+01</pdfrwt>
<pdfrwt beam="2">  1       21 0.17827746E-01 0.60524197E+01</pdfrwt>
<totfact> 0.26963974E+09</totfact>
</mgrwt>
</event>
<event>
 4    1  0.3964155E+006  0.5738266E+01  0.7546771E-02  0.2450786E+00
         21   -1    0    0  503  502  0.00000000000E+00  0.00000000000E+00  0.53458239087E+01  0.53458239087E+01  0.00000000000E+00 0. -1.
         21   -1    0    0  501  503 -0.00000000000E+00 -0.00000000000E+00 -0.68447596141E+01  0.68447596141E+01  0.00000000000E+00 0.  1.
          5    1    1    2  501    0  0.32920023610E+01  0.20361095201E-01 -0.26780472734E+01  0.63324269690E+01  0.47000000000E+01 0.  1.
         -5    1    1    2    0  502 -0.32920023610E+01 -0.20361095201E-01  0.11791115680E+01  0.58581565538E+01  0.47000000000E+01 0. -1.
<mgrwt>
<rscale>  2 0.57382658E+01</rscale>
<asrwt>0</asrwt>
<pdfrwt beam="1">  1       21 0.82243445E-03 0.57382658E+01</pdfrwt>
<pdfrwt beam="2">  1       21 0.10530399E-02 0.57382658E+01</pdfrwt>
<totfact> 0.37092531E+09</totfact>
</mgrwt>
</event>
<event>
 4    1  0.3964155E+006  0.5419214E+01  0.7546771E-02  0.2497759E+00
         21   -1    0    0  501  502  0.00000000000E+00  0.00000000000E+00  0.91581794618E-01  0.91581794618E-01  0.00000000000E+00 0.  1.
         21   -1    0    0  502  503 -0.00000000000E+00 -0.00000000000E+00 -0.32951739138E+03  0.32951739138E+03  0.00000000000E+00 0. -1.
          5    1    1    2  501    0 -0.19697028060E+01  0.18434083874E+01 -0.13771414704E+03  0.13782073203E+03  0.47000000000E+01 0.  1.
         -5    1    1    2    0  503  0.19697028060E+01 -0.18434083874E+01 -0.19171166255E+03  0.19178824114E+03  0.47000000000E+01 0.  1.
<mgrwt>
<rscale>  2 0.54192143E+01</rscale>
<asrwt>0</asrwt>
<pdfrwt beam="1">  1       21 0.14089525E-04 0.54192143E+01</pdfrwt>
<pdfrwt beam="2">  1       21 0.50694920E-01 0.54192143E+01</pdfrwt>
<totfact> 0.22639751E+09</totfact>
</mgrwt>
</event>
<event>
 4    1  0.3964155E+006  0.6323454E+01  0.7546771E-02  0.2375135E+00
         21   -1    0    0  503  502  0.00000000000E+00  0.00000000000E+00  0.29736992064E+02  0.29736992064E+02  0.00000000000E+00 0.  1.
         21   -1    0    0  501  503 -0.00000000000E+00 -0.00000000000E+00 -0.17113952316E+01  0.17113952316E+01  0.00000000000E+00 0.  1.
          5    1    1    2  501    0 -0.36316977891E+01  0.21695254020E+01  0.67338100692E+01  0.92374383543E+01  0.47000000000E+01 0.  1.
         -5    1    1    2    0  502  0.36316977891E+01 -0.21695254020E+01  0.21291786763E+02  0.22210948941E+02  0.47000000000E+01 0.  1.
<mgrwt>
<rscale>  2 0.63234539E+01</rscale>
<asrwt>0</asrwt>
<pdfrwt beam="1">  1       21 0.45749215E-02 0.63234539E+01</pdfrwt>
<pdfrwt beam="2">  1       21 0.26329160E-03 0.63234539E+01</pdfrwt>
<totfact> 0.23591305E+09</totfact>
</mgrwt>
</event>
<event>
 4    1  0.3964155E+006  0.7957804E+01  0.7546771E-02  0.2214053E+00
         21   -1    0    0  503  502  0.00000000000E+00  0.00000000000E+00  0.25437488915E+02  0.25437488915E+02  0.00000000000E+00 0. -1.
         21   -1    0    0  501  503 -0.00000000000E+00 -0.00000000000E+00 -0.24896684154E+01  0.24896684154E+01  0.00000000000E+00 0.  1.
          5    1    1    2  501    0  0.26718508536E+01 -0.58393369552E+01  0.11359257246E+02  0.13869367983E+02  0.47000000000E+01 0.  1.
         -5    1    1    2    0  502 -0.26718508536E+01  0.58393369552E+01  0.11588563253E+02  0.14057789347E+02  0.47000000000E+01 0. -1.
<mgrwt>
<rscale>  2 0.79578039E+01</rscale>
<asrwt>0</asrwt>
<pdfrwt beam="1">  1       21 0.39134597E-02 0.79578039E+01</pdfrwt>
<pdfrwt beam="2">  1       21 0.38302593E-03 0.79578039E+01</pdfrwt>
<totfact> 0.21110021E+09</totfact>
</mgrwt>
</event>
<event>
 4    1  0.3964155E+006  0.5905707E+01  0.7546771E-02  0.2427860E+00
         21   -1    0    0  503  502  0.00000000000E+00  0.00000000000E+00  0.26060219447E+02  0.26060219447E+02  0.00000000000E+00 0.  1.
         21   -1    0    0  501  503 -0.00000000000E+00 -0.00000000000E+00 -0.54679133587E+01  0.54679133587E+01  0.00000000000E+00 0. -1.
          5    1    1    2  501    0  0.12101803414E+01  0.33649424895E+01 -0.34035185517E+01  0.68162535859E+01  0.47000000000E+01 0. -1.
         -5    1    1    2    0  502 -0.12101803414E+01 -0.33649424895E+01  0.23995824640E+02  0.24711879220E+02  0.47000000000E+01 0.  1.
<mgrwt>
<rscale>  2 0.59057069E+01</rscale>
<asrwt>0</asrwt>
<pdfrwt beam="1">  1       21 0.40092645E-02 0.59057069E+01</pdfrwt>
<pdfrwt beam="2">  1       21 0.84121745E-03 0.59057069E+01</pdfrwt>
<totfact> 0.54026772E+08</totfact>
</mgrwt>
</event>
<event>
 4    1  0.3964155E+006  0.5568244E+01  0.7546771E-02  0.2475251E+00
         21   -1    0    0  501  502  0.00000000000E+00  0.00000000000E+00  0.26442240153E+00  0.26442240153E+00  0.00000000000E+00 0.  1.
         21   -1    0    0  502  503 -0.00000000000E+00 -0.00000000000E+00 -0.17017119060E+03  0.17017119060E+03  0.00000000000E+00 0. -1.
          5    1    1    2  501    0 -0.22652400597E+01  0.19452574020E+01 -0.37433648989E+02  0.37845520415E+02  0.47000000000E+01 0.  1.
         -5    1    1    2    0  503  0.22652400597E+01 -0.19452574020E+01 -0.13247311921E+03  0.13259009259E+03  0.47000000000E+01 0. -1.
<mgrwt>
<rscale>  2 0.55682438E+01</rscale>
<asrwt>0</asrwt>
<pdfrwt beam="1">  1       21 0.40680485E-04 0.55682438E+01</pdfrwt>
<pdfrwt beam="2">  1       21 0.26180109E-01 0.55682438E+01</pdfrwt>
<totfact> 0.17568963E+09</totfact>
</mgrwt>
</event>
<event>
 4    1  0.3964155E+006  0.5816696E+01  0.7546771E-02  0.2439909E+00
         21   -1    0    0  503  502  0.00000000000E+00  0.00000000000E+00  0.38693090445E+00  0.38693090445E+00  0.00000000000E+00 0. -1.
         21   -1    0    0  501  503 -0.00000000000E+00 -0.00000000000E+00 -0.89655705381E+02  0.89655705381E+02  0.00000000000E+00 0.  1.
          5    1    1    2  501    0  0.34119666272E+01 -0.32006087330E+00 -0.51709014772E+02  0.52035143546E+02  0.47000000000E+01 0.  1.
         -5    1    1    2    0  502 -0.34119666272E+01  0.32006087330E+00 -0.37559759705E+02  0.38007492740E+02  0.47000000000E+01 0. -1.
<mgrwt>
<rscale>  2 0.58166962E+01</rscale>
<asrwt>0</asrwt>
<pdfrwt beam="1">  1       21 0.59527804E-04 0.58166962E+01</pdfrwt>
<pdfrwt beam="2">  1       21 0.13793192E-01 0.58166962E+01</pdfrwt>
<totfact> 0.30653952E+09</totfact>
</mgrwt>
</event>
<event>
 4    1  0.3964155E+006  0.5940926E+01  0.7546771E-02  0.2423176E+00
         21   -1    0    0  503  502  0.00000000000E+00  0.00000000000E+00  0.19831910145E+02  0.19831910145E+02  0.00000000000E+00 0.  1.
         21   -1    0    0  501  503 -0.00000000000E+00 -0.00000000000E+00 -0.44688990928E+01  0.44688990928E+01  0.00000000000E+00 0.  1.
          5    1    1    2  501    0  0.36040545585E+01  0.46410353254E+00 -0.17439632430E+01  0.61916079610E+01  0.47000000000E+01 0.  1.
         -5    1    1    2    0  502 -0.36040545585E+01 -0.46410353254E+00  0.17106974295E+02  0.18109201277E+02  0.47000000000E+01 0.  1.
<mgrwt>
<rscale>  2 0.59409260E+01</rscale>
<asrwt>0</asrwt>
<pdfrwt beam="1">  1       21 0.30510630E-02 0.59409260E+01</pdfrwt>
<pdfrwt beam="2">  1       21 0.68752295E-03 0.59409260E+01</pdfrwt>
<totfact> 0.10732612E+09</totfact>
</mgrwt>
</event>
<event>
 4    1  0.3964155E+006  0.7737895E+01  0.7546771E-02  0.2232463E+00
         21   -1    0    0  501  502  0.00000000000E+00  0.00000000000E+00  0.40373803940E+00  0.40373803940E+00  0.00000000000E+00 0. -1.
         21   -1    0    0  502  503 -0.00000000000E+00 -0.00000000000E+00 -0.65225063591E+03  0.65225063591E+03  0.00000000000E+00 0.  1.
          5    1    1    2  501    0  0.30519864517E+00 -0.61393706984E+01 -0.39083730191E+02  0.39842351643E+02  0.47000000000E+01 0. -1.
         -5    1    1    2    0  503 -0.30519864517E+00  0.61393706984E+01 -0.61276316768E+03  0.61281202231E+03  0.47000000000E+01 0.  1.
<mgrwt>
<rscale>  2 0.77378950E+01</rscale>
<asrwt>0</asrwt>
<pdfrwt beam="1">  1       21 0.62113438E-04 0.77378950E+01</pdfrwt>
<pdfrwt beam="2">  1       21 0.10034642E+00 0.77378950E+01</pdfrwt>
<totfact> 0.10538909E+08</totfact>
</mgrwt>
</event>
<event>
 4    1  0.3964155E+006  0.7747980E+01  0.7546771E-02  0.2231600E+00
         21   -1    0    0  501  502  0.00000000000E+00  0.00000000000E+00  0.16232023507E+02  0.16232023507E+02  0.00000000000E+00 0.  1.
         21   -1    0    0  502  503 -0.00000000000E+00 -0.00000000000E+00 -0.49994590369E+01  0.49994590369E+01  0.00000000000E+00 0. -1.
          5    1    1    2  501    0  0.40063237004E+01  0.46787349791E+01  0.11031936669E+02  0.13480905654E+02  0.47000000000E+01 0.  1.
         -5    1    1    2    0  503 -0.40063237004E+01 -0.46787349791E+01  0.20062780068E+00  0.77505768890E+01  0.47000000000E+01 0. -1.
<mgrwt>
<rscale>  2 0.77479798E+01</rscale>
<asrwt>0</asrwt>
<pdfrwt beam="1">  1       21 0.24972344E-02 0.77479798E+01</pdfrwt>
<pdfrwt beam="2">  1       21 0.76914755E-03 0.77479798E+01</pdfrwt>
<totfact> 0.15050245E+09</totfact>
</mgrwt>
</event>
<event>
 4    1  0.3964155E+006  0.5013120E+01  0.7546771E-02  0.2564832E+00
         21   -1    0    0  501  502  0.00000000000E+00  0.00000000000E+00  0.48824653946E-01  0.48824653946E-01  0.00000000000E+00 0.  1.
         21   -1    0    0  502  503 -0.00000000000E+00 -0.00000000000E+00 -0.77885298513E+03  0.77885298513E+03  0.00000000000E+00 0.  1.
          5    1    1    2  501    0 -0.86054261732E+00  0.15168501758E+01 -0.16260861797E+03  0.16268587525E+03  0.47000000000E+01 0.  1.
         -5    1    1    2    0  503  0.86054261732E+00 -0.15168501758E+01 -0.61619554250E+03  0.61621593453E+03  0.47000000000E+01 0.  1.
<mgrwt>
<rscale>  2 0.50131196E+01</rscale>
<asrwt>0</asrwt>
<pdfrwt beam="1">  1       21 0.75110912E-05 0.50131196E+01</pdfrwt>
<pdfrwt beam="2">  1       21 0.11982982E+00 0.50131196E+01</pdfrwt>
<totfact> 0.94176145E+08</totfact>
</mgrwt>
</event>
<event>
 4    1  0.3964155E+006  0.6480668E+01  0.7546771E-02  0.2356769E+00
         21   -1    0    0  503  502  0.00000000000E+00  0.00000000000E+00  0.18531377497E+03  0.18531377497E+03  0.00000000000E+00 0. -1.
         21   -1    0    0  501  503 -0.00000000000E+00 -0.00000000000E+00 -0.22670335044E+00  0.22670335044E+00  0.00000000000E+00 0.  1.
          5    1    1    2  501    0  0.10948185776E+01  0.43255549205E+01  0.90962593184E+02  0.91193159896E+02  0.47000000000E+01 0. -1.
         -5    1    1    2    0  502 -0.10948185776E+01 -0.43255549205E+01  0.94124478438E+02  0.94347318427E+02  0.47000000000E+01 0.  1.
<mgrwt>
<rscale>  2 0.64806676E+01</rscale>
<asrwt>0</asrwt>
<pdfrwt beam="1">  1       21 0.28509690E-01 0.64806676E+01</pdfrwt>
<pdfrwt beam="2">  1       21 0.34877587E-04 0.64806676E+01</pdfrwt>
<totfact> 0.21116296E+09</totfact>
</mgrwt>
</event>
<event>
 4    1  0.3964155E+006  0.7683263E+01  0.7546771E-02  0.2237168E+00
         21   -1    0    0  501  502  0.00000000000E+00  0.00000000000E+00  0.13238891416E+01  0.13238891416E+01  0.00000000000E+00 0. -1.
         21   -1    0    0  502  503 -0.00000000000E+00 -0.00000000000E+00 -0.79004323022E+02  0.79004323022E+02  0.00000000000E+00 0.  1.
          5    1    1    2  501    0  0.32761618544E+01 -0.51195008979E+01 -0.12331981480E+02  0.14529634998E+02  0.47000000000E+01 0. -1.
         -5    1    1    2    0  503 -0.32761618544E+01  0.51195008979E+01 -0.65348452400E+02  0.65798577166E+02  0.47000000000E+01 0.  1.
<mgrwt>
<rscale>  2 0.76832627E+01</rscale>
<asrwt>0</asrwt>
<pdfrwt beam="1">  1       21 0.20367517E-03 0.76832627E+01</pdfrwt>
<pdfrwt beam="2">  1       21 0.12154516E-01 0.76832627E+01</pdfrwt>
<totfact> 0.87207001E+08</totfact>
</mgrwt>
</event>
<event>
 4    1  0.3964155E+006  0.1347671E+02  0.7546771E-02  0.1918455E+00
         21   -1    0    0  501  502  0.00000000000E+00  0.00000000000E+00  0.11490733602E+01  0.11490733602E+01  0.00000000000E+00 0.  1.
         21   -1    0    0  502  503 -0.00000000000E+00 -0.00000000000E+00 -0.25856791497E+03  0.25856791497E+03  0.00000000000E+00 0.  1.
          5    1    1    2  501    0  0.68685233474E+01  0.10599771091E+02 -0.47746785647E+02  0.49612269650E+02  0.47000000000E+01 0.  1.
         -5    1    1    2    0  503 -0.68685233474E+01 -0.10599771091E+02 -0.20967205596E+03  0.21010471868E+03  0.47000000000E+01 0.  1.
<mgrwt>
<rscale>  2 0.13476712E+02</rscale>
<asrwt>0</asrwt>
<pdfrwt beam="1">  1       21 0.17678027E-03 0.13476712E+02</pdfrwt>
<pdfrwt beam="2">  1       21 0.39779736E-01 0.13476712E+02</pdfrwt>
<totfact> 0.18968390E+08</totfact>
</mgrwt>
</event>
<event>
 4    1  0.3964155E+006  0.4796868E+01  0.7546771E-02  0.2604502E+00
         21   -1    0    0  503  502  0.00000000000E+00  0.00000000000E+00  0.41679486748E+00  0.41679486748E+00  0.00000000000E+00 0. -1.
         21   -1    0    0  501  503 -0.00000000000E+00 -0.00000000000E+00 -0.23045192431E+03  0.23045192431E+03  0.00000000000E+00 0. -1.
          5    1    1    2  501    0 -0.52601597418E-01  0.95769050258E+00 -0.21568008965E+03  0.21573342581E+03  0.47000000000E+01 0. -1.
         -5    1    1    2    0  502  0.52601597418E-01 -0.95769050258E+00 -0.14355039788E+02  0.15135293369E+02  0.47000000000E+01 0. -1.
<mgrwt>
<rscale>  2 0.47968675E+01</rscale>
<asrwt>0</asrwt>
<pdfrwt beam="1">  1       21 0.64122314E-04 0.47968675E+01</pdfrwt>
<pdfrwt beam="2">  1       21 0.35454127E-01 0.47968675E+01</pdfrwt>
<totfact> 0.51029609E+08</totfact>
</mgrwt>
</event>
<event>
 4    1  0.3964155E+006  0.5663463E+01  0.7546771E-02  0.2461397E+00
         21   -1    0    0  501  502  0.00000000000E+00  0.00000000000E+00  0.22032179247E+02  0.22032179247E+02  0.00000000000E+00 0. -1.
         21   -1    0    0  502  503 -0.00000000000E+00 -0.00000000000E+00 -0.15798247958E+01  0.15798247958E+01  0.00000000000E+00 0. -1.
          5    1    1    2  501    0  0.29030210184E+01  0.12479126946E+01  0.13533855035E+02  0.14671061626E+02  0.47000000000E+01 0. -1.
         -5    1    1    2    0  503 -0.29030210184E+01 -0.12479126946E+01  0.69184994159E+01  0.89409424165E+01  0.47000000000E+01 0. -1.
<mgrwt>
<rscale>  2 0.56634634E+01</rscale>
<asrwt>0</asrwt>
<pdfrwt beam="1">  1       21 0.33895658E-02 0.56634634E+01</pdfrwt>
<pdfrwt beam="2">  1       21 0.24304998E-03 0.56634634E+01</pdfrwt>
<totfact> 0.37103798E+09</totfact>
</mgrwt>
</event>
<event>
 4    1  0.3964155E+006  0.5686217E+01  0.7546771E-02  0.2458144E+00
         21   -1    0    0  501  502  0.00000000000E+00  0.00000000000E+00  0.10242629977E+03  0.10242629977E+03  0.00000000000E+00 0.  1.
         21   -1    0    0  502  503 -0.00000000000E+00 -0.00000000000E+00 -0.62692254785E+00  0.62692254785E+00  0.00000000000E+00 0. -1.
          5    1    1    2  501    0  0.26953924730E+01  0.17256674698E+01  0.87205823065E+02  0.87391010094E+02  0.47000000000E+01 0.  1.
         -5    1    1    2    0  503 -0.26953924730E+01 -0.17256674698E+01  0.14593554153E+02  0.15662212220E+02  0.47000000000E+01 0. -1.
<mgrwt>
<rscale>  2 0.56862174E+01</rscale>
<asrwt>0</asrwt>
<pdfrwt beam="1">  1       21 0.15757879E-01 0.56862174E+01</pdfrwt>
<pdfrwt beam="2">  1       21 0.96449704E-04 0.56862174E+01</pdfrwt>
<totfact> 0.12798268E+09</totfact>
</mgrwt>
</event>
<event>
 4    1  0.3964155E+006  0.7136211E+01  0.7546771E-02  0.2287477E+00
         21   -1    0    0  501  502  0.00000000000E+00  0.00000000000E+00  0.11314131485E+01  0.11314131485E+01  0.00000000000E+00 0. -1.
         21   -1    0    0  502  503 -0.00000000000E+00 -0.00000000000E+00 -0.49607231057E+02  0.49607231057E+02  0.00000000000E+00 0.  1.
          5    1    1    2  501    0 -0.72100256103E+00 -0.53212460432E+01 -0.16515379836E+02  0.17991199939E+02  0.47000000000E+01 0. -1.
         -5    1    1    2    0  503  0.72100256103E+00  0.53212460432E+01 -0.31960438073E+02  0.32747444266E+02  0.47000000000E+01 0.  1.
<mgrwt>
<rscale>  2 0.71362108E+01</rscale>
<asrwt>0</asrwt>
<pdfrwt beam="1">  1       21 0.17406358E-03 0.71362108E+01</pdfrwt>
<pdfrwt beam="2">  1       21 0.76318809E-02 0.71362108E+01</pdfrwt>
<totfact> 0.21185271E+09</totfact>
</mgrwt>
</event>
<event>
 4    1  0.3964155E+006  0.7024818E+01  0.7546771E-02  0.2298499E+00
         21   -1    0    0  501  502  0.00000000000E+00  0.00000000000E+00  0.12361915818E+02  0.12361915818E+02  0.00000000000E+00 0. -1.
         21   -1    0    0  502  503 -0.00000000000E+00 -0.00000000000E+00 -0.82029551853E+01  0.82029551853E+01  0.00000000000E+00 0. -1.
          5    1    1    2  501    0  0.16356680839E+01  0.49580902262E+01  0.94467073034E+01  0.11772355229E+02  0.47000000000E+01 0. -1.
         -5    1    1    2    0  503 -0.16356680839E+01 -0.49580902262E+01 -0.52877466710E+01  0.87925157736E+01  0.47000000000E+01 0. -1.
<mgrwt>
<rscale>  2 0.70248181E+01</rscale>
<asrwt>0</asrwt>
<pdfrwt beam="1">  1       21 0.19018332E-02 0.70248181E+01</pdfrwt>
<pdfrwt beam="2">  1       21 0.12619931E-02 0.70248181E+01</pdfrwt>
<totfact> 0.10282642E+09</totfact>
</mgrwt>
</event>
<event>
 4    1  0.3964155E+006  0.1319767E+02  0.7546771E-02  0.1928630E+00
         21   -1    0    0  501  502  0.00000000000E+00  0.00000000000E+00  0.53846051182E+03  0.53846051182E+03  0.00000000000E+00 0.  1.
         21   -1    0    0  502  503 -0.00000000000E+00 -0.00000000000E+00 -0.41153916711E+00  0.41153916711E+00  0.00000000000E+00 0. -1.
          5    1    1    2  501    0 -0.12128192122E+02  0.22350332879E+01  0.39366238904E+03  0.39388355508E+03  0.47000000000E+01 0. -1.
         -5    1    1    2    0  503  0.12128192122E+02 -0.22350332879E+01  0.14438658361E+03  0.14498849591E+03  0.47000000000E+01 0. -1.
<mgrwt>
<rscale>  2 0.13197667E+02</rscale>
<asrwt>0</asrwt>
<pdfrwt beam="1">  1       21 0.82839515E-01 0.13197667E+02</pdfrwt>
<pdfrwt beam="2">  1       21 0.63314149E-04 0.13197667E+02</pdfrwt>
<totfact> 0.19091325E+08</totfact>
</mgrwt>
</event>
<event>
 4    1  0.3964155E+006  0.8463968E+01  0.7546771E-02  0.2174635E+00
         21   -1    0    0  501  502  0.00000000000E+00  0.00000000000E+00  0.14726263778E+01  0.14726263778E+01  0.00000000000E+00 0. -1.
         21   -1    0    0  502  503 -0.00000000000E+00 -0.00000000000E+00 -0.88259747197E+02  0.88259747197E+02  0.00000000000E+00 0.  1.
          5    1    1    2  501    0  0.31705018988E+01 -0.62846375555E+01 -0.13335864360E+02  0.15795063460E+02  0.47000000000E+01 0. -1.
         -5    1    1    2    0  503 -0.31705018988E+01  0.62846375555E+01 -0.73451256459E+02  0.73937310114E+02  0.47000000000E+01 0.  1.
<mgrwt>
<rscale>  2 0.84639678E+01</rscale>
<asrwt>0</asrwt>
<pdfrwt beam="1">  1       21 0.22655788E-03 0.84639678E+01</pdfrwt>
<pdfrwt beam="2">  1       21 0.13578424E-01 0.84639678E+01</pdfrwt>
<totfact> 0.67023752E+08</totfact>
</mgrwt>
</event>
<event>
 4    1  0.3964155E+006  0.5991284E+01  0.7546771E-02  0.2416559E+00
         21   -1    0    0  501  502  0.00000000000E+00  0.00000000000E+00  0.35548557155E+02  0.35548557155E+02  0.00000000000E+00 0.  1.
         21   -1    0    0  502  503 -0.00000000000E+00 -0.00000000000E+00 -0.10226191625E+01  0.10226191625E+01  0.00000000000E+00 0.  1.
          5    1    1    2  501    0 -0.35651397043E+01 -0.10465457563E+01  0.15212404257E+02  0.16349700988E+02  0.47000000000E+01 0.  1.
         -5    1    1    2    0  503  0.35651397043E+01  0.10465457563E+01  0.19313533736E+02  0.20221475329E+02  0.47000000000E+01 0.  1.
<mgrwt>
<rscale>  2 0.59912836E+01</rscale>
<asrwt>0</asrwt>
<pdfrwt beam="1">  1       21 0.54690078E-02 0.59912836E+01</pdfrwt>
<pdfrwt beam="2">  1       21 0.15732605E-03 0.59912836E+01</pdfrwt>
<totfact> 0.34869809E+09</totfact>
</mgrwt>
</event>
<event>
 4    1  0.3964155E+006  0.6936999E+01  0.7546771E-02  0.2307392E+00
         21   -1    0    0  503  502  0.00000000000E+00  0.00000000000E+00  0.34053293868E+01  0.34053293868E+01  0.00000000000E+00 0. -1.
         21   -1    0    0  501  503 -0.00000000000E+00 -0.00000000000E+00 -0.26764475366E+02  0.26764475366E+02  0.00000000000E+00 0. -1.
          5    1    1    2  501    0 -0.49856746517E+01  0.10839729103E+01 -0.22043355711E+02  0.23109121143E+02  0.47000000000E+01 0. -1.
         -5    1    1    2    0  502  0.49856746517E+01 -0.10839729103E+01 -0.13157902679E+01  0.70606836094E+01  0.47000000000E+01 0. -1.
<mgrwt>
<rscale>  2 0.69369986E+01</rscale>
<asrwt>0</asrwt>
<pdfrwt beam="1">  1       21 0.52389682E-03 0.69369986E+01</pdfrwt>
<pdfrwt beam="2">  1       21 0.41176117E-02 0.69369986E+01</pdfrwt>
<totfact> 0.11412947E+09</totfact>
</mgrwt>
</event>
<event>
 4    1  0.3964155E+006  0.4999391E+01  0.7546771E-02  0.2567262E+00
         21   -1    0    0  501  502  0.00000000000E+00  0.00000000000E+00  0.26637963366E+00  0.26637963366E+00  0.00000000000E+00 0. -1.
         21   -1    0    0  502  503 -0.00000000000E+00 -0.00000000000E+00 -0.13056131032E+03  0.13056131032E+03  0.00000000000E+00 0. -1.
          5    1    1    2  501    0  0.76598617745E+00  0.15222264985E+01 -0.30450493633E+02  0.30858167004E+02  0.47000000000E+01 0. -1.
         -5    1    1    2    0  503 -0.76598617745E+00 -0.15222264985E+01 -0.99844437054E+02  0.99969522950E+02  0.47000000000E+01 0. -1.
<mgrwt>
<rscale>  2 0.49993908E+01</rscale>
<asrwt>0</asrwt>
<pdfrwt beam="1">  1       21 0.40981416E-04 0.49993908E+01</pdfrwt>
<pdfrwt beam="2">  1       21 0.20086388E-01 0.49993908E+01</pdfrwt>
<totfact> 0.24266298E+09</totfact>
</mgrwt>
</event>
<event>
 4    1  0.3964155E+006  0.8534130E+01  0.7546771E-02  0.2169469E+00
         21   -1    0    0  503  502  0.00000000000E+00  0.00000000000E+00  0.23539687641E+01  0.23539687641E+01  0.00000000000E+00 0. -1.
         21   -1    0    0  501  503 -0.00000000000E+00 -0.00000000000E+00 -0.43487809170E+02  0.43487809170E+02  0.00000000000E+00 0.  1.
          5    1    1    2  501    0  0.59283291494E+01 -0.39492133587E+01 -0.32879094067E+02  0.33968606084E+02  0.47000000000E+01 0.  1.
         -5    1    1    2    0  502 -0.59283291494E+01  0.39492133587E+01 -0.82547463393E+01  0.11873171850E+02  0.47000000000E+01 0. -1.
<mgrwt>
<rscale>  2 0.85341299E+01</rscale>
<asrwt>0</asrwt>
<pdfrwt beam="1">  1       21 0.36214905E-03 0.85341299E+01</pdfrwt>
<pdfrwt beam="2">  1       21 0.66904319E-02 0.85341299E+01</pdfrwt>
<totfact> 0.10613779E+09</totfact>
</mgrwt>
</event>
<event>
 4    1  0.3964155E+006  0.5821295E+01  0.7546771E-02  0.2439279E+00
         21   -1    0    0  501  502  0.00000000000E+00  0.00000000000E+00  0.15703951867E+02  0.15703951867E+02  0.00000000000E+00 0. -1.
         21   -1    0    0  502  503 -0.00000000000E+00 -0.00000000000E+00 -0.22844130982E+01  0.22844130982E+01  0.00000000000E+00 0.  1.
          5    1    1    2  501    0  0.13948604098E+01  0.31387647127E+01  0.88264272846E+01  0.10573234987E+02  0.47000000000E+01 0.  1.
         -5    1    1    2    0  503 -0.13948604098E+01 -0.31387647127E+01  0.45931114845E+01  0.74151299782E+01  0.47000000000E+01 0. -1.
<mgrwt>
<rscale>  2 0.58212953E+01</rscale>
<asrwt>0</asrwt>
<pdfrwt beam="1">  1       21 0.24159925E-02 0.58212953E+01</pdfrwt>
<pdfrwt beam="2">  1       21 0.35144818E-03 0.58212953E+01</pdfrwt>
<totfact> 0.37492867E+09</totfact>
</mgrwt>
</event>
<event>
 4    1  0.3964155E+006  0.1584022E+02  0.7546771E-02  0.1843461E+00
         21   -1    0    0  503  502  0.00000000000E+00  0.00000000000E+00  0.15430832150E+02  0.15430832150E+02  0.00000000000E+00 0. -1.
         21   -1    0    0  501  503 -0.00000000000E+00 -0.00000000000E+00 -0.16260632218E+02  0.16260632218E+02  0.00000000000E+00 0.  1.
          5    1    1    2  501    0 -0.12086990228E+02  0.90954464921E+01 -0.36382626006E+00  0.15844394883E+02  0.47000000000E+01 0.  1.
         -5    1    1    2    0  502  0.12086990228E+02 -0.90954464921E+01 -0.46597380781E+00  0.15847069485E+02  0.47000000000E+01 0. -1.
<mgrwt>
<rscale>  2 0.15840217E+02</rscale>
<asrwt>0</asrwt>
<pdfrwt beam="1">  1       21 0.23739742E-02 0.15840217E+02</pdfrwt>
<pdfrwt beam="2">  1       21 0.25016357E-02 0.15840217E+02</pdfrwt>
<totfact> 0.42362247E+08</totfact>
</mgrwt>
</event>
<event>
 4    1  0.3964155E+006  0.5659468E+01  0.7546771E-02  0.2461970E+00
         21   -1    0    0  501  502  0.00000000000E+00  0.00000000000E+00  0.24717063073E+04  0.24717063073E+04  0.00000000000E+00 0. -1.
         21   -1    0    0  502  503 -0.00000000000E+00 -0.00000000000E+00 -0.13099237625E-01  0.13099237625E-01  0.00000000000E+00 0. -1.
          5    1    1    2  501    0 -0.28398421915E+01 -0.13692607493E+01  0.11077409073E+04  0.11077553644E+04  0.47000000000E+01 0. -1.
         -5    1    1    2    0  503  0.28398421915E+01  0.13692607493E+01  0.13639523008E+04  0.13639640422E+04  0.47000000000E+01 0. -1.
<mgrwt>
<rscale>  2 0.56594681E+01</rscale>
<asrwt>0</asrwt>
<pdfrwt beam="1">  1       21 0.37988932E+00 0.56594681E+01</pdfrwt>
<pdfrwt beam="2">  1       21 0.20172470E-05 0.56594681E+01</pdfrwt>
<totfact> 0.38455883E+08</totfact>
</mgrwt>
</event>
<event>
 4    1  0.3964155E+006  0.9165738E+01  0.7546771E-02  0.2125827E+00
         21   -1    0    0  503  502  0.00000000000E+00  0.00000000000E+00  0.82060689298E+01  0.82060689298E+01  0.00000000000E+00 0. -1.
         21   -1    0    0  501  503 -0.00000000000E+00 -0.00000000000E+00 -0.65193512034E+02  0.65193512034E+02  0.00000000000E+00 0.  1.
          5    1    1    2  501    0  0.71458059708E+01 -0.32951794196E+01 -0.62188954406E+02  0.62860773146E+02  0.47000000000E+01 0.  1.
         -5    1    1    2    0  502 -0.71458059708E+01  0.32951794196E+01  0.52015113025E+01  0.10538807817E+02  0.47000000000E+01 0. -1.
<mgrwt>
<rscale>  2 0.91657379E+01</rscale>
<asrwt>0</asrwt>
<pdfrwt beam="1">  1       21 0.12624721E-02 0.91657379E+01</pdfrwt>
<pdfrwt beam="2">  1       21 0.10029772E-01 0.91657379E+01</pdfrwt>
<totfact> 0.98717907E+07</totfact>
</mgrwt>
</event>
<event>
 4    1  0.3964155E+006  0.4727421E+01  0.7546771E-02  0.2617906E+00
         21   -1    0    0  501  502  0.00000000000E+00  0.00000000000E+00  0.37498129573E+02  0.37498129573E+02  0.00000000000E+00 0. -1.
         21   -1    0    0  502  503 -0.00000000000E+00 -0.00000000000E+00 -0.94247883118E+00  0.94247883118E+00  0.00000000000E+00 0. -1.
          5    1    1    2  501    0  0.45994972747E+00 -0.21669355521E+00  0.29931666182E+02  0.30302692129E+02  0.47000000000E+01 0. -1.
         -5    1    1    2    0  503 -0.45994972747E+00  0.21669355521E+00  0.66239845596E+01  0.81379162747E+01  0.47000000000E+01 0. -1.
<mgrwt>
<rscale>  2 0.47274211E+01</rscale>
<asrwt>0</asrwt>
<pdfrwt beam="1">  1       21 0.57689419E-02 0.47274211E+01</pdfrwt>
<pdfrwt beam="2">  1       21 0.14499677E-03 0.47274211E+01</pdfrwt>
<totfact> 0.28630404E+09</totfact>
</mgrwt>
</event>
<event>
 4    1  0.3964155E+006  0.1440667E+02  0.7546771E-02  0.1886733E+00
         21   -1    0    0  503  502  0.00000000000E+00  0.00000000000E+00  0.21033950757E+01  0.21033950757E+01  0.00000000000E+00 0.  1.
         21   -1    0    0  501  503 -0.00000000000E+00 -0.00000000000E+00 -0.98925024052E+02  0.98925024052E+02  0.00000000000E+00 0. -1.
          5    1    1    2  501    0 -0.10877556599E+02  0.81939474489E+01 -0.45870096961E+02  0.48079286679E+02  0.47000000000E+01 0.  1.
         -5    1    1    2    0  502  0.10877556599E+02 -0.81939474489E+01 -0.50951532015E+02  0.52949132448E+02  0.47000000000E+01 0. -1.
<mgrwt>
<rscale>  2 0.14406666E+02</rscale>
<asrwt>0</asrwt>
<pdfrwt beam="1">  1       21 0.32359928E-03 0.14406666E+02</pdfrwt>
<pdfrwt beam="2">  1       21 0.15219233E-01 0.14406666E+02</pdfrwt>
<totfact> 0.43963725E+08</totfact>
</mgrwt>
</event>
<event>
 4    1  0.3964155E+006  0.4722371E+01  0.7546771E-02  0.2618894E+00
         21   -1    0    0  503  502  0.00000000000E+00  0.00000000000E+00  0.33835287305E+01  0.33835287305E+01  0.00000000000E+00 0.  1.
         21   -1    0    0  501  503 -0.00000000000E+00 -0.00000000000E+00 -0.11232106635E+02  0.11232106635E+02  0.00000000000E+00 0.  1.
          5    1    1    2  501    0 -0.45036046849E+00  0.89250154323E-01 -0.86218077684E+01  0.98303794096E+01  0.47000000000E+01 0.  1.
         -5    1    1    2    0  502  0.45036046849E+00 -0.89250154323E-01  0.77322986377E+00  0.47852559559E+01  0.47000000000E+01 0.  1.
<mgrwt>
<rscale>  2 0.47223712E+01</rscale>
<asrwt>0</asrwt>
<pdfrwt beam="1">  1       21 0.52054289E-03 0.47223712E+01</pdfrwt>
<pdfrwt beam="2">  1       21 0.17280164E-02 0.47223712E+01</pdfrwt>
<totfact> 0.28635194E+09</totfact>
</mgrwt>
</event>
<event>
 4    1  0.3964155E+006  0.5780111E+01  0.7546771E-02  0.2444952E+00
         21   -1    0    0  501  502  0.00000000000E+00  0.00000000000E+00  0.48176709739E+02  0.48176709739E+02  0.00000000000E+00 0.  1.
         21   -1    0    0  502  503 -0.00000000000E+00 -0.00000000000E+00 -0.78629413556E+00  0.78629413556E+00  0.00000000000E+00 0.  1.
          5    1    1    2  501    0 -0.42823203388E-01  0.33642003508E+01  0.15284199184E+02  0.16340637151E+02  0.47000000000E+01 0.  1.
         -5    1    1    2    0  503  0.42823203388E-01 -0.33642003508E+01  0.32106216420E+02  0.32622366723E+02  0.47000000000E+01 0.  1.
<mgrwt>
<rscale>  2 0.57801105E+01</rscale>
<asrwt>0</asrwt>
<pdfrwt beam="1">  1       21 0.74117992E-02 0.57801105E+01</pdfrwt>
<pdfrwt beam="2">  1       21 0.12096837E-03 0.57801105E+01</pdfrwt>
<totfact> 0.30558066E+09</totfact>
</mgrwt>
</event>
<event>
 4    1  0.3964155E+006  0.6669054E+01  0.7546771E-02  0.2335710E+00
         21   -1    0    0  503  502  0.00000000000E+00  0.00000000000E+00  0.24551898648E+01  0.24551898648E+01  0.00000000000E+00 0.  1.
         21   -1    0    0  501  503 -0.00000000000E+00 -0.00000000000E+00 -0.53230901900E+02  0.53230901900E+02  0.00000000000E+00 0. -1.
          5    1    1    2  501    0  0.98825177709E+00 -0.46270550292E+01 -0.48002275625E+02  0.48463334027E+02  0.47000000000E+01 0. -1.
         -5    1    1    2    0  502 -0.98825177709E+00  0.46270550292E+01 -0.27734364099E+01  0.72227577377E+01  0.47000000000E+01 0.  1.
<mgrwt>
<rscale>  2 0.66690539E+01</rscale>
<asrwt>0</asrwt>
<pdfrwt beam="1">  1       21 0.37772154E-03 0.66690539E+01</pdfrwt>
<pdfrwt beam="2">  1       21 0.81893691E-02 0.66690539E+01</pdfrwt>
<totfact> 0.62183399E+08</totfact>
</mgrwt>
</event>
<event>
 4    1  0.3964155E+006  0.5229715E+01  0.7546771E-02  0.2527948E+00
         21   -1    0    0  503  502  0.00000000000E+00  0.00000000000E+00  0.70527370693E+00  0.70527370693E+00  0.00000000000E+00 0. -1.
         21   -1    0    0  501  503 -0.00000000000E+00 -0.00000000000E+00 -0.76308731131E+02  0.76308731131E+02  0.00000000000E+00 0. -1.
          5    1    1    2  501    0  0.16429223534E+01 -0.16002263108E+01 -0.64806433146E+02  0.65017103098E+02  0.47000000000E+01 0. -1.
         -5    1    1    2    0  502 -0.16429223534E+01  0.16002263108E+01 -0.10797024278E+02  0.11996901741E+02  0.47000000000E+01 0. -1.
<mgrwt>
<rscale>  2 0.52297149E+01</rscale>
<asrwt>0</asrwt>
<pdfrwt beam="1">  1       21 0.10850365E-03 0.52297149E+01</pdfrwt>
<pdfrwt beam="2">  1       21 0.11739804E-01 0.52297149E+01</pdfrwt>
<totfact> 0.16066901E+09</totfact>
</mgrwt>
</event>
<event>
 4    1  0.3964155E+006  0.6109898E+01  0.7546771E-02  0.2401336E+00
         21   -1    0    0  503  502  0.00000000000E+00  0.00000000000E+00  0.38077430477E+00  0.38077430477E+00  0.00000000000E+00 0.  1.
         21   -1    0    0  501  503 -0.00000000000E+00 -0.00000000000E+00 -0.13120915060E+03  0.13120915060E+03  0.00000000000E+00 0.  1.
          5    1    1    2  501    0  0.16224567305E+01 -0.35508432433E+01 -0.98495461193E+02  0.98684784689E+02  0.47000000000E+01 0.  1.
         -5    1    1    2    0  502 -0.16224567305E+01  0.35508432433E+01 -0.32332915101E+02  0.32905140214E+02  0.47000000000E+01 0.  1.
<mgrwt>
<rscale>  2 0.61098980E+01</rscale>
<asrwt>0</asrwt>
<pdfrwt beam="1">  1       21 0.58580645E-04 0.61098980E+01</pdfrwt>
<pdfrwt beam="2">  1       21 0.20186029E-01 0.61098980E+01</pdfrwt>
<totfact> 0.17803480E+09</totfact>
</mgrwt>
</event>
<event>
 4    1  0.3964155E+006  0.6483818E+01  0.7546771E-02  0.2356408E+00
         21   -1    0    0  501  502  0.00000000000E+00  0.00000000000E+00  0.59410218865E+03  0.59410218865E+03  0.00000000000E+00 0. -1.
         21   -1    0    0  502  503 -0.00000000000E+00 -0.00000000000E+00 -0.27584751563E+00  0.27584751563E+00  0.00000000000E+00 0. -1.
          5    1    1    2  501    0  0.16364544066E+01  0.41559496520E+01  0.55316421206E+03  0.55320221023E+03  0.47000000000E+01 0. -1.
         -5    1    1    2    0  503 -0.16364544066E+01 -0.41559496520E+01  0.40662129073E+02  0.41175825934E+02  0.47000000000E+01 0. -1.
<mgrwt>
<rscale>  2 0.64838184E+01</rscale>
<asrwt>0</asrwt>
<pdfrwt beam="1">  1       21 0.91399313E-01 0.64838184E+01</pdfrwt>
<pdfrwt beam="2">  1       21 0.42438555E-04 0.64838184E+01</pdfrwt>
<totfact> 0.19354019E+08</totfact>
</mgrwt>
</event>
<event>
 4    1  0.3964155E+006  0.5551477E+01  0.7546771E-02  0.2477732E+00
         21   -1    0    0  501  502  0.00000000000E+00  0.00000000000E+00  0.89890568709E+03  0.89890568709E+03  0.00000000000E+00 0. -1.
         21   -1    0    0  502  503 -0.00000000000E+00 -0.00000000000E+00 -0.44229059229E-01  0.44229059229E-01  0.00000000000E+00 0.  1.
          5    1    1    2  501    0  0.13372122776E+01  0.26345319780E+01  0.66255631556E+03  0.66257957272E+03  0.47000000000E+01 0. -1.
         -5    1    1    2    0  503 -0.13372122776E+01 -0.26345319780E+01  0.23630514247E+03  0.23637034343E+03  0.47000000000E+01 0.  1.
<mgrwt>
<rscale>  2 0.55514769E+01</rscale>
<asrwt>0</asrwt>
<pdfrwt beam="1">  1       21 0.13827855E+00 0.55514769E+01</pdfrwt>
<pdfrwt beam="2">  1       21 0.68051906E-05 0.55514769E+01</pdfrwt>
<totfact> 0.85755178E+08</totfact>
</mgrwt>
</event>
<event>
 4    1  0.3964155E+006  0.1450326E+02  0.7546771E-02  0.1883616E+00
         21   -1    0    0  503  502  0.00000000000E+00  0.00000000000E+00  0.17758849413E+02  0.17758849413E+02  0.00000000000E+00 0.  1.
         21   -1    0    0  501  503 -0.00000000000E+00 -0.00000000000E+00 -0.12390885625E+02  0.12390885625E+02  0.00000000000E+00 0. -1.
          5    1    1    2  501    0 -0.10338797643E+02 -0.90201881615E+01 -0.48161461734E+00  0.14511253695E+02  0.47000000000E+01 0.  1.
         -5    1    1    2    0  502  0.10338797643E+02  0.90201881615E+01  0.58495784059E+01  0.15638481342E+02  0.47000000000E+01 0. -1.
<mgrwt>
<rscale>  2 0.14503259E+02</rscale>
<asrwt>0</asrwt>
<pdfrwt beam="1">  1       21 0.27321307E-02 0.14503259E+02</pdfrwt>
<pdfrwt beam="2">  1       21 0.19062901E-02 0.14503259E+02</pdfrwt>
<totfact> 0.49701583E+08</totfact>
</mgrwt>
</event>
<event>
 4    1  0.3964155E+006  0.4945702E+01  0.7546771E-02  0.2576877E+00
         21   -1    0    0  503  502  0.00000000000E+00  0.00000000000E+00  0.15523091507E+00  0.15523091507E+00  0.00000000000E+00 0. -1.
         21   -1    0    0  501  503 -0.00000000000E+00 -0.00000000000E+00 -0.22407848687E+03  0.22407848687E+03  0.00000000000E+00 0. -1.
          5    1    1    2  501    0 -0.88067562647E+00  0.12626858767E+01 -0.17304240295E+03  0.17311306474E+03  0.47000000000E+01 0. -1.
         -5    1    1    2    0  502  0.88067562647E+00 -0.12626858767E+01 -0.50880853008E+02  0.51120653047E+02  0.47000000000E+01 0. -1.
<mgrwt>
<rscale>  2 0.49457017E+01</rscale>
<asrwt>0</asrwt>
<pdfrwt beam="1">  1       21 0.23881746E-04 0.49457017E+01</pdfrwt>
<pdfrwt beam="2">  1       21 0.34473516E-01 0.49457017E+01</pdfrwt>
<totfact> 0.20303623E+09</totfact>
</mgrwt>
</event>
<event>
 4    1  0.3964155E+006  0.5456603E+01  0.7546771E-02  0.2492014E+00
         21   -1    0    0  501  502  0.00000000000E+00  0.00000000000E+00  0.18190923387E+03  0.18190923387E+03  0.00000000000E+00 0. -1.
         21   -1    0    0  502  503 -0.00000000000E+00 -0.00000000000E+00 -0.47595638211E+00  0.47595638211E+00  0.00000000000E+00 0. -1.
          5    1    1    2  501    0  0.86481548267E+00  0.26337453170E+01  0.16458305549E+03  0.16467348504E+03  0.47000000000E+01 0. -1.
         -5    1    1    2    0  503 -0.86481548267E+00 -0.26337453170E+01  0.16850222003E+02  0.17711705219E+02  0.47000000000E+01 0. -1.
<mgrwt>
<rscale>  2 0.54566034E+01</rscale>
<asrwt>0</asrwt>
<pdfrwt beam="1">  1       21 0.27985980E-01 0.54566034E+01</pdfrwt>
<pdfrwt beam="2">  1       21 0.73224204E-04 0.54566034E+01</pdfrwt>
<totfact> 0.70763059E+08</totfact>
</mgrwt>
</event>
<event>
 4    1  0.3964155E+006  0.5310126E+01  0.7546771E-02  0.2514913E+00
         21   -1    0    0  503  502  0.00000000000E+00  0.00000000000E+00  0.20247445854E+03  0.20247445854E+03  0.00000000000E+00 0.  1.
         21   -1    0    0  501  503 -0.00000000000E+00 -0.00000000000E+00 -0.11318519225E+01  0.11318519225E+01  0.00000000000E+00 0.  1.
          5    1    1    2  501    0  0.17509332014E+01 -0.17440401314E+01  0.53366301372E+01  0.75284171163E+01  0.47000000000E+01 0.  1.
         -5    1    1    2    0  502 -0.17509332014E+01  0.17440401314E+01  0.19600597648E+03  0.19607789335E+03  0.47000000000E+01 0.  1.
<mgrwt>
<rscale>  2 0.53101265E+01</rscale>
<asrwt>0</asrwt>
<pdfrwt beam="1">  1       21 0.31149888E-01 0.53101265E+01</pdfrwt>
<pdfrwt beam="2">  1       21 0.17413123E-03 0.53101265E+01</pdfrwt>
<totfact> 0.18186512E+08</totfact>
</mgrwt>
</event>
<event>
 4    1  0.3964155E+006  0.5572316E+01  0.7546771E-02  0.2474650E+00
         21   -1    0    0  503  502  0.00000000000E+00  0.00000000000E+00  0.35663520052E+01  0.35663520052E+01  0.00000000000E+00 0.  1.
         21   -1    0    0  501  503 -0.00000000000E+00 -0.00000000000E+00 -0.25971319953E+02  0.25971319953E+02  0.00000000000E+00 0.  1.
          5    1    1    2  501    0 -0.28672313978E+01  0.86005114017E+00 -0.23243950022E+02  0.23902550418E+02  0.47000000000E+01 0.  1.
         -5    1    1    2    0  502  0.28672313978E+01 -0.86005114017E+00  0.83898207434E+00  0.56351215403E+01  0.47000000000E+01 0.  1.
<mgrwt>
<rscale>  2 0.55723158E+01</rscale>
<asrwt>0</asrwt>
<pdfrwt beam="1">  1       21 0.54866955E-03 0.55723158E+01</pdfrwt>
<pdfrwt beam="2">  1       21 0.39955876E-02 0.55723158E+01</pdfrwt>
<totfact> 0.94023442E+08</totfact>
</mgrwt>
</event>
<event>
 4    1  0.3964155E+006  0.1334259E+02  0.7546771E-02  0.1923305E+00
         21   -1    0    0  501  502  0.00000000000E+00  0.00000000000E+00  0.81564147383E+00  0.81564147383E+00  0.00000000000E+00 0.  1.
         21   -1    0    0  502  503 -0.00000000000E+00 -0.00000000000E+00 -0.21888115536E+03  0.21888115536E+03  0.00000000000E+00 0.  1.
          5    1    1    2  501    0  0.98374775817E+01  0.76914802163E+01 -0.11486764274E+03  0.11563995928E+03  0.47000000000E+01 0.  1.
         -5    1    1    2    0  503 -0.98374775817E+01 -0.76914802163E+01 -0.10319787114E+03  0.10405683755E+03  0.47000000000E+01 0.  1.
<mgrwt>
<rscale>  2 0.13342595E+02</rscale>
<asrwt>0</asrwt>
<pdfrwt beam="1">  1       21 0.12548330E-03 0.13342595E+02</pdfrwt>
<pdfrwt beam="2">  1       21 0.33674026E-01 0.13342595E+02</pdfrwt>
<totfact> 0.41404163E+08</totfact>
</mgrwt>
</event>
<event>
 4    1  0.3964155E+006  0.7176216E+01  0.7546771E-02  0.2283587E+00
         21   -1    0    0  503  502  0.00000000000E+00  0.00000000000E+00  0.97478807668E+03  0.97478807668E+03  0.00000000000E+00 0. -1.
         21   -1    0    0  501  503 -0.00000000000E+00 -0.00000000000E+00 -0.30553745524E+00  0.30553745524E+00  0.00000000000E+00 0. -1.
          5    1    1    2  501    0  0.31910842967E+00 -0.54135249908E+01  0.43843923134E+02  0.44427330314E+02  0.47000000000E+01 0. -1.
         -5    1    1    2    0  502 -0.31910842967E+00  0.54135249908E+01  0.93063861609E+03  0.93066628382E+03  0.47000000000E+01 0. -1.
<mgrwt>
<rscale>  2 0.71762165E+01</rscale>
<asrwt>0</asrwt>
<pdfrwt beam="1">  1       21 0.14996491E+00 0.71762165E+01</pdfrwt>
<pdfrwt beam="2">  1       21 0.47006543E-04 0.71762165E+01</pdfrwt>
<totfact> 0.63092752E+07</totfact>
</mgrwt>
</event>
<event>
 4    1  0.3964155E+006  0.4842592E+01  0.7546771E-02  0.2595859E+00
         21   -1    0    0  503  502  0.00000000000E+00  0.00000000000E+00  0.35906998295E+01  0.35906998295E+01  0.00000000000E+00 0. -1.
         21   -1    0    0  501  503 -0.00000000000E+00 -0.00000000000E+00 -0.17845782144E+02  0.17845782144E+02  0.00000000000E+00 0. -1.
          5    1    1    2  501    0 -0.11318902304E+01  0.28200197984E+00 -0.15662072490E+02  0.16393633377E+02  0.47000000000E+01 0. -1.
         -5    1    1    2    0  502  0.11318902304E+01 -0.28200197984E+00  0.14069901760E+01  0.50428485963E+01  0.47000000000E+01 0. -1.
<mgrwt>
<rscale>  2 0.48425923E+01</rscale>
<asrwt>0</asrwt>
<pdfrwt beam="1">  1       21 0.55241536E-03 0.48425923E+01</pdfrwt>
<pdfrwt beam="2">  1       21 0.27455049E-02 0.48425923E+01</pdfrwt>
<totfact> 0.14054928E+09</totfact>
</mgrwt>
</event>
<event>
 4    1  0.3964155E+006  0.4742528E+01  0.7546771E-02  0.2614961E+00
         21   -1    0    0  503  502  0.00000000000E+00  0.00000000000E+00  0.84717266444E+03  0.84717266444E+03  0.00000000000E+00 0.  1.
         21   -1    0    0  501  503 -0.00000000000E+00 -0.00000000000E+00 -0.38422919166E-01  0.38422919166E-01  0.00000000000E+00 0.  1.
          5    1    1    2  501    0 -0.43383332098E+00 -0.46191258019E+00  0.18808183798E+03  0.18814162047E+03  0.47000000000E+01 0.  1.
         -5    1    1    2    0  502  0.43383332098E+00  0.46191258019E+00  0.65905240354E+03  0.65906946689E+03  0.47000000000E+01 0.  1.
<mgrwt>
<rscale>  2 0.47425283E+01</rscale>
<asrwt>0</asrwt>
<pdfrwt beam="1">  1       21 0.13031930E+00 0.47425283E+01</pdfrwt>
<pdfrwt beam="2">  1       21 0.59118969E-05 0.47425283E+01</pdfrwt>
<totfact> 0.10441931E+09</totfact>
</mgrwt>
</event>
<event>
 4    1  0.3964155E+006  0.4773046E+01  0.7546771E-02  0.2609062E+00
         21   -1    0    0  501  502  0.00000000000E+00  0.00000000000E+00  0.27990561743E+02  0.27990561743E+02  0.00000000000E+00 0. -1.
         21   -1    0    0  502  503 -0.00000000000E+00 -0.00000000000E+00 -0.11558859718E+01  0.11558859718E+01  0.00000000000E+00 0. -1.
          5    1    1    2  501    0 -0.84983882888E-01 -0.82749241588E+00  0.21344032522E+02  0.21871206877E+02  0.47000000000E+01 0. -1.
         -5    1    1    2    0  503  0.84983882888E-01  0.82749241588E+00  0.54906432493E+01  0.72752408379E+01  0.47000000000E+01 0. -1.
<mgrwt>
<rscale>  2 0.47730458E+01</rscale>
<asrwt>0</asrwt>
<pdfrwt beam="1">  1       21 0.43062398E-02 0.47730458E+01</pdfrwt>
<pdfrwt beam="2">  1       21 0.17782863E-03 0.47730458E+01</pdfrwt>
<totfact> 0.33711233E+09</totfact>
</mgrwt>
</event>
<event>
 4    1  0.3964155E+006  0.4758459E+01  0.7546771E-02  0.2611873E+00
         21   -1    0    0  501  502  0.00000000000E+00  0.00000000000E+00  0.26555664039E+00  0.26555664039E+00  0.00000000000E+00 0.  1.
         21   -1    0    0  502  503 -0.00000000000E+00 -0.00000000000E+00 -0.86014954796E+02  0.86014954796E+02  0.00000000000E+00 0.  1.
          5    1    1    2  501    0 -0.71441261353E+00 -0.20627723899E+00 -0.38848994551E+02  0.39139332050E+02  0.47000000000E+01 0. -1.
         -5    1    1    2    0  503  0.71441261353E+00  0.20627723899E+00 -0.46900403604E+02  0.47141179386E+02  0.47000000000E+01 0. -1.
<mgrwt>
<rscale>  2 0.47584594E+01</rscale>
<asrwt>0</asrwt>
<pdfrwt beam="1">  1       21 0.40854823E-04 0.47584594E+01</pdfrwt>
<pdfrwt beam="2">  1       21 0.13233084E-01 0.47584594E+01</pdfrwt>
<totfact> 0.44508980E+09</totfact>
</mgrwt>
</event>
<event>
 4    1  0.3964155E+006  0.5647198E+01  0.7546771E-02  0.2463735E+00
         21   -1    0    0  503  502  0.00000000000E+00  0.00000000000E+00  0.89938536372E+01  0.89938536372E+01  0.00000000000E+00 0. -1.
         21   -1    0    0  501  503 -0.00000000000E+00 -0.00000000000E+00 -0.36110917276E+01  0.36110917276E+01  0.00000000000E+00 0.  1.
          5    1    1    2  501    0 -0.30894464129E+01  0.50613337952E+00  0.35385236655E+01  0.66642328791E+01  0.47000000000E+01 0.  1.
         -5    1    1    2    0  502  0.30894464129E+01 -0.50613337952E+00  0.18442382441E+01  0.59407124856E+01  0.47000000000E+01 0.  1.
<mgrwt>
<rscale>  2 0.56471984E+01</rscale>
<asrwt>0</asrwt>
<pdfrwt beam="1">  1       21 0.13836698E-02 0.56471984E+01</pdfrwt>
<pdfrwt beam="2">  1       21 0.55555258E-03 0.56471984E+01</pdfrwt>
<totfact> 0.42932410E+09</totfact>
</mgrwt>
</event>
<event>
 4    1  0.3964155E+006  0.6084268E+01  0.7546771E-02  0.2404583E+00
         21   -1    0    0  501  502  0.00000000000E+00  0.00000000000E+00  0.12351395389E+02  0.12351395389E+02  0.00000000000E+00 0. -1.
         21   -1    0    0  502  503 -0.00000000000E+00 -0.00000000000E+00 -0.61624624257E+01  0.61624624257E+01  0.00000000000E+00 0.  1.
          5    1    1    2  501    0 -0.28971700896E+01  0.25563107841E+01  0.97288683238E+01  0.11474719962E+02  0.47000000000E+01 0. -1.
         -5    1    1    2    0  503  0.28971700896E+01 -0.25563107841E+01 -0.35399353602E+01  0.70391378526E+01  0.47000000000E+01 0.  1.
<mgrwt>
<rscale>  2 0.60842682E+01</rscale>
<asrwt>0</asrwt>
<pdfrwt beam="1">  1       21 0.19002147E-02 0.60842682E+01</pdfrwt>
<pdfrwt beam="2">  1       21 0.94807114E-03 0.60842682E+01</pdfrwt>
<totfact> 0.13814940E+09</totfact>
</mgrwt>
</event>
<event>
 4    1  0.3964155E+006  0.1220890E+02  0.7546771E-02  0.1967506E+00
         21   -1    0    0  503  502  0.00000000000E+00  0.00000000000E+00  0.18612880688E+00  0.18612880688E+00  0.00000000000E+00 0.  1.
         21   -1    0    0  501  503 -0.00000000000E+00 -0.00000000000E+00 -0.95505189484E+03  0.95505189484E+03  0.00000000000E+00 0. -1.
          5    1    1    2  501    0 -0.26611348466E+01  0.10949227285E+02 -0.66936317559E+03  0.66947450889E+03  0.47000000000E+01 0. -1.
         -5    1    1    2    0  502  0.26611348466E+01 -0.10949227285E+02 -0.28550259044E+03  0.28576351475E+03  0.47000000000E+01 0.  1.
<mgrwt>
<rscale>  2 0.12208899E+02</rscale>
<asrwt>0</asrwt>
<pdfrwt beam="1">  1       21 0.28635195E-04 0.12208899E+02</pdfrwt>
<pdfrwt beam="2">  1       21 0.14693109E+00 0.12208899E+02</pdfrwt>
<totfact> 0.16082506E+08</totfact>
</mgrwt>
</event>
<event>
 4    1  0.3964155E+006  0.5251234E+01  0.7546771E-02  0.2524426E+00
         21   -1    0    0  501  502  0.00000000000E+00  0.00000000000E+00  0.74964417822E-01  0.74964417822E-01  0.00000000000E+00 0. -1.
         21   -1    0    0  502  503 -0.00000000000E+00 -0.00000000000E+00 -0.22194493969E+04  0.22194493969E+04  0.00000000000E+00 0. -1.
          5    1    1    2  501    0  0.20942726221E+01  0.10485621082E+01 -0.96053317517E+02  0.96196752888E+02  0.47000000000E+01 0. -1.
         -5    1    1    2    0  503 -0.20942726221E+01 -0.10485621082E+01 -0.21233211150E+04  0.21233276084E+04  0.47000000000E+01 0. -1.
<mgrwt>
<rscale>  2 0.52512342E+01</rscale>
<asrwt>0</asrwt>
<pdfrwt beam="1">  1       21 0.11534707E-04 0.52512342E+01</pdfrwt>
<pdfrwt beam="2">  1       21 0.34140285E+00 0.52512342E+01</pdfrwt>
<totfact> 0.50549047E+07</totfact>
</mgrwt>
</event>
<event>
 4    1  0.3964155E+006  0.8591518E+01  0.7546771E-02  0.2165293E+00
         21   -1    0    0  503  502  0.00000000000E+00  0.00000000000E+00  0.82451927199E+02  0.82451927199E+02  0.00000000000E+00 0. -1.
         21   -1    0    0  501  503 -0.00000000000E+00 -0.00000000000E+00 -0.10784124780E+01  0.10784124780E+01  0.00000000000E+00 0.  1.
          5    1    1    2  501    0 -0.16543417502E+00  0.71900497603E+01  0.23473896825E+02  0.24996760114E+02  0.47000000000E+01 0.  1.
         -5    1    1    2    0  502  0.16543417502E+00 -0.71900497603E+01  0.57899617896E+02  0.58533579563E+02  0.47000000000E+01 0. -1.
<mgrwt>
<rscale>  2 0.85915181E+01</rscale>
<asrwt>0</asrwt>
<pdfrwt beam="1">  1       21 0.12684907E-01 0.85915181E+01</pdfrwt>
<pdfrwt beam="2">  1       21 0.16590968E-03 0.85915181E+01</pdfrwt>
<totfact> 0.11617678E+09</totfact>
</mgrwt>
</event>
<event>
 4    1  0.3964155E+006  0.5934957E+01  0.7546771E-02  0.2423967E+00
         21   -1    0    0  503  502  0.00000000000E+00  0.00000000000E+00  0.22816204936E+03  0.22816204936E+03  0.00000000000E+00 0.  1.
         21   -1    0    0  501  503 -0.00000000000E+00 -0.00000000000E+00 -0.25806351140E+00  0.25806351140E+00  0.00000000000E+00 0. -1.
          5    1    1    2  501    0 -0.10205349322E+01  0.34773866874E+01  0.18634479902E+03  0.18643928725E+03  0.47000000000E+01 0.  1.
         -5    1    1    2    0  502  0.10205349322E+01 -0.34773866874E+01  0.41559186830E+02  0.41980825619E+02  0.47000000000E+01 0. -1.
<mgrwt>
<rscale>  2 0.59349566E+01</rscale>
<asrwt>0</asrwt>
<pdfrwt beam="1">  1       21 0.35101692E-01 0.59349566E+01</pdfrwt>
<pdfrwt beam="2">  1       21 0.39702261E-04 0.59349566E+01</pdfrwt>
<totfact> 0.11666152E+09</totfact>
</mgrwt>
</event>
<event>
 4    1  0.3964155E+006  0.7156505E+01  0.7546771E-02  0.2285499E+00
         21   -1    0    0  501  502  0.00000000000E+00  0.00000000000E+00  0.17377812748E+03  0.17377812748E+03  0.00000000000E+00 0.  1.
         21   -1    0    0  502  503 -0.00000000000E+00 -0.00000000000E+00 -0.10415026752E+01  0.10415026752E+01  0.00000000000E+00 0. -1.
          5    1    1    2  501    0  0.51090689642E+01 -0.17386698734E+01  0.16038466460E+03  0.16054424997E+03  0.47000000000E+01 0.  1.
         -5    1    1    2    0  503 -0.51090689642E+01  0.17386698734E+01  0.12351960203E+02  0.14275380187E+02  0.47000000000E+01 0. -1.
<mgrwt>
<rscale>  2 0.71565046E+01</rscale>
<asrwt>0</asrwt>
<pdfrwt beam="1">  1       21 0.26735074E-01 0.71565046E+01</pdfrwt>
<pdfrwt beam="2">  1       21 0.16023132E-03 0.71565046E+01</pdfrwt>
<totfact> 0.32107637E+08</totfact>
</mgrwt>
</event>
<event>
 4    1  0.3964155E+006  0.6893318E+01  0.7546771E-02  0.2311885E+00
         21   -1    0    0  501  502  0.00000000000E+00  0.00000000000E+00  0.25962045781E+02  0.25962045781E+02  0.00000000000E+00 0.  1.
         21   -1    0    0  502  503 -0.00000000000E+00 -0.00000000000E+00 -0.33279800618E+01  0.33279800618E+01  0.00000000000E+00 0. -1.
          5    1    1    2  501    0 -0.65102156642E+00  0.50004000499E+01  0.21141561716E+02  0.22236984092E+02  0.47000000000E+01 0.  1.
         -5    1    1    2    0  503  0.65102156642E+00 -0.50004000499E+01  0.14925040037E+01  0.70530417509E+01  0.47000000000E+01 0. -1.
<mgrwt>
<rscale>  2 0.68933178E+01</rscale>
<asrwt>0</asrwt>
<pdfrwt beam="1">  1       21 0.39941608E-02 0.68933178E+01</pdfrwt>
<pdfrwt beam="2">  1       21 0.51199695E-03 0.68933178E+01</pdfrwt>
<totfact> 0.12273758E+09</totfact>
</mgrwt>
</event>
<event>
 4    1  0.3964155E+006  0.7247945E+01  0.7546771E-02  0.2276700E+00
         21   -1    0    0  501  502  0.00000000000E+00  0.00000000000E+00  0.84175643833E+03  0.84175643833E+03  0.00000000000E+00 0.  1.
         21   -1    0    0  502  503 -0.00000000000E+00 -0.00000000000E+00 -0.71543522569E-01  0.71543522569E-01  0.00000000000E+00 0. -1.
          5    1    1    2  501    0 -0.55128636319E+01 -0.22591891080E+00  0.57124821137E+03  0.57129419015E+03  0.47000000000E+01 0. -1.
         -5    1    1    2    0  503  0.55128636319E+01  0.22591891080E+00  0.27043668344E+03  0.27053379171E+03  0.47000000000E+01 0. -1.
<mgrwt>
<rscale>  2 0.72479449E+01</rscale>
<asrwt>0</asrwt>
<pdfrwt beam="1">  1       21 0.12949306E+00 0.72479449E+01</pdfrwt>
<pdfrwt beam="2">  1       21 0.11007370E-04 0.72479449E+01</pdfrwt>
<totfact> 0.61225339E+08</totfact>
</mgrwt>
</event>
<event>
 4    1  0.3964155E+006  0.4765976E+01  0.7546771E-02  0.2610423E+00
         21   -1    0    0  501  502  0.00000000000E+00  0.00000000000E+00  0.31483864008E+00  0.31483864008E+00  0.00000000000E+00 0.  1.
         21   -1    0    0  502  503 -0.00000000000E+00 -0.00000000000E+00 -0.13817213018E+03  0.13817213018E+03  0.00000000000E+00 0.  1.
          5    1    1    2  501    0  0.20660221379E+00 -0.76278441671E+00 -0.21062906519E+02  0.21595382738E+02  0.47000000000E+01 0.  1.
         -5    1    1    2    0  503 -0.20660221379E+00  0.76278441671E+00 -0.11679438502E+03  0.11689158608E+03  0.47000000000E+01 0.  1.
<mgrwt>
<rscale>  2 0.47659757E+01</rscale>
<asrwt>0</asrwt>
<pdfrwt beam="1">  1       21 0.48436654E-04 0.47659757E+01</pdfrwt>
<pdfrwt beam="2">  1       21 0.21257277E-01 0.47659757E+01</pdfrwt>
<totfact> 0.16980084E+09</totfact>
</mgrwt>
</event>
<event>
 4    1  0.3964155E+006  0.1926922E+02  0.7546771E-02  0.1760264E+00
         21   -1    0    0  503  502  0.00000000000E+00  0.00000000000E+00  0.10719092217E+03  0.10719092217E+03  0.00000000000E+00 0.  1.
         21   -1    0    0  501  503 -0.00000000000E+00 -0.00000000000E+00 -0.34688938884E+01  0.34688938884E+01  0.00000000000E+00 0. -1.
          5    1    1    2  501    0 -0.91328863113E+01 -0.16303475520E+02  0.49770100330E+02  0.53370083504E+02  0.47000000000E+01 0.  1.
         -5    1    1    2    0  502  0.91328863113E+01  0.16303475520E+02  0.53951927952E+02  0.57289732554E+02  0.47000000000E+01 0. -1.
<mgrwt>
<rscale>  2 0.19269222E+02</rscale>
<asrwt>0</asrwt>
<pdfrwt beam="1">  1       21 0.16490909E-01 0.19269222E+02</pdfrwt>
<pdfrwt beam="2">  1       21 0.53367607E-03 0.19269222E+02</pdfrwt>
<totfact> 0.20715171E+08</totfact>
</mgrwt>
</event>
<event>
 4    1  0.3964155E+006  0.5912883E+01  0.7546771E-02  0.2426902E+00
         21   -1    0    0  503  502  0.00000000000E+00  0.00000000000E+00  0.11035553768E+02  0.11035553768E+02  0.00000000000E+00 0. -1.
         21   -1    0    0  501  503 -0.00000000000E+00 -0.00000000000E+00 -0.20147305217E+02  0.20147305217E+02  0.00000000000E+00 0.  1.
          5    1    1    2  501    0  0.20809009226E+01 -0.29226771006E+01 -0.18869038388E+02  0.19773790728E+02  0.47000000000E+01 0.  1.
         -5    1    1    2    0  502 -0.20809009226E+01  0.29226771006E+01  0.97572869390E+01  0.11409068257E+02  0.47000000000E+01 0. -1.
<mgrwt>
<rscale>  2 0.59128834E+01</rscale>
<asrwt>0</asrwt>
<pdfrwt beam="1">  1       21 0.16977775E-02 0.59128834E+01</pdfrwt>
<pdfrwt beam="2">  1       21 0.30995854E-02 0.59128834E+01</pdfrwt>
<totfact> 0.29136386E+08</totfact>
</mgrwt>
</event>
<event>
 4    1  0.3964155E+006  0.6255554E+01  0.7546771E-02  0.2383304E+00
         21   -1    0    0  503  502  0.00000000000E+00  0.00000000000E+00  0.58436782567E+00  0.58436782567E+00  0.00000000000E+00 0.  1.
         21   -1    0    0  501  503 -0.00000000000E+00 -0.00000000000E+00 -0.68512789508E+02  0.68512789508E+02  0.00000000000E+00 0.  1.
          5    1    1    2  501    0 -0.38778366603E+01 -0.14157463964E+01 -0.39157674084E+02  0.39654197694E+02  0.47000000000E+01 0.  1.
         -5    1    1    2    0  502  0.38778366603E+01  0.14157463964E+01 -0.28770747598E+02  0.29442959640E+02  0.47000000000E+01 0.  1.
<mgrwt>
<rscale>  2 0.62555539E+01</rscale>
<asrwt>0</asrwt>
<pdfrwt beam="1">  1       21 0.89902756E-04 0.62555539E+01</pdfrwt>
<pdfrwt beam="2">  1       21 0.10540428E-01 0.62555539E+01</pdfrwt>
<totfact> 0.28499323E+09</totfact>
</mgrwt>
</event>
<event>
 4    1  0.3964155E+006  0.6050833E+01  0.7546771E-02  0.2408854E+00
         21   -1    0    0  503  502  0.00000000000E+00  0.00000000000E+00  0.91316352088E+02  0.91316352088E+02  0.00000000000E+00 0. -1.
         21   -1    0    0  501  503 -0.00000000000E+00 -0.00000000000E+00 -0.62036810002E+00  0.62036810002E+00  0.00000000000E+00 0. -1.
          5    1    1    2  501    0 -0.34829434484E+01  0.15465071620E+01  0.18009269160E+02  0.18998588241E+02  0.47000000000E+01 0. -1.
         -5    1    1    2    0  502  0.34829434484E+01 -0.15465071620E+01  0.72686714828E+02  0.72938131947E+02  0.47000000000E+01 0. -1.
<mgrwt>
<rscale>  2 0.60508330E+01</rscale>
<asrwt>0</asrwt>
<pdfrwt beam="1">  1       21 0.14048659E-01 0.60508330E+01</pdfrwt>
<pdfrwt beam="2">  1       21 0.95441318E-04 0.60508330E+01</pdfrwt>
<totfact> 0.16358581E+09</totfact>
</mgrwt>
</event>
<event>
 4    1  0.3964155E+006  0.5170120E+01  0.7546771E-02  0.2537831E+00
         21   -1    0    0  503  502  0.00000000000E+00  0.00000000000E+00  0.60575395137E+01  0.60575395137E+01  0.00000000000E+00 0.  1.
         21   -1    0    0  501  503 -0.00000000000E+00 -0.00000000000E+00 -0.47730890743E+01  0.47730890743E+01  0.00000000000E+00 0.  1.
          5    1    1    2  501    0  0.14939182830E+01  0.15518872066E+01 -0.84578397570E+00  0.52388449368E+01  0.47000000000E+01 0. -1.
         -5    1    1    2    0  502 -0.14939182830E+01 -0.15518872066E+01  0.21302344152E+01  0.55917836512E+01  0.47000000000E+01 0. -1.
<mgrwt>
<rscale>  2 0.51701205E+01</rscale>
<asrwt>0</asrwt>
<pdfrwt beam="1">  1       21 0.93192916E-03 0.51701205E+01</pdfrwt>
<pdfrwt beam="2">  1       21 0.73432139E-03 0.51701205E+01</pdfrwt>
<totfact> 0.46552866E+09</totfact>
</mgrwt>
</event>
<event>
 4    1  0.3964155E+006  0.4726649E+01  0.7546771E-02  0.2618057E+00
         21   -1    0    0  503  502  0.00000000000E+00  0.00000000000E+00  0.37998480938E+00  0.37998480938E+00  0.00000000000E+00 0. -1.
         21   -1    0    0  501  503 -0.00000000000E+00 -0.00000000000E+00 -0.89424922561E+02  0.89424922561E+02  0.00000000000E+00 0. -1.
          5    1    1    2  501    0  0.17053934153E+00 -0.47130051875E+00 -0.70801764374E+02  0.70959361935E+02  0.47000000000E+01 0. -1.
         -5    1    1    2    0  502 -0.17053934153E+00  0.47130051875E+00 -0.18243173378E+02  0.18845545435E+02  0.47000000000E+01 0. -1.
<mgrwt>
<rscale>  2 0.47266487E+01</rscale>
<asrwt>0</asrwt>
<pdfrwt beam="1">  1       21 0.58459149E-04 0.47266487E+01</pdfrwt>
<pdfrwt beam="2">  1       21 0.13757693E-01 0.47266487E+01</pdfrwt>
<totfact> 0.25941143E+09</totfact>
</mgrwt>
</event>
<event>
 4    1  0.3964155E+006  0.5292567E+01  0.7546771E-02  0.2517730E+00
         21   -1    0    0  503  502  0.00000000000E+00  0.00000000000E+00  0.46420272101E+01  0.46420272101E+01  0.00000000000E+00 0. -1.
         21   -1    0    0  501  503 -0.00000000000E+00 -0.00000000000E+00 -0.63273656194E+01  0.63273656194E+01  0.00000000000E+00 0. -1.
          5    1    1    2  501    0  0.22967568841E+01 -0.80385082827E+00 -0.20231044077E+01  0.56660585757E+01  0.47000000000E+01 0. -1.
         -5    1    1    2    0  502 -0.22967568841E+01  0.80385082827E+00  0.33776599828E+00  0.53033342539E+01  0.47000000000E+01 0. -1.
<mgrwt>
<rscale>  2 0.52925673E+01</rscale>
<asrwt>0</asrwt>
<pdfrwt beam="1">  1       21 0.71415804E-03 0.52925673E+01</pdfrwt>
<pdfrwt beam="2">  1       21 0.97344086E-03 0.52925673E+01</pdfrwt>
<totfact> 0.46644294E+09</totfact>
</mgrwt>
</event>
<event>
 4    1  0.3964155E+006  0.6092929E+01  0.7546771E-02  0.2403483E+00
         21   -1    0    0  501  502  0.00000000000E+00  0.00000000000E+00  0.88023717247E+03  0.88023717247E+03  0.00000000000E+00 0.  1.
         21   -1    0    0  502  503 -0.00000000000E+00 -0.00000000000E+00 -0.15089955414E+00  0.15089955414E+00  0.00000000000E+00 0.  1.
          5    1    1    2  501    0 -0.72766993207E+00  0.38084482621E+01  0.81369271365E+03  0.81371552525E+03  0.47000000000E+01 0.  1.
         -5    1    1    2    0  503  0.72766993207E+00 -0.38084482621E+01  0.66393559267E+02  0.66672546778E+02  0.47000000000E+01 0.  1.
<mgrwt>
<rscale>  2 0.60929288E+01</rscale>
<asrwt>0</asrwt>
<pdfrwt beam="1">  1       21 0.13541699E+00 0.60929288E+01</pdfrwt>
<pdfrwt beam="2">  1       21 0.23216021E-04 0.60929288E+01</pdfrwt>
<totfact> 0.18558172E+08</totfact>
</mgrwt>
</event>
<event>
 4    1  0.3964155E+006  0.7742660E+01  0.7546771E-02  0.2232055E+00
         21   -1    0    0  501  502  0.00000000000E+00  0.00000000000E+00  0.58400791252E+01  0.58400791252E+01  0.00000000000E+00 0. -1.
         21   -1    0    0  502  503 -0.00000000000E+00 -0.00000000000E+00 -0.35190654572E+02  0.35190654572E+02  0.00000000000E+00 0.  1.
          5    1    1    2  501    0 -0.10937856658E+01 -0.60549500716E+01  0.25905772829E+01  0.81645500862E+01  0.47000000000E+01 0. -1.
         -5    1    1    2    0  503  0.10937856658E+01  0.60549500716E+01 -0.31941152730E+02  0.32866183611E+02  0.47000000000E+01 0.  1.
<mgrwt>
<rscale>  2 0.77426602E+01</rscale>
<asrwt>0</asrwt>
<pdfrwt beam="1">  1       21 0.89847372E-03 0.77426602E+01</pdfrwt>
<pdfrwt beam="2">  1       21 0.54139468E-02 0.77426602E+01</pdfrwt>
<totfact> 0.38056564E+08</totfact>
</mgrwt>
</event>
<event>
 4    1  0.3964155E+006  0.5205818E+01  0.7546771E-02  0.2531888E+00
         21   -1    0    0  501  502  0.00000000000E+00  0.00000000000E+00  0.67620975883E-01  0.67620975883E-01  0.00000000000E+00 0.  1.
         21   -1    0    0  502  503 -0.00000000000E+00 -0.00000000000E+00 -0.16485058167E+04  0.16485058167E+04  0.00000000000E+00 0.  1.
          5    1    1    2  501    0 -0.66677218844E-01 -0.22374315970E+01 -0.10709526477E+03  0.10722171553E+03  0.47000000000E+01 0.  1.
         -5    1    1    2    0  503  0.66677218844E-01  0.22374315970E+01 -0.15413429309E+04  0.15413517221E+04  0.47000000000E+01 0.  1.
<mgrwt>
<rscale>  2 0.52058185E+01</rscale>
<asrwt>0</asrwt>
<pdfrwt beam="1">  1       21 0.10402918E-04 0.52058185E+01</pdfrwt>
<pdfrwt beam="2">  1       21 0.25362382E+00 0.52058185E+01</pdfrwt>
<totfact> 0.12405823E+08</totfact>
</mgrwt>
</event>
<event>
 4    1  0.3964155E+006  0.7538696E+01  0.7546771E-02  0.2249884E+00
         21   -1    0    0  503  502  0.00000000000E+00  0.00000000000E+00  0.15977778115E+02  0.15977778115E+02  0.00000000000E+00 0.  1.
         21   -1    0    0  501  503 -0.00000000000E+00 -0.00000000000E+00 -0.42058049429E+01  0.42058049429E+01  0.00000000000E+00 0. -1.
          5    1    1    2  501    0  0.42334491744E+01 -0.41012010370E+01  0.19220925159E+01  0.77798702751E+01  0.47000000000E+01 0. -1.
         -5    1    1    2    0  502 -0.42334491744E+01  0.41012010370E+01  0.98498806561E+01  0.12403712783E+02  0.47000000000E+01 0.  1.
<mgrwt>
<rscale>  2 0.75386963E+01</rscale>
<asrwt>0</asrwt>
<pdfrwt beam="1">  1       21 0.24581197E-02 0.75386963E+01</pdfrwt>
<pdfrwt beam="2">  1       21 0.64704693E-03 0.75386963E+01</pdfrwt>
<totfact> 0.19295178E+09</totfact>
</mgrwt>
</event>
<event>
 4    1  0.3964155E+006  0.1149350E+02  0.7546771E-02  0.1998787E+00
         21   -1    0    0  503  502  0.00000000000E+00  0.00000000000E+00  0.33313947898E+00  0.33313947898E+00  0.00000000000E+00 0. -1.
         21   -1    0    0  501  503 -0.00000000000E+00 -0.00000000000E+00 -0.41521740412E+03  0.41521740412E+03  0.00000000000E+00 0.  1.
          5    1    1    2  501    0  0.87045612195E+01 -0.58515910896E+01 -0.25151851266E+03  0.25178098164E+03  0.47000000000E+01 0.  1.
         -5    1    1    2    0  502 -0.87045612195E+01  0.58515910896E+01 -0.16336575198E+03  0.16376956196E+03  0.47000000000E+01 0. -1.
<mgrwt>
<rscale>  2 0.11493498E+02</rscale>
<asrwt>0</asrwt>
<pdfrwt beam="1">  1       21 0.51252217E-04 0.11493498E+02</pdfrwt>
<pdfrwt beam="2">  1       21 0.63879613E-01 0.11493498E+02</pdfrwt>
<totfact> 0.40671017E+08</totfact>
</mgrwt>
</event>
<event>
 4    1  0.3964155E+006  0.6718760E+01  0.7546771E-02  0.2330316E+00
         21   -1    0    0  503  502  0.00000000000E+00  0.00000000000E+00  0.56647048326E+02  0.56647048326E+02  0.00000000000E+00 0. -1.
         21   -1    0    0  501  503 -0.00000000000E+00 -0.00000000000E+00 -0.11286051041E+01  0.11286051041E+01  0.00000000000E+00 0. -1.
          5    1    1    2  501    0  0.45499852488E+01  0.15327675194E+01  0.12098084103E+02  0.13838546925E+02  0.47000000000E+01 0. -1.
         -5    1    1    2    0  502 -0.45499852488E+01 -0.15327675194E+01  0.43420359118E+02  0.43937106505E+02  0.47000000000E+01 0. -1.
<mgrwt>
<rscale>  2 0.67187605E+01</rscale>
<asrwt>0</asrwt>
<pdfrwt beam="1">  1       21 0.87149283E-02 0.67187605E+01</pdfrwt>
<pdfrwt beam="2">  1       21 0.17363160E-03 0.67187605E+01</pdfrwt>
<totfact> 0.16576092E+09</totfact>
</mgrwt>
</event>
<event>
 4    1  0.3964155E+006  0.5249142E+01  0.7546771E-02  0.2524767E+00
         21   -1    0    0  501  502  0.00000000000E+00  0.00000000000E+00  0.51389751674E+01  0.51389751674E+01  0.00000000000E+00 0.  1.
         21   -1    0    0  502  503 -0.00000000000E+00 -0.00000000000E+00 -0.80051542372E+01  0.80051542372E+01  0.00000000000E+00 0.  1.
          5    1    1    2  501    0  0.22927716140E+01  0.45463393959E+00  0.23435476574E+01  0.57485397551E+01  0.47000000000E+01 0.  1.
         -5    1    1    2    0  503 -0.22927716140E+01 -0.45463393959E+00 -0.52097267272E+01  0.73955896496E+01  0.47000000000E+01 0.  1.
<mgrwt>
<rscale>  2 0.52491422E+01</rscale>
<asrwt>0</asrwt>
<pdfrwt beam="1">  1       21 0.79061157E-03 0.52491422E+01</pdfrwt>
<pdfrwt beam="2">  1       21 0.12315622E-02 0.52491422E+01</pdfrwt>
<totfact> 0.28874363E+09</totfact>
</mgrwt>
</event>
<event>
 4    1  0.3964155E+006  0.5862800E+01  0.7546771E-02  0.2433630E+00
         21   -1    0    0  503  502  0.00000000000E+00  0.00000000000E+00  0.32461023598E-01  0.32461023598E-01  0.00000000000E+00 0.  1.
         21   -1    0    0  501  503 -0.00000000000E+00 -0.00000000000E+00 -0.18226290389E+04  0.18226290389E+04  0.00000000000E+00 0. -1.
          5    1    1    2  501    0  0.32775863588E+01  0.12409057946E+01 -0.15012295687E+04  0.15012410167E+04  0.47000000000E+01 0. -1.
         -5    1    1    2    0  502 -0.32775863588E+01 -0.12409057946E+01 -0.32136700918E+03  0.32142048318E+03  0.47000000000E+01 0.  1.
<mgrwt>
<rscale>  2 0.58627996E+01</rscale>
<asrwt>0</asrwt>
<pdfrwt beam="1">  1       21 0.49933322E-05 0.58627996E+01</pdfrwt>
<pdfrwt beam="2">  1       21 0.28044217E+00 0.58627996E+01</pdfrwt>
<totfact> 0.27608527E+08</totfact>
</mgrwt>
</event>
<event>
 4    1  0.3964155E+006  0.4706189E+01  0.7546771E-02  0.2622073E+00
         21   -1    0    0  501  502  0.00000000000E+00  0.00000000000E+00  0.33139677369E+02  0.33139677369E+02  0.00000000000E+00 0.  1.
         21   -1    0    0  502  503 -0.00000000000E+00 -0.00000000000E+00 -0.68925904977E+00  0.68925904977E+00  0.00000000000E+00 0.  1.
          5    1    1    2  501    0  0.13721114382E-01  0.24088866981E+00  0.13277737228E+02  0.14087104795E+02  0.47000000000E+01 0. -1.
         -5    1    1    2    0  503 -0.13721114382E-01 -0.24088866981E+00  0.19172681091E+02  0.19741831623E+02  0.47000000000E+01 0. -1.
<mgrwt>
<rscale>  2 0.47061891E+01</rscale>
<asrwt>0</asrwt>
<pdfrwt beam="1">  1       21 0.50984107E-02 0.47061891E+01</pdfrwt>
<pdfrwt beam="2">  1       21 0.10603988E-03 0.47061891E+01</pdfrwt>
<totfact> 0.51704167E+09</totfact>
</mgrwt>
</event>
<event>
 4    1  0.3964155E+006  0.5023003E+01  0.7546771E-02  0.2563089E+00
         21   -1    0    0  501  502  0.00000000000E+00  0.00000000000E+00  0.20567701885E+01  0.20567701885E+01  0.00000000000E+00 0.  1.
         21   -1    0    0  502  503 -0.00000000000E+00 -0.00000000000E+00 -0.14451658794E+02  0.14451658794E+02  0.00000000000E+00 0.  1.
          5    1    1    2  501    0  0.12513625850E+01  0.12548515313E+01 -0.29882135964E+01  0.58446540687E+01  0.47000000000E+01 0.  1.
         -5    1    1    2    0  503 -0.12513625850E+01 -0.12548515313E+01 -0.94066750089E+01  0.10663774914E+02  0.47000000000E+01 0.  1.
<mgrwt>
<rscale>  2 0.50230032E+01</rscale>
<asrwt>0</asrwt>
<pdfrwt beam="1">  1       21 0.31642620E-03 0.50230032E+01</pdfrwt>
<pdfrwt beam="2">  1       21 0.22233320E-02 0.50230032E+01</pdfrwt>
<totfact> 0.42201541E+09</totfact>
</mgrwt>
</event>
<event>
 4    1  0.3964155E+006  0.8416575E+01  0.7546771E-02  0.2178164E+00
         21   -1    0    0  501  502  0.00000000000E+00  0.00000000000E+00  0.34692791328E+00  0.34692791328E+00  0.00000000000E+00 0. -1.
         21   -1    0    0  502  503 -0.00000000000E+00 -0.00000000000E+00 -0.49806443205E+03  0.49806443205E+03  0.00000000000E+00 0.  1.
          5    1    1    2  501    0  0.22098890675E+00  0.69785311780E+01 -0.57434442279E+02  0.58047858646E+02  0.47000000000E+01 0. -1.
         -5    1    1    2    0  503 -0.22098890675E+00 -0.69785311780E+01 -0.44028306186E+03  0.44036350132E+03  0.47000000000E+01 0.  1.
<mgrwt>
<rscale>  2 0.84165749E+01</rscale>
<asrwt>0</asrwt>
<pdfrwt beam="1">  1       21 0.53373688E-04 0.84165749E+01</pdfrwt>
<pdfrwt beam="2">  1       21 0.76625064E-01 0.84165749E+01</pdfrwt>
<totfact> 0.23247466E+08</totfact>
</mgrwt>
</event>
<event>
 4    1  0.3964155E+006  0.5504349E+01  0.7546771E-02  0.2484774E+00
         21   -1    0    0  501  502  0.00000000000E+00  0.00000000000E+00  0.84485327947E+02  0.84485327947E+02  0.00000000000E+00 0. -1.
         21   -1    0    0  502  503 -0.00000000000E+00 -0.00000000000E+00 -0.38905943109E+00  0.38905943109E+00  0.00000000000E+00 0.  1.
          5    1    1    2  501    0  0.15412005915E+01 -0.24150697938E+01  0.53918920567E+02  0.54199149961E+02  0.47000000000E+01 0.  1.
         -5    1    1    2    0  503 -0.15412005915E+01  0.24150697938E+01  0.30177347949E+02  0.30675237417E+02  0.47000000000E+01 0.  1.
<mgrwt>
<rscale>  2 0.55043493E+01</rscale>
<asrwt>0</asrwt>
<pdfrwt beam="1">  1       21 0.12997728E-01 0.55043493E+01</pdfrwt>
<pdfrwt beam="2">  1       21 0.59855364E-04 0.55043493E+01</pdfrwt>
<totfact> 0.31793121E+09</totfact>
</mgrwt>
</event>
<event>
 4    1  0.3964155E+006  0.8369170E+01  0.7546771E-02  0.2181726E+00
         21   -1    0    0  503  502  0.00000000000E+00  0.00000000000E+00  0.48353492362E+03  0.48353492362E+03  0.00000000000E+00 0.  1.
         21   -1    0    0  501  503 -0.00000000000E+00 -0.00000000000E+00 -0.15681324261E+00  0.15681324261E+00  0.00000000000E+00 0. -1.
          5    1    1    2  501    0  0.45292338473E+01 -0.52382298561E+01  0.17490697281E+03  0.17510708766E+03  0.47000000000E+01 0.  1.
         -5    1    1    2    0  502 -0.45292338473E+01  0.52382298561E+01  0.30847113757E+03  0.30858464920E+03  0.47000000000E+01 0.  1.
<mgrwt>
<rscale>  2 0.83691703E+01</rscale>
<asrwt>0</asrwt>
<pdfrwt beam="1">  1       21 0.74388795E-01 0.83691703E+01</pdfrwt>
<pdfrwt beam="2">  1       21 0.24125501E-04 0.83691703E+01</pdfrwt>
<totfact> 0.72054259E+08</totfact>
</mgrwt>
</event>
<event>
 4    1  0.3964155E+006  0.6426968E+01  0.7546771E-02  0.2362958E+00
         21   -1    0    0  501  502  0.00000000000E+00  0.00000000000E+00  0.18947694944E+02  0.18947694944E+02  0.00000000000E+00 0.  1.
         21   -1    0    0  502  503 -0.00000000000E+00 -0.00000000000E+00 -0.38244184465E+01  0.38244184465E+01  0.00000000000E+00 0.  1.
          5    1    1    2  501    0  0.42822181748E+01 -0.93729367409E+00  0.15027797503E+02  0.16344436659E+02  0.47000000000E+01 0.  1.
         -5    1    1    2    0  503 -0.42822181748E+01  0.93729367409E+00  0.95478995242E-01  0.64276767317E+01  0.47000000000E+01 0.  1.
<mgrwt>
<rscale>  2 0.64269676E+01</rscale>
<asrwt>0</asrwt>
<pdfrwt beam="1">  1       21 0.29150299E-02 0.64269676E+01</pdfrwt>
<pdfrwt beam="2">  1       21 0.58837208E-03 0.64269676E+01</pdfrwt>
<totfact> 0.15211781E+09</totfact>
</mgrwt>
</event>
<event>
 4    1  0.3964155E+006  0.1190951E+02  0.7546771E-02  0.1980244E+00
         21   -1    0    0  501  502  0.00000000000E+00  0.00000000000E+00  0.96619704711E+00  0.96619704711E+00  0.00000000000E+00 0. -1.
         21   -1    0    0  502  503 -0.00000000000E+00 -0.00000000000E+00 -0.15786140187E+03  0.15786140187E+03  0.00000000000E+00 0. -1.
          5    1    1    2  501    0  0.96695349984E+01 -0.51231250937E+01 -0.57424747033E+02  0.58646721047E+02  0.47000000000E+01 0. -1.
         -5    1    1    2    0  503 -0.96695349984E+01  0.51231250937E+01 -0.99470457791E+02  0.10018087787E+03  0.47000000000E+01 0. -1.
<mgrwt>
<rscale>  2 0.11909505E+02</rscale>
<asrwt>0</asrwt>
<pdfrwt beam="1">  1       21 0.14864575E-03 0.11909505E+02</pdfrwt>
<pdfrwt beam="2">  1       21 0.24286362E-01 0.11909505E+02</pdfrwt>
<totfact> 0.55148019E+08</totfact>
</mgrwt>
</event>
<event>
 4    1  0.3964155E+006  0.1644549E+02  0.7546771E-02  0.1826916E+00
         21   -1    0    0  501  502  0.00000000000E+00  0.00000000000E+00  0.52914932996E+02  0.52914932996E+02  0.00000000000E+00 0.  1.
         21   -1    0    0  502  503 -0.00000000000E+00 -0.00000000000E+00 -0.54101861817E+01  0.54101861817E+01  0.00000000000E+00 0. -1.
          5    1    1    2  501    0 -0.12402565294E+02  0.97231991893E+01  0.30608959079E+02  0.34747123683E+02  0.47000000000E+01 0. -1.
         -5    1    1    2    0  503  0.12402565294E+02 -0.97231991893E+01  0.16895787735E+02  0.23577995495E+02  0.47000000000E+01 0.  1.
<mgrwt>
<rscale>  2 0.16445493E+02</rscale>
<asrwt>0</asrwt>
<pdfrwt beam="1">  1       21 0.81407586E-02 0.16445493E+02</pdfrwt>
<pdfrwt beam="2">  1       21 0.83233637E-03 0.16445493E+02</pdfrwt>
<totfact> 0.32679366E+08</totfact>
</mgrwt>
</event>
<event>
 4    1  0.3964155E+006  0.5601745E+01  0.7546771E-02  0.2470331E+00
         21   -1    0    0  501  502  0.00000000000E+00  0.00000000000E+00  0.44604493815E+00  0.44604493815E+00  0.00000000000E+00 0.  1.
         21   -1    0    0  502  503 -0.00000000000E+00 -0.00000000000E+00 -0.80334321613E+02  0.80334321613E+02  0.00000000000E+00 0. -1.
          5    1    1    2  501    0  0.29635708464E+00  0.30334336594E+01 -0.25705429828E+02  0.26308718515E+02  0.47000000000E+01 0.  1.
         -5    1    1    2    0  503 -0.29635708464E+00 -0.30334336594E+01 -0.54182846847E+02  0.54471648036E+02  0.47000000000E+01 0. -1.
<mgrwt>
<rscale>  2 0.56017450E+01</rscale>
<asrwt>0</asrwt>
<pdfrwt beam="1">  1       21 0.68622307E-04 0.56017450E+01</pdfrwt>
<pdfrwt beam="2">  1       21 0.12359125E-01 0.56017450E+01</pdfrwt>
<totfact> 0.29101766E+09</totfact>
</mgrwt>
</event>
<event>
 4    1  0.3964155E+006  0.1244025E+02  0.7546771E-02  0.1957987E+00
         21   -1    0    0  501  502  0.00000000000E+00  0.00000000000E+00  0.15650020723E+01  0.15650020723E+01  0.00000000000E+00 0. -1.
         21   -1    0    0  502  503 -0.00000000000E+00 -0.00000000000E+00 -0.26591601199E+03  0.26591601199E+03  0.00000000000E+00 0.  1.
          5    1    1    2  501    0 -0.23648186328E+01 -0.11272864338E+02 -0.26180487798E+02  0.28985820308E+02  0.47000000000E+01 0. -1.
         -5    1    1    2    0  503  0.23648186328E+01  0.11272864338E+02 -0.23817052212E+03  0.23849519375E+03  0.47000000000E+01 0.  1.
<mgrwt>
<rscale>  2 0.12440251E+02</rscale>
<asrwt>0</asrwt>
<pdfrwt beam="1">  1       21 0.24076965E-03 0.12440251E+02</pdfrwt>
<pdfrwt beam="2">  1       21 0.40910138E-01 0.12440251E+02</pdfrwt>
<totfact> 0.11288224E+08</totfact>
</mgrwt>
</event>
<event>
 4    1  0.3964155E+006  0.5917276E+01  0.7546771E-02  0.2426316E+00
         21   -1    0    0  503  502  0.00000000000E+00  0.00000000000E+00  0.48591932837E+00  0.48591932837E+00  0.00000000000E+00 0.  1.
         21   -1    0    0  501  503 -0.00000000000E+00 -0.00000000000E+00 -0.81262201015E+02  0.81262201015E+02  0.00000000000E+00 0. -1.
          5    1    1    2  501    0 -0.35858616101E+01 -0.25643217165E+00 -0.54144608376E+02  0.54466987957E+02  0.47000000000E+01 0.  1.
         -5    1    1    2    0  502  0.35858616101E+01  0.25643217165E+00 -0.26631673311E+02  0.27281132386E+02  0.47000000000E+01 0.  1.
<mgrwt>
<rscale>  2 0.59172765E+01</rscale>
<asrwt>0</asrwt>
<pdfrwt beam="1">  1       21 0.74756888E-04 0.59172765E+01</pdfrwt>
<pdfrwt beam="2">  1       21 0.12501866E-01 0.59172765E+01</pdfrwt>
<totfact> 0.26740193E+09</totfact>
</mgrwt>
</event>
<event>
 4    1  0.3964155E+006  0.8278970E+01  0.7546771E-02  0.2188593E+00
         21   -1    0    0  503  502  0.00000000000E+00  0.00000000000E+00  0.68176479258E+02  0.68176479258E+02  0.00000000000E+00 0. -1.
         21   -1    0    0  501  503 -0.00000000000E+00 -0.00000000000E+00 -0.22531197763E+01  0.22531197763E+01  0.00000000000E+00 0.  1.
          5    1    1    2  501    0 -0.64381768123E+01 -0.22363422982E+01  0.67557245206E+01  0.10685558541E+02  0.47000000000E+01 0.  1.
         -5    1    1    2    0  502  0.64381768123E+01  0.22363422982E+01  0.59167634961E+02  0.59744040493E+02  0.47000000000E+01 0. -1.
<mgrwt>
<rscale>  2 0.82789702E+01</rscale>
<asrwt>0</asrwt>
<pdfrwt beam="1">  1       21 0.10488688E-01 0.82789702E+01</pdfrwt>
<pdfrwt beam="2">  1       21 0.34663386E-03 0.82789702E+01</pdfrwt>
<totfact> 0.55045075E+08</totfact>
</mgrwt>
</event>
<event>
 4    1  0.3964155E+006  0.5674077E+01  0.7546771E-02  0.2459877E+00
         21   -1    0    0  503  502  0.00000000000E+00  0.00000000000E+00  0.50035055026E+02  0.50035055026E+02  0.00000000000E+00 0. -1.
         21   -1    0    0  501  503 -0.00000000000E+00 -0.00000000000E+00 -0.12278085354E+01  0.12278085354E+01  0.00000000000E+00 0. -1.
          5    1    1    2  501    0  0.76564944768E+00  0.30852759409E+01  0.67210051977E+01  0.87958545677E+01  0.47000000000E+01 0. -1.
         -5    1    1    2    0  502 -0.76564944768E+00 -0.30852759409E+01  0.42086241293E+02  0.42467008994E+02  0.47000000000E+01 0. -1.
<mgrwt>
<rscale>  2 0.56740767E+01</rscale>
<asrwt>0</asrwt>
<pdfrwt beam="1">  1       21 0.76976992E-02 0.56740767E+01</pdfrwt>
<pdfrwt beam="2">  1       21 0.18889366E-03 0.56740767E+01</pdfrwt>
<totfact> 0.15567389E+09</totfact>
</mgrwt>
</event>
<event>
 4    1  0.3964155E+006  0.6339723E+01  0.7546771E-02  0.2373200E+00
         21   -1    0    0  501  502  0.00000000000E+00  0.00000000000E+00  0.91923092326E+01  0.91923092326E+01  0.00000000000E+00 0.  1.
         21   -1    0    0  502  503 -0.00000000000E+00 -0.00000000000E+00 -0.66531896313E+01  0.66531896313E+01  0.00000000000E+00 0. -1.
          5    1    1    2  501    0 -0.74403023297E+00 -0.41890931449E+01  0.59083787496E+01  0.86660845722E+01  0.47000000000E+01 0. -1.
         -5    1    1    2    0  503  0.74403023297E+00  0.41890931449E+01 -0.33692591483E+01  0.71794142917E+01  0.47000000000E+01 0. -1.
<mgrwt>
<rscale>  2 0.63397226E+01</rscale>
<asrwt>0</asrwt>
<pdfrwt beam="1">  1       21 0.14142014E-02 0.63397226E+01</pdfrwt>
<pdfrwt beam="2">  1       21 0.10235676E-02 0.63397226E+01</pdfrwt>
<totfact> 0.19585994E+09</totfact>
</mgrwt>
</event>
<event>
 4    1  0.3964155E+006  0.5186224E+01  0.7546771E-02  0.2535142E+00
         21   -1    0    0  501  502  0.00000000000E+00  0.00000000000E+00  0.11765171538E+02  0.11765171538E+02  0.00000000000E+00 0. -1.
         21   -1    0    0  502  503 -0.00000000000E+00 -0.00000000000E+00 -0.41329492882E+01  0.41329492882E+01  0.00000000000E+00 0. -1.
          5    1    1    2  501    0 -0.65466316683E+00  0.20924482255E+01  0.91297965871E+01  0.10500005198E+02  0.47000000000E+01 0. -1.
         -5    1    1    2    0  503  0.65466316683E+00 -0.20924482255E+01 -0.14975743373E+01  0.53981156281E+01  0.47000000000E+01 0. -1.
<mgrwt>
<rscale>  2 0.51862244E+01</rscale>
<asrwt>0</asrwt>
<pdfrwt beam="1">  1       21 0.18100264E-02 0.51862244E+01</pdfrwt>
<pdfrwt beam="2">  1       21 0.63583836E-03 0.51862244E+01</pdfrwt>
<totfact> 0.22413660E+09</totfact>
</mgrwt>
</event>
<event>
 4    1  0.3964155E+006  0.1431491E+02  0.7546771E-02  0.1889723E+00
         21   -1    0    0  503  502  0.00000000000E+00  0.00000000000E+00  0.72778075493E+02  0.72778075493E+02  0.00000000000E+00 0. -1.
         21   -1    0    0  501  503 -0.00000000000E+00 -0.00000000000E+00 -0.29247528587E+01  0.29247528587E+01  0.00000000000E+00 0.  1.
          5    1    1    2  501    0  0.25188779119E+01  0.13284652035E+02  0.27615621017E+02  0.31105292954E+02  0.47000000000E+01 0.  1.
         -5    1    1    2    0  502 -0.25188779119E+01 -0.13284652035E+02  0.42237701617E+02  0.44597535397E+02  0.47000000000E+01 0. -1.
<mgrwt>
<rscale>  2 0.14314913E+02</rscale>
<asrwt>0</asrwt>
<pdfrwt beam="1">  1       21 0.11196626E-01 0.14314913E+02</pdfrwt>
<pdfrwt beam="2">  1       21 0.44996203E-03 0.14314913E+02</pdfrwt>
<totfact> 0.45239280E+08</totfact>
</mgrwt>
</event>
<event>
 4    1  0.3964155E+006  0.6629655E+01  0.7546771E-02  0.2340032E+00
         21   -1    0    0  501  502  0.00000000000E+00  0.00000000000E+00  0.28822535501E+02  0.28822535501E+02  0.00000000000E+00 0.  1.
         21   -1    0    0  502  503 -0.00000000000E+00 -0.00000000000E+00 -0.30035291241E+01  0.30035291241E+01  0.00000000000E+00 0. -1.
          5    1    1    2  501    0 -0.43651709781E+01 -0.16755924605E+01  0.24074596364E+02  0.24970753250E+02  0.47000000000E+01 0.  1.
         -5    1    1    2    0  503  0.43651709781E+01  0.16755924605E+01  0.17444100127E+01  0.68553113754E+01  0.47000000000E+01 0. -1.
<mgrwt>
<rscale>  2 0.66296552E+01</rscale>
<asrwt>0</asrwt>
<pdfrwt beam="1">  1       21 0.44342360E-02 0.66296552E+01</pdfrwt>
<pdfrwt beam="2">  1       21 0.46208142E-03 0.66296552E+01</pdfrwt>
<totfact> 0.11782629E+09</totfact>
</mgrwt>
</event>
<event>
 4    1  0.3964155E+006  0.1206940E+02  0.7546771E-02  0.1973381E+00
         21   -1    0    0  501  502  0.00000000000E+00  0.00000000000E+00  0.65504509645E+02  0.65504509645E+02  0.00000000000E+00 0. -1.
         21   -1    0    0  502  503 -0.00000000000E+00 -0.00000000000E+00 -0.62584522824E+01  0.62584522824E+01  0.00000000000E+00 0.  1.
          5    1    1    2  501    0  0.72799749457E+01 -0.84013258592E+01  0.58432733386E+02  0.59666193463E+02  0.47000000000E+01 0. -1.
         -5    1    1    2    0  503 -0.72799749457E+01  0.84013258592E+01  0.81332397708E+00  0.12096768465E+02  0.47000000000E+01 0.  1.
<mgrwt>
<rscale>  2 0.12069396E+02</rscale>
<asrwt>0</asrwt>
<pdfrwt beam="1">  1       21 0.10077616E-01 0.12069396E+02</pdfrwt>
<pdfrwt beam="2">  1       21 0.96283886E-03 0.12069396E+02</pdfrwt>
<totfact> 0.16492108E+08</totfact>
</mgrwt>
</event>
<event>
 4    1  0.3964155E+006  0.8415489E+01  0.7546771E-02  0.2178245E+00
         21   -1    0    0  503  502  0.00000000000E+00  0.00000000000E+00  0.31928015641E+01  0.31928015641E+01  0.00000000000E+00 0.  1.
         21   -1    0    0  501  503 -0.00000000000E+00 -0.00000000000E+00 -0.72989313610E+02  0.72989313610E+02  0.00000000000E+00 0. -1.
          5    1    1    2  501    0  0.58299113727E+01 -0.38396076902E+01 -0.66678669748E+02  0.67207629427E+02  0.47000000000E+01 0. -1.
         -5    1    1    2    0  502 -0.58299113727E+01  0.38396076902E+01 -0.31178422975E+01  0.89744857468E+01  0.47000000000E+01 0.  1.
<mgrwt>
<rscale>  2 0.84154889E+01</rscale>
<asrwt>0</asrwt>
<pdfrwt beam="1">  1       21 0.49120021E-03 0.84154889E+01</pdfrwt>
<pdfrwt beam="2">  1       21 0.11229126E-01 0.84154889E+01</pdfrwt>
<totfact> 0.30541566E+08</totfact>
</mgrwt>
</event>
<event>
 4    1  0.3964155E+006  0.5726605E+01  0.7546771E-02  0.2452425E+00
         21   -1    0    0  503  502  0.00000000000E+00  0.00000000000E+00  0.54516022650E+03  0.54516022650E+03  0.00000000000E+00 0. -1.
         21   -1    0    0  501  503 -0.00000000000E+00 -0.00000000000E+00 -0.66005264193E-01  0.66005264193E-01  0.00000000000E+00 0.  1.
          5    1    1    2  501    0  0.11064115128E+01 -0.30789373398E+01  0.19138509681E+03  0.19147075307E+03  0.47000000000E+01 0.  1.
         -5    1    1    2    0  502 -0.11064115128E+01  0.30789373398E+01  0.35370912442E+03  0.35375547869E+03  0.47000000000E+01 0. -1.
<mgrwt>
<rscale>  2 0.57266047E+01</rscale>
<asrwt>0</asrwt>
<pdfrwt beam="1">  1       21 0.83867198E-01 0.57266047E+01</pdfrwt>
<pdfrwt beam="2">  1       21 0.10155093E-04 0.57266047E+01</pdfrwt>
<totfact> 0.14249187E+09</totfact>
</mgrwt>
</event>
<event>
 4    1  0.3964155E+006  0.8512280E+01  0.7546771E-02  0.2171070E+00
         21   -1    0    0  501  502  0.00000000000E+00  0.00000000000E+00  0.28161206036E+01  0.28161206036E+01  0.00000000000E+00 0. -1.
         21   -1    0    0  502  503 -0.00000000000E+00 -0.00000000000E+00 -0.31775923925E+02  0.31775923925E+02  0.00000000000E+00 0.  1.
          5    1    1    2  501    0  0.97977413799E+00 -0.70291498868E+01 -0.69354631957E+01  0.10979961531E+02  0.47000000000E+01 0. -1.
         -5    1    1    2    0  503 -0.97977413799E+00  0.70291498868E+01 -0.22024340126E+02  0.23612082998E+02  0.47000000000E+01 0.  1.
<mgrwt>
<rscale>  2 0.85122797E+01</rscale>
<asrwt>0</asrwt>
<pdfrwt beam="1">  1       21 0.43324933E-03 0.85122797E+01</pdfrwt>
<pdfrwt beam="2">  1       21 0.48886036E-02 0.85122797E+01</pdfrwt>
<totfact> 0.13288858E+09</totfact>
</mgrwt>
</event>
<event>
 4    1  0.3964155E+006  0.9498144E+01  0.7546771E-02  0.2104727E+00
         21   -1    0    0  503  502  0.00000000000E+00  0.00000000000E+00  0.95027031053E+01  0.95027031053E+01  0.00000000000E+00 0. -1.
         21   -1    0    0  501  503 -0.00000000000E+00 -0.00000000000E+00 -0.38484930125E+02  0.38484930125E+02  0.00000000000E+00 0.  1.
          5    1    1    2  501    0 -0.57889048651E+01 -0.58833080727E+01 -0.35316264371E+02  0.36571208108E+02  0.47000000000E+01 0.  1.
         -5    1    1    2    0  502  0.57889048651E+01  0.58833080727E+01  0.63340373505E+01  0.11416425122E+02  0.47000000000E+01 0. -1.
<mgrwt>
<rscale>  2 0.94981437E+01</rscale>
<asrwt>0</asrwt>
<pdfrwt beam="1">  1       21 0.14619543E-02 0.94981437E+01</pdfrwt>
<pdfrwt beam="2">  1       21 0.59207585E-02 0.94981437E+01</pdfrwt>
<totfact> 0.18454862E+08</totfact>
</mgrwt>
</event>
<event>
 4    1  0.3964155E+006  0.5294110E+01  0.7546771E-02  0.2517482E+00
         21   -1    0    0  503  502  0.00000000000E+00  0.00000000000E+00  0.11921118707E+03  0.11921118707E+03  0.00000000000E+00 0. -1.
         21   -1    0    0  501  503 -0.00000000000E+00 -0.00000000000E+00 -0.39565768405E+01  0.39565768405E+01  0.00000000000E+00 0. -1.
          5    1    1    2  501    0 -0.10203906283E+00 -0.24345815873E+01 -0.20988290752E+01  0.56949699703E+01  0.47000000000E+01 0. -1.
         -5    1    1    2    0  502  0.10203906283E+00  0.24345815873E+01  0.11735343931E+03  0.11747279394E+03  0.47000000000E+01 0. -1.
<mgrwt>
<rscale>  2 0.52941099E+01</rscale>
<asrwt>0</asrwt>
<pdfrwt beam="1">  1       21 0.18340180E-01 0.52941099E+01</pdfrwt>
<pdfrwt beam="2">  1       21 0.60870422E-03 0.52941099E+01</pdfrwt>
<totfact> 0.77835269E+07</totfact>
</mgrwt>
</event>
<event>
 4    1  0.3964155E+006  0.5156939E+01  0.7546771E-02  0.2540044E+00
         21   -1    0    0  503  502  0.00000000000E+00  0.00000000000E+00  0.45981122606E+00  0.45981122606E+00  0.00000000000E+00 0. -1.
         21   -1    0    0  501  503 -0.00000000000E+00 -0.00000000000E+00 -0.57838684972E+02  0.57838684972E+02  0.00000000000E+00 0. -1.
          5    1    1    2  501    0 -0.10035096257E+01 -0.18700243622E+01 -0.28524260210E+02  0.28986676995E+02  0.47000000000E+01 0.  1.
         -5    1    1    2    0  502  0.10035096257E+01  0.18700243622E+01 -0.28854613536E+02  0.29311819203E+02  0.47000000000E+01 0.  1.
<mgrwt>
<rscale>  2 0.51569393E+01</rscale>
<asrwt>0</asrwt>
<pdfrwt beam="1">  1       21 0.70740206E-04 0.51569393E+01</pdfrwt>
<pdfrwt beam="2">  1       21 0.88982571E-02 0.51569393E+01</pdfrwt>
<totfact> 0.42676598E+09</totfact>
</mgrwt>
</event>
<event>
 4    1  0.3964155E+006  0.6225298E+01  0.7546771E-02  0.2386992E+00
         21   -1    0    0  501  502  0.00000000000E+00  0.00000000000E+00  0.30979526064E+01  0.30979526064E+01  0.00000000000E+00 0. -1.
         21   -1    0    0  502  503 -0.00000000000E+00 -0.00000000000E+00 -0.12796033244E+02  0.12796033244E+02  0.00000000000E+00 0.  1.
          5    1    1    2  501    0  0.94069950066E+00 -0.39723321909E+01 -0.36601817416E+01  0.72215835498E+01  0.47000000000E+01 0. -1.
         -5    1    1    2    0  503 -0.94069950066E+00  0.39723321909E+01 -0.60378988961E+01  0.86724023007E+01  0.47000000000E+01 0. -1.
<mgrwt>
<rscale>  2 0.62252983E+01</rscale>
<asrwt>0</asrwt>
<pdfrwt beam="1">  1       21 0.47660809E-03 0.62252983E+01</pdfrwt>
<pdfrwt beam="2">  1       21 0.19686205E-02 0.62252983E+01</pdfrwt>
<totfact> 0.35085077E+09</totfact>
</mgrwt>
</event>
<event>
 4    1  0.3964155E+006  0.4729279E+01  0.7546771E-02  0.2617543E+00
         21   -1    0    0  503  502  0.00000000000E+00  0.00000000000E+00  0.62137945801E+00  0.62137945801E+00  0.00000000000E+00 0. -1.
         21   -1    0    0  501  503 -0.00000000000E+00 -0.00000000000E+00 -0.82400931315E+02  0.82400931315E+02  0.00000000000E+00 0. -1.
          5    1    1    2  501    0 -0.37656569919E+00  0.36643589260E+00 -0.72042002777E+02  0.72197065322E+02  0.47000000000E+01 0. -1.
         -5    1    1    2    0  502  0.37656569919E+00 -0.36643589260E+00 -0.97375490799E+01  0.10825245451E+02  0.47000000000E+01 0. -1.
<mgrwt>
<rscale>  2 0.47292787E+01</rscale>
<asrwt>0</asrwt>
<pdfrwt beam="1">  1       21 0.95596856E-04 0.47292787E+01</pdfrwt>
<pdfrwt beam="2">  1       21 0.12677064E-01 0.47292787E+01</pdfrwt>
<totfact> 0.15361285E+09</totfact>
</mgrwt>
</event>
<event>
 4    1  0.3964155E+006  0.7600589E+01  0.7546771E-02  0.2244392E+00
         21   -1    0    0  503  502  0.00000000000E+00  0.00000000000E+00  0.67100920150E+03  0.67100920150E+03  0.00000000000E+00 0. -1.
         21   -1    0    0  501  503 -0.00000000000E+00 -0.00000000000E+00 -0.87060710566E-01  0.87060710566E-01  0.00000000000E+00 0.  1.
          5    1    1    2  501    0  0.58459456092E+01  0.12263255835E+01  0.30007788453E+03  0.30017412569E+03  0.47000000000E+01 0. -1.
         -5    1    1    2    0  502 -0.58459456092E+01 -0.12263255835E+01  0.37084425627E+03  0.37092213652E+03  0.47000000000E+01 0. -1.
<mgrwt>
<rscale>  2 0.76005891E+01</rscale>
<asrwt>0</asrwt>
<pdfrwt beam="1">  1       21 0.10322804E+00 0.76005891E+01</pdfrwt>
<pdfrwt beam="2">  1       21 0.13394493E-04 0.76005891E+01</pdfrwt>
<totfact> 0.77902188E+08</totfact>
</mgrwt>
</event>
<event>
 4    1  0.3964155E+006  0.6137332E+01  0.7546771E-02  0.2397885E+00
         21   -1    0    0  503  502  0.00000000000E+00  0.00000000000E+00  0.36758868812E+00  0.36758868812E+00  0.00000000000E+00 0.  1.
         21   -1    0    0  501  503 -0.00000000000E+00 -0.00000000000E+00 -0.10420388473E+03  0.10420388473E+03  0.00000000000E+00 0.  1.
          5    1    1    2  501    0 -0.26686303482E+01 -0.29077922278E+01 -0.58662510867E+02  0.58982684109E+02  0.47000000000E+01 0.  1.
         -5    1    1    2    0  502  0.26686303482E+01  0.29077922278E+01 -0.45173785179E+02  0.45588789313E+02  0.47000000000E+01 0.  1.
<mgrwt>
<rscale>  2 0.61373320E+01</rscale>
<asrwt>0</asrwt>
<pdfrwt beam="1">  1       21 0.56552082E-04 0.61373320E+01</pdfrwt>
<pdfrwt beam="2">  1       21 0.16031374E-01 0.61373320E+01</pdfrwt>
<totfact> 0.27103179E+09</totfact>
</mgrwt>
</event>
<event>
 4    1  0.3964155E+006  0.6588707E+01  0.7546771E-02  0.2344570E+00
         21   -1    0    0  501  502  0.00000000000E+00  0.00000000000E+00  0.26829786483E+04  0.26829786483E+04  0.00000000000E+00 0. -1.
         21   -1    0    0  502  503 -0.00000000000E+00 -0.00000000000E+00 -0.29148102303E-01  0.29148102303E-01  0.00000000000E+00 0. -1.
          5    1    1    2  501    0  0.46156539312E+01  0.12959880857E+00  0.22362668141E+04  0.22362765203E+04  0.47000000000E+01 0. -1.
         -5    1    1    2    0  503 -0.46156539312E+01 -0.12959880857E+00  0.44668268606E+03  0.44673127614E+03  0.47000000000E+01 0. -1.
<mgrwt>
<rscale>  2 0.65887068E+01</rscale>
<asrwt>0</asrwt>
<pdfrwt beam="1">  1       21 0.41256824E+00 0.65887068E+01</pdfrwt>
<pdfrwt beam="2">  1       21 0.44864723E-05 0.65887068E+01</pdfrwt>
<totfact> 0.93981688E+07</totfact>
</mgrwt>
</event>
<event>
 4    1  0.3964155E+006  0.5227316E+01  0.7546771E-02  0.2528342E+00
         21   -1    0    0  501  502  0.00000000000E+00  0.00000000000E+00  0.14323592069E+00  0.14323592069E+00  0.00000000000E+00 0.  1.
         21   -1    0    0  502  503 -0.00000000000E+00 -0.00000000000E+00 -0.28575321733E+03  0.28575321733E+03  0.00000000000E+00 0. -1.
          5    1    1    2  501    0 -0.17659047546E+00 -0.22811497002E+01 -0.60389044449E+02  0.60614862184E+02  0.47000000000E+01 0.  1.
         -5    1    1    2    0  503  0.17659047546E+00  0.22811497002E+01 -0.22522093696E+03  0.22528159106E+03  0.47000000000E+01 0. -1.
<mgrwt>
<rscale>  2 0.52273156E+01</rscale>
<asrwt>0</asrwt>
<pdfrwt beam="1">  1       21 0.22036577E-04 0.52273156E+01</pdfrwt>
<pdfrwt beam="2">  1       21 0.43961472E-01 0.52273156E+01</pdfrwt>
<totfact> 0.15622541E+09</totfact>
</mgrwt>
</event>
<event>
 4    1  0.3964155E+006  0.5861736E+01  0.7546771E-02  0.2433774E+00
         21   -1    0    0  503  502  0.00000000000E+00  0.00000000000E+00  0.25348214309E+02  0.25348214309E+02  0.00000000000E+00 0. -1.
         21   -1    0    0  501  503 -0.00000000000E+00 -0.00000000000E+00 -0.20944630598E+01  0.20944630598E+01  0.00000000000E+00 0. -1.
          5    1    1    2  501    0 -0.26941550646E+01 -0.22386335803E+01  0.34767123283E+01  0.68152388390E+01  0.47000000000E+01 0. -1.
         -5    1    1    2    0  502  0.26941550646E+01  0.22386335803E+01  0.19777038921E+02  0.20627438530E+02  0.47000000000E+01 0. -1.
<mgrwt>
<rscale>  2 0.58617362E+01</rscale>
<asrwt>0</asrwt>
<pdfrwt beam="1">  1       21 0.38997251E-02 0.58617362E+01</pdfrwt>
<pdfrwt beam="2">  1       21 0.32222510E-03 0.58617362E+01</pdfrwt>
<totfact> 0.21201701E+09</totfact>
</mgrwt>
</event>
<event>
 4    1  0.3964155E+006  0.5137785E+01  0.7546771E-02  0.2543276E+00
         21   -1    0    0  503  502  0.00000000000E+00  0.00000000000E+00  0.39535315687E+03  0.39535315687E+03  0.00000000000E+00 0. -1.
         21   -1    0    0  501  503 -0.00000000000E+00 -0.00000000000E+00 -0.20003748049E+00  0.20003748049E+00  0.00000000000E+00 0. -1.
          5    1    1    2  501    0 -0.18821216851E+01 -0.87432760854E+00  0.36146274829E+02  0.36509587985E+02  0.47000000000E+01 0. -1.
         -5    1    1    2    0  502  0.18821216851E+01  0.87432760854E+00  0.35900684456E+03  0.35904360637E+03  0.47000000000E+01 0. -1.
<mgrwt>
<rscale>  2 0.51377846E+01</rscale>
<asrwt>0</asrwt>
<pdfrwt beam="1">  1       21 0.60822937E-01 0.51377846E+01</pdfrwt>
<pdfrwt beam="2">  1       21 0.30775313E-04 0.51377846E+01</pdfrwt>
<totfact> 0.55309145E+08</totfact>
</mgrwt>
</event>
<event>
 4    1  0.3964155E+006  0.6378789E+01  0.7546771E-02  0.2368585E+00
         21   -1    0    0  503  502  0.00000000000E+00  0.00000000000E+00  0.38363740166E+01  0.38363740166E+01  0.00000000000E+00 0. -1.
         21   -1    0    0  501  503 -0.00000000000E+00 -0.00000000000E+00 -0.19794162157E+02  0.19794162157E+02  0.00000000000E+00 0. -1.
          5    1    1    2  501    0 -0.16171056592E+01  0.39979890796E+01 -0.16028731283E+02  0.17251352815E+02  0.47000000000E+01 0. -1.
         -5    1    1    2    0  502  0.16171056592E+01 -0.39979890796E+01  0.70943142862E-01  0.63791833586E+01  0.47000000000E+01 0. -1.
<mgrwt>
<rscale>  2 0.63787889E+01</rscale>
<asrwt>0</asrwt>
<pdfrwt beam="1">  1       21 0.59021139E-03 0.63787889E+01</pdfrwt>
<pdfrwt beam="2">  1       21 0.30452557E-02 0.63787889E+01</pdfrwt>
<totfact> 0.14122375E+09</totfact>
</mgrwt>
</event>
<event>
 4    1  0.3964155E+006  0.9491238E+01  0.7546771E-02  0.2105153E+00
         21   -1    0    0  503  502  0.00000000000E+00  0.00000000000E+00  0.15220228827E+03  0.15220228827E+03  0.00000000000E+00 0.  1.
         21   -1    0    0  501  503 -0.00000000000E+00 -0.00000000000E+00 -0.77504073712E+00  0.77504073712E+00  0.00000000000E+00 0.  1.
          5    1    1    2  501    0 -0.69758032973E+01 -0.43967908182E+01  0.38528800658E+02  0.39680626019E+02  0.47000000000E+01 0.  1.
         -5    1    1    2    0  502  0.69758032973E+01  0.43967908182E+01  0.11289844687E+03  0.11329670298E+03  0.47000000000E+01 0.  1.
<mgrwt>
<rscale>  2 0.94912381E+01</rscale>
<asrwt>0</asrwt>
<pdfrwt beam="1">  1       21 0.23415713E-01 0.94912381E+01</pdfrwt>
<pdfrwt beam="2">  1       21 0.11923716E-03 0.94912381E+01</pdfrwt>
<totfact> 0.71058761E+08</totfact>
</mgrwt>
</event>
<event>
 4    1  0.3964155E+006  0.7327683E+01  0.7546771E-02  0.2269174E+00
         21   -1    0    0  503  502  0.00000000000E+00  0.00000000000E+00  0.26721020244E+02  0.26721020244E+02  0.00000000000E+00 0.  1.
         21   -1    0    0  501  503 -0.00000000000E+00 -0.00000000000E+00 -0.21158116745E+01  0.21158116745E+01  0.00000000000E+00 0. -1.
          5    1    1    2  501    0 -0.32662677527E+01  0.45756345978E+01  0.15535132868E+02  0.17176591345E+02  0.47000000000E+01 0.  1.
         -5    1    1    2    0  502  0.32662677527E+01 -0.45756345978E+01  0.90700757021E+01  0.11660240574E+02  0.47000000000E+01 0. -1.
<mgrwt>
<rscale>  2 0.73276829E+01</rscale>
<asrwt>0</asrwt>
<pdfrwt beam="1">  1       21 0.41109260E-02 0.73276829E+01</pdfrwt>
<pdfrwt beam="2">  1       21 0.32550951E-03 0.73276829E+01</pdfrwt>
<totfact> 0.23167735E+09</totfact>
</mgrwt>
</event>
<event>
 4    1  0.3964155E+006  0.9607957E+01  0.7546771E-02  0.2098011E+00
         21   -1    0    0  501  502  0.00000000000E+00  0.00000000000E+00  0.57708119462E+02  0.57708119462E+02  0.00000000000E+00 0. -1.
         21   -1    0    0  502  503 -0.00000000000E+00 -0.00000000000E+00 -0.29510934756E+02  0.29510934756E+02  0.00000000000E+00 0. -1.
          5    1    1    2  501    0  0.61941360361E+01 -0.56440691094E+01  0.56509718273E+02  0.57320686464E+02  0.47000000000E+01 0. -1.
         -5    1    1    2    0  503 -0.61941360361E+01  0.56440691094E+01 -0.28312533567E+02  0.29898367754E+02  0.47000000000E+01 0. -1.
<mgrwt>
<rscale>  2 0.96079570E+01</rscale>
<asrwt>0</asrwt>
<pdfrwt beam="1">  1       21 0.88781722E-02 0.96079570E+01</pdfrwt>
<pdfrwt beam="2">  1       21 0.45401438E-02 0.96079570E+01</pdfrwt>
<totfact> 0.18272758E+07</totfact>
</mgrwt>
</event>
<event>
 4    1  0.3964155E+006  0.5205611E+01  0.7546771E-02  0.2531922E+00
         21   -1    0    0  503  502  0.00000000000E+00  0.00000000000E+00  0.12869079081E+00  0.12869079081E+00  0.00000000000E+00 0. -1.
         21   -1    0    0  501  503 -0.00000000000E+00 -0.00000000000E+00 -0.57732964170E+03  0.57732964170E+03  0.00000000000E+00 0. -1.
          5    1    1    2  501    0 -0.18533198517E+00  0.22302539967E+01 -0.51872858934E+03  0.51875470868E+03  0.47000000000E+01 0. -1.
         -5    1    1    2    0  502  0.18533198517E+00 -0.22302539967E+01 -0.58472361564E+02  0.58703623804E+02  0.47000000000E+01 0. -1.
<mgrwt>
<rscale>  2 0.52056105E+01</rscale>
<asrwt>0</asrwt>
<pdfrwt beam="1">  1       21 0.19798198E-04 0.52056105E+01</pdfrwt>
<pdfrwt beam="2">  1       21 0.88821671E-01 0.52056105E+01</pdfrwt>
<totfact> 0.48915425E+08</totfact>
</mgrwt>
</event>
<event>
 4    1  0.3964155E+006  0.5406151E+01  0.7546771E-02  0.2499782E+00
         21   -1    0    0  503  502  0.00000000000E+00  0.00000000000E+00  0.84147570020E-01  0.84147570020E-01  0.00000000000E+00 0. -1.
         21   -1    0    0  501  503 -0.00000000000E+00 -0.00000000000E+00 -0.41108770579E+03  0.41108770579E+03  0.00000000000E+00 0. -1.
          5    1    1    2  501    0 -0.10947961476E+01  0.24367780176E+01 -0.28646972290E+03  0.28652072979E+03  0.47000000000E+01 0. -1.
         -5    1    1    2    0  502  0.10947961476E+01 -0.24367780176E+01 -0.12453383532E+03  0.12465112357E+03  0.47000000000E+01 0. -1.
<mgrwt>
<rscale>  2 0.54061507E+01</rscale>
<asrwt>0</asrwt>
<pdfrwt beam="1">  1       21 0.12945830E-04 0.54061507E+01</pdfrwt>
<pdfrwt beam="2">  1       21 0.63244020E-01 0.54061507E+01</pdfrwt>
<totfact> 0.16895440E+09</totfact>
</mgrwt>
</event>
<event>
 4    1  0.3964155E+006  0.8103356E+01  0.7546771E-02  0.2202314E+00
         21   -1    0    0  503  502  0.00000000000E+00  0.00000000000E+00  0.11623007720E+02  0.11623007720E+02  0.00000000000E+00 0.  1.
         21   -1    0    0  501  503 -0.00000000000E+00 -0.00000000000E+00 -0.14015194977E+02  0.14015194977E+02  0.00000000000E+00 0. -1.
          5    1    1    2  501    0 -0.53166911190E+01 -0.39124382448E+01 -0.11100046969E+02  0.13743195414E+02  0.47000000000E+01 0. -1.
         -5    1    1    2    0  502  0.53166911190E+01  0.39124382448E+01  0.87078597127E+01  0.11895007282E+02  0.47000000000E+01 0.  1.
<mgrwt>
<rscale>  2 0.81033559E+01</rscale>
<asrwt>0</asrwt>
<pdfrwt beam="1">  1       21 0.17881550E-02 0.81033559E+01</pdfrwt>
<pdfrwt beam="2">  1       21 0.21561838E-02 0.81033559E+01</pdfrwt>
<totfact> 0.57100769E+08</totfact>
</mgrwt>
</event>
<event>
 4    1  0.3964155E+006  0.1331513E+02  0.7546771E-02  0.1924307E+00
         21   -1    0    0  501  502  0.00000000000E+00  0.00000000000E+00  0.10298289560E+02  0.10298289560E+02  0.00000000000E+00 0. -1.
         21   -1    0    0  502  503 -0.00000000000E+00 -0.00000000000E+00 -0.34438633970E+02  0.34438633970E+02  0.00000000000E+00 0.  1.
          5    1    1    2  501    0 -0.11529862786E+02  0.47185870631E+01  0.37483559984E+01  0.13832677702E+02  0.47000000000E+01 0. -1.
         -5    1    1    2    0  503  0.11529862786E+02 -0.47185870631E+01 -0.27888700409E+02  0.30904245828E+02  0.47000000000E+01 0.  1.
<mgrwt>
<rscale>  2 0.13315134E+02</rscale>
<asrwt>0</asrwt>
<pdfrwt beam="1">  1       21 0.15843522E-02 0.13315134E+02</pdfrwt>
<pdfrwt beam="2">  1       21 0.52982515E-02 0.13315134E+02</pdfrwt>
<totfact> 0.22787011E+08</totfact>
</mgrwt>
</event>
<event>
 4    1  0.3964155E+006  0.6437366E+01  0.7546771E-02  0.2361753E+00
         21   -1    0    0  501  502  0.00000000000E+00  0.00000000000E+00  0.42907702654E+00  0.42907702654E+00  0.00000000000E+00 0. -1.
         21   -1    0    0  502  503 -0.00000000000E+00 -0.00000000000E+00 -0.10642508342E+03  0.10642508342E+03  0.00000000000E+00 0.  1.
          5    1    1    2  501    0  0.21002507707E+00 -0.43938109210E+01 -0.36747056726E+02  0.37306646365E+02  0.47000000000E+01 0. -1.
         -5    1    1    2    0  503 -0.21002507707E+00  0.43938109210E+01 -0.69248949663E+02  0.69547514078E+02  0.47000000000E+01 0.  1.
<mgrwt>
<rscale>  2 0.64373663E+01</rscale>
<asrwt>0</asrwt>
<pdfrwt beam="1">  1       21 0.66011851E-04 0.64373663E+01</pdfrwt>
<pdfrwt beam="2">  1       21 0.16373090E-01 0.64373663E+01</pdfrwt>
<totfact> 0.22133775E+09</totfact>
</mgrwt>
</event>
<event>
 4    1  0.3964155E+006  0.5466650E+01  0.7546771E-02  0.2490481E+00
         21   -1    0    0  501  502  0.00000000000E+00  0.00000000000E+00  0.22801926501E+03  0.22801926501E+03  0.00000000000E+00 0.  1.
         21   -1    0    0  502  503 -0.00000000000E+00 -0.00000000000E+00 -0.13143386612E+00  0.13143386612E+00  0.00000000000E+00 0.  1.
          5    1    1    2  501    0 -0.27514633129E+01  0.47298035048E+00  0.12002601868E+03  0.12015044494E+03  0.47000000000E+01 0.  1.
         -5    1    1    2    0  503  0.27514633129E+01 -0.47298035048E+00  0.10786181247E+03  0.10800025393E+03  0.47000000000E+01 0.  1.
<mgrwt>
<rscale>  2 0.54666499E+01</rscale>
<asrwt>0</asrwt>
<pdfrwt beam="1">  1       21 0.35079570E-01 0.54666499E+01</pdfrwt>
<pdfrwt beam="2">  1       21 0.20220777E-04 0.54666499E+01</pdfrwt>
<totfact> 0.26847110E+09</totfact>
</mgrwt>
</event>
<event>
 4    1  0.3964155E+006  0.5627261E+01  0.7546771E-02  0.2466617E+00
         21   -1    0    0  501  502  0.00000000000E+00  0.00000000000E+00  0.21707527672E+03  0.21707527672E+03  0.00000000000E+00 0.  1.
         21   -1    0    0  502  503 -0.00000000000E+00 -0.00000000000E+00 -0.14668923436E+00  0.14668923436E+00  0.00000000000E+00 0. -1.
          5    1    1    2  501    0  0.30224817586E+01  0.66383280619E+00  0.11655127221E+03  0.11668703922E+03  0.47000000000E+01 0.  1.
         -5    1    1    2    0  503 -0.30224817586E+01 -0.66383280619E+00  0.10037731528E+03  0.10053492673E+03  0.47000000000E+01 0. -1.
<mgrwt>
<rscale>  2 0.56272613E+01</rscale>
<asrwt>0</asrwt>
<pdfrwt beam="1">  1       21 0.33395940E-01 0.56272613E+01</pdfrwt>
<pdfrwt beam="2">  1       21 0.22567748E-04 0.56272613E+01</pdfrwt>
<totfact> 0.25845410E+09</totfact>
</mgrwt>
</event>
<event>
 4    1  0.3964155E+006  0.7746580E+01  0.7546771E-02  0.2231720E+00
         21   -1    0    0  503  502  0.00000000000E+00  0.00000000000E+00  0.11664544053E+02  0.11664544053E+02  0.00000000000E+00 0.  1.
         21   -1    0    0  501  503 -0.00000000000E+00 -0.00000000000E+00 -0.10303277107E+02  0.10303277107E+02  0.00000000000E+00 0.  1.
          5    1    1    2  501    0 -0.80286379412E+00  0.61053181388E+01 -0.70914625737E+01  0.10502301713E+02  0.47000000000E+01 0.  1.
         -5    1    1    2    0  502  0.80286379412E+00 -0.61053181388E+01  0.84527295191E+01  0.11465519446E+02  0.47000000000E+01 0.  1.
<mgrwt>
<rscale>  2 0.77465799E+01</rscale>
<asrwt>0</asrwt>
<pdfrwt beam="1">  1       21 0.17945452E-02 0.77465799E+01</pdfrwt>
<pdfrwt beam="2">  1       21 0.15851196E-02 0.77465799E+01</pdfrwt>
<totfact> 0.86357305E+08</totfact>
</mgrwt>
</event>
<event>
 4    1  0.3964155E+006  0.6610375E+01  0.7546771E-02  0.2342163E+00
         21   -1    0    0  503  502  0.00000000000E+00  0.00000000000E+00  0.22477666066E+02  0.22477666066E+02  0.00000000000E+00 0.  1.
         21   -1    0    0  501  503 -0.00000000000E+00 -0.00000000000E+00 -0.25787979099E+01  0.25787979099E+01  0.00000000000E+00 0. -1.
          5    1    1    2  501    0  0.27036764075E+01 -0.37811629204E+01  0.37337114358E+01  0.75919470647E+01  0.47000000000E+01 0. -1.
         -5    1    1    2    0  502 -0.27036764075E+01  0.37811629204E+01  0.16165156720E+02  0.17464516911E+02  0.47000000000E+01 0. -1.
<mgrwt>
<rscale>  2 0.66103751E+01</rscale>
<asrwt>0</asrwt>
<pdfrwt beam="1">  1       21 0.34581023E-02 0.66103751E+01</pdfrwt>
<pdfrwt beam="2">  1       21 0.39673816E-03 0.66103751E+01</pdfrwt>
<totfact> 0.20990909E+09</totfact>
</mgrwt>
</event>
<event>
 4    1  0.3964155E+006  0.8849030E+01  0.7546771E-02  0.2147090E+00
         21   -1    0    0  501  502  0.00000000000E+00  0.00000000000E+00  0.39113198672E+01  0.39113198672E+01  0.00000000000E+00 0.  1.
         21   -1    0    0  502  503 -0.00000000000E+00 -0.00000000000E+00 -0.42061352287E+02  0.42061352287E+02  0.00000000000E+00 0. -1.
          5    1    1    2  501    0  0.74900759723E+01 -0.33777968237E+00 -0.24353171510E+01  0.91780228160E+01  0.47000000000E+01 0.  1.
         -5    1    1    2    0  503 -0.74900759723E+01  0.33777968237E+00 -0.35714715269E+02  0.36794649338E+02  0.47000000000E+01 0. -1.
<mgrwt>
<rscale>  2 0.88490301E+01</rscale>
<asrwt>0</asrwt>
<pdfrwt beam="1">  1       21 0.60174152E-03 0.88490301E+01</pdfrwt>
<pdfrwt beam="2">  1       21 0.64709773E-02 0.88490301E+01</pdfrwt>
<totfact> 0.55685558E+08</totfact>
</mgrwt>
</event>
<event>
 4    1  0.3964155E+006  0.5411234E+01  0.7546771E-02  0.2498994E+00
         21   -1    0    0  503  502  0.00000000000E+00  0.00000000000E+00  0.10311393090E+03  0.10311393090E+03  0.00000000000E+00 0.  1.
         21   -1    0    0  501  503 -0.00000000000E+00 -0.00000000000E+00 -0.50477588704E+00  0.50477588704E+00  0.00000000000E+00 0.  1.
          5    1    1    2  501    0  0.91271072290E+00 -0.25215887986E+01  0.17038656994E+02  0.17877283997E+02  0.47000000000E+01 0.  1.
         -5    1    1    2    0  502 -0.91271072290E+00  0.25215887986E+01  0.85570498024E+02  0.85741422795E+02  0.47000000000E+01 0.  1.
<mgrwt>
<rscale>  2 0.54112338E+01</rscale>
<asrwt>0</asrwt>
<pdfrwt beam="1">  1       21 0.15863665E-01 0.54112338E+01</pdfrwt>
<pdfrwt beam="2">  1       21 0.77657911E-04 0.54112338E+01</pdfrwt>
<totfact> 0.16221622E+09</totfact>
</mgrwt>
</event>
<event>
 4    1  0.3964155E+006  0.6738888E+01  0.7546771E-02  0.2328151E+00
         21   -1    0    0  501  502  0.00000000000E+00  0.00000000000E+00  0.14518171673E+04  0.14518171673E+04  0.00000000000E+00 0.  1.
         21   -1    0    0  502  503 -0.00000000000E+00 -0.00000000000E+00 -0.39125684018E-01  0.39125684018E-01  0.00000000000E+00 0. -1.
          5    1    1    2  501    0  0.35430295527E+01 -0.32816989358E+01  0.10509632522E+04  0.10509848572E+04  0.47000000000E+01 0.  1.
         -5    1    1    2    0  503 -0.35430295527E+01  0.32816989358E+01  0.40081478938E+03  0.40087143574E+03  0.47000000000E+01 0.  1.
<mgrwt>
<rscale>  2 0.67388876E+01</rscale>
<asrwt>0</asrwt>
<pdfrwt beam="1">  1       21 0.22331335E+00 0.67388876E+01</pdfrwt>
<pdfrwt beam="2">  1       21 0.60204988E-05 0.67388876E+01</pdfrwt>
<totfact> 0.39399423E+08</totfact>
</mgrwt>
</event>
<event>
 4    1  0.3964155E+006  0.7254079E+01  0.7546771E-02  0.2276116E+00
         21   -1    0    0  503  502  0.00000000000E+00  0.00000000000E+00  0.65634559873E+02  0.65634559873E+02  0.00000000000E+00 0.  1.
         21   -1    0    0  501  503 -0.00000000000E+00 -0.00000000000E+00 -0.11873744157E+01  0.11873744157E+01  0.00000000000E+00 0. -1.
          5    1    1    2  501    0  0.44576746502E+01 -0.32650880640E+01  0.13182813605E+02  0.15046868042E+02  0.47000000000E+01 0. -1.
         -5    1    1    2    0  502 -0.44576746502E+01  0.32650880640E+01  0.51264371852E+02  0.51775066246E+02  0.47000000000E+01 0.  1.
<mgrwt>
<rscale>  2 0.72540791E+01</rscale>
<asrwt>0</asrwt>
<pdfrwt beam="1">  1       21 0.10097622E-01 0.72540791E+01</pdfrwt>
<pdfrwt beam="2">  1       21 0.18267304E-03 0.72540791E+01</pdfrwt>
<totfact> 0.13025458E+09</totfact>
</mgrwt>
</event>
<event>
 4    1  0.3964155E+006  0.6346930E+01  0.7546771E-02  0.2372345E+00
         21   -1    0    0  503  502  0.00000000000E+00  0.00000000000E+00  0.19917949479E+01  0.19917949479E+01  0.00000000000E+00 0. -1.
         21   -1    0    0  501  503 -0.00000000000E+00 -0.00000000000E+00 -0.25429655734E+02  0.25429655734E+02  0.00000000000E+00 0. -1.
          5    1    1    2  501    0  0.39614584250E+01 -0.15812548733E+01 -0.17921867229E+02  0.19012544407E+02  0.47000000000E+01 0. -1.
         -5    1    1    2    0  502 -0.39614584250E+01  0.15812548733E+01 -0.55159935568E+01  0.84089062753E+01  0.47000000000E+01 0. -1.
<mgrwt>
<rscale>  2 0.63469300E+01</rscale>
<asrwt>0</asrwt>
<pdfrwt beam="1">  1       21 0.30643004E-03 0.63469300E+01</pdfrwt>
<pdfrwt beam="2">  1       21 0.39122542E-02 0.63469300E+01</pdfrwt>
<totfact> 0.24202398E+09</totfact>
</mgrwt>
</event>
<event>
 4    1  0.3964155E+006  0.6112446E+01  0.7546771E-02  0.2401014E+00
         21   -1    0    0  501  502  0.00000000000E+00  0.00000000000E+00  0.70596899880E+03  0.70596899880E+03  0.00000000000E+00 0. -1.
         21   -1    0    0  502  503 -0.00000000000E+00 -0.00000000000E+00 -0.56092038758E-01  0.56092038758E-01  0.00000000000E+00 0. -1.
          5    1    1    2  501    0 -0.12319569143E+00 -0.39059974994E+01  0.43686450940E+03  0.43690726884E+03  0.47000000000E+01 0. -1.
         -5    1    1    2    0  503  0.12319569143E+00  0.39059974994E+01  0.26904839737E+03  0.26911782200E+03  0.47000000000E+01 0. -1.
<mgrwt>
<rscale>  2 0.61124458E+01</rscale>
<asrwt>0</asrwt>
<pdfrwt beam="1">  1       21 0.10860350E+00 0.61124458E+01</pdfrwt>
<pdfrwt beam="2">  1       21 0.86301098E-05 0.61124458E+01</pdfrwt>
<totfact> 0.11036796E+09</totfact>
</mgrwt>
</event>
<event>
 4    1  0.3964155E+006  0.5326666E+01  0.7546771E-02  0.2512274E+00
         21   -1    0    0  503  502  0.00000000000E+00  0.00000000000E+00  0.85248524222E+01  0.85248524222E+01  0.00000000000E+00 0.  1.
         21   -1    0    0  501  503 -0.00000000000E+00 -0.00000000000E+00 -0.67059811607E+01  0.67059811607E+01  0.00000000000E+00 0.  1.
          5    1    1    2  501    0  0.20762022479E+01 -0.14045470649E+01 -0.44952578663E+01  0.69699864789E+01  0.47000000000E+01 0.  1.
         -5    1    1    2    0  502 -0.20762022479E+01  0.14045470649E+01  0.63141291278E+01  0.82608471040E+01  0.47000000000E+01 0.  1.
<mgrwt>
<rscale>  2 0.53266658E+01</rscale>
<asrwt>0</asrwt>
<pdfrwt beam="1">  1       21 0.13115158E-02 0.53266658E+01</pdfrwt>
<pdfrwt beam="2">  1       21 0.10316894E-02 0.53266658E+01</pdfrwt>
<totfact> 0.18488391E+09</totfact>
</mgrwt>
</event>
<event>
 4    1  0.3964155E+006  0.8701955E+01  0.7546771E-02  0.2157381E+00
         21   -1    0    0  501  502  0.00000000000E+00  0.00000000000E+00  0.50678457378E+00  0.50678457378E+00  0.00000000000E+00 0.  1.
         21   -1    0    0  502  503 -0.00000000000E+00 -0.00000000000E+00 -0.18211927800E+03  0.18211927800E+03  0.00000000000E+00 0.  1.
          5    1    1    2  501    0 -0.57611723660E+01 -0.45213835419E+01 -0.52114315455E+02  0.52835839082E+02  0.47000000000E+01 0.  1.
         -5    1    1    2    0  503  0.57611723660E+01  0.45213835419E+01 -0.12949817797E+03  0.12979022349E+03  0.47000000000E+01 0.  1.
<mgrwt>
<rscale>  2 0.87019547E+01</rscale>
<asrwt>0</asrwt>
<pdfrwt beam="1">  1       21 0.77966910E-04 0.87019547E+01</pdfrwt>
<pdfrwt beam="2">  1       21 0.28018332E-01 0.87019547E+01</pdfrwt>
<totfact> 0.89241647E+08</totfact>
</mgrwt>
</event>
<event>
 4    1  0.3964155E+006  0.5279130E+01  0.7546771E-02  0.2519897E+00
         21   -1    0    0  503  502  0.00000000000E+00  0.00000000000E+00  0.32240634242E+01  0.32240634242E+01  0.00000000000E+00 0. -1.
         21   -1    0    0  501  503 -0.00000000000E+00 -0.00000000000E+00 -0.86750448040E+01  0.86750448040E+01  0.00000000000E+00 0. -1.
          5    1    1    2  501    0 -0.21448881589E+01 -0.10856648378E+01 -0.30806748727E+01  0.61122639853E+01  0.47000000000E+01 0. -1.
         -5    1    1    2    0  502  0.21448881589E+01  0.10856648378E+01 -0.23703065071E+01  0.57868442429E+01  0.47000000000E+01 0. -1.
<mgrwt>
<rscale>  2 0.52791300E+01</rscale>
<asrwt>0</asrwt>
<pdfrwt beam="1">  1       21 0.49600976E-03 0.52791300E+01</pdfrwt>
<pdfrwt beam="2">  1       21 0.13346223E-02 0.52791300E+01</pdfrwt>
<totfact> 0.49463081E+09</totfact>
</mgrwt>
</event>
<event>
 4    1  0.3964155E+006  0.5742980E+01  0.7546771E-02  0.2450126E+00
         21   -1    0    0  503  502  0.00000000000E+00  0.00000000000E+00  0.12943030310E+01  0.12943030310E+01  0.00000000000E+00 0.  1.
         21   -1    0    0  501  503 -0.00000000000E+00 -0.00000000000E+00 -0.24402186401E+03  0.24402186401E+03  0.00000000000E+00 0.  1.
          5    1    1    2  501    0  0.20398177303E+01 -0.25944098368E+01 -0.23744095823E+03  0.23751040075E+03  0.47000000000E+01 0.  1.
         -5    1    1    2    0  502 -0.20398177303E+01  0.25944098368E+01 -0.52866027480E+01  0.78057662910E+01  0.47000000000E+01 0.  1.
<mgrwt>
<rscale>  2 0.57429800E+01</rscale>
<asrwt>0</asrwt>
<pdfrwt beam="1">  1       21 0.19912342E-03 0.57429800E+01</pdfrwt>
<pdfrwt beam="2">  1       21 0.37541849E-01 0.57429800E+01</pdfrwt>
<totfact> 0.11658744E+08</totfact>
</mgrwt>
</event>
<event>
 4    1  0.3964155E+006  0.7106536E+01  0.7546771E-02  0.2290386E+00
         21   -1    0    0  501  502  0.00000000000E+00  0.00000000000E+00  0.64874383625E+01  0.64874383625E+01  0.00000000000E+00 0.  1.
         21   -1    0    0  502  503 -0.00000000000E+00 -0.00000000000E+00 -0.37815111139E+02  0.37815111139E+02  0.00000000000E+00 0. -1.
          5    1    1    2  501    0  0.52561686035E+01  0.88631099114E+00  0.40761372057E+01  0.81925423454E+01  0.47000000000E+01 0.  1.
         -5    1    1    2    0  503 -0.52561686035E+01 -0.88631099114E+00 -0.35403809982E+02  0.36110007156E+02  0.47000000000E+01 0. -1.
<mgrwt>
<rscale>  2 0.71065361E+01</rscale>
<asrwt>0</asrwt>
<pdfrwt beam="1">  1       21 0.99806746E-03 0.71065361E+01</pdfrwt>
<pdfrwt beam="2">  1       21 0.58177093E-02 0.71065361E+01</pdfrwt>
<totfact> 0.27809060E+08</totfact>
</mgrwt>
</event>
<event>
 4    1  0.3964155E+006  0.4983488E+01  0.7546771E-02  0.2570091E+00
         21   -1    0    0  503  502  0.00000000000E+00  0.00000000000E+00  0.21506988097E+02  0.21506988097E+02  0.00000000000E+00 0.  1.
         21   -1    0    0  501  503 -0.00000000000E+00 -0.00000000000E+00 -0.13009742198E+01  0.13009742198E+01  0.00000000000E+00 0.  1.
          5    1    1    2  501    0 -0.11628066823E+01 -0.11802684955E+01  0.62797396508E+01  0.80168749013E+01  0.47000000000E+01 0.  1.
         -5    1    1    2    0  502  0.11628066823E+01  0.11802684955E+01  0.13926274226E+02  0.14791087415E+02  0.47000000000E+01 0.  1.
<mgrwt>
<rscale>  2 0.49834880E+01</rscale>
<asrwt>0</asrwt>
<pdfrwt beam="1">  1       21 0.33087672E-02 0.49834880E+01</pdfrwt>
<pdfrwt beam="2">  1       21 0.20014989E-03 0.49834880E+01</pdfrwt>
<totfact> 0.44030991E+09</totfact>
</mgrwt>
</event>
<event>
 4    1  0.3964155E+006  0.5324265E+01  0.7546771E-02  0.2512656E+00
         21   -1    0    0  501  502  0.00000000000E+00  0.00000000000E+00  0.76673673590E+00  0.76673673590E+00  0.00000000000E+00 0.  1.
         21   -1    0    0  502  503 -0.00000000000E+00 -0.00000000000E+00 -0.41221312793E+02  0.41221312793E+02  0.00000000000E+00 0.  1.
          5    1    1    2  501    0 -0.20511321833E+01 -0.14320095173E+01 -0.13486760498E+02  0.14499672521E+02  0.47000000000E+01 0.  1.
         -5    1    1    2    0  503  0.20511321833E+01  0.14320095173E+01 -0.26967815559E+02  0.27488377008E+02  0.47000000000E+01 0.  1.
<mgrwt>
<rscale>  2 0.53242647E+01</rscale>
<asrwt>0</asrwt>
<pdfrwt beam="1">  1       21 0.11795950E-03 0.53242647E+01</pdfrwt>
<pdfrwt beam="2">  1       21 0.63417401E-02 0.53242647E+01</pdfrwt>
<totfact> 0.36989395E+09</totfact>
</mgrwt>
</event>
<event>
 4    1  0.3964155E+006  0.5258258E+01  0.7546771E-02  0.2523282E+00
         21   -1    0    0  501  502  0.00000000000E+00  0.00000000000E+00  0.10348005112E+04  0.10348005112E+04  0.00000000000E+00 0.  1.
         21   -1    0    0  502  503 -0.00000000000E+00 -0.00000000000E+00 -0.53979969147E-01  0.53979969147E-01  0.00000000000E+00 0.  1.
          5    1    1    2  501    0 -0.12047442470E+01 -0.20267868643E+01  0.14966766501E+03  0.14976000542E+03  0.47000000000E+01 0.  1.
         -5    1    1    2    0  503  0.12047442470E+01  0.20267868643E+01  0.88507886622E+03  0.88509448575E+03  0.47000000000E+01 0.  1.
<mgrwt>
<rscale>  2 0.52582577E+01</rscale>
<asrwt>0</asrwt>
<pdfrwt beam="1">  1       21 0.15918419E+00 0.52582577E+01</pdfrwt>
<pdfrwt beam="2">  1       21 0.83054394E-05 0.52582577E+01</pdfrwt>
<totfact> 0.46960655E+08</totfact>
</mgrwt>
</event>
<event>
 4    1  0.3964155E+006  0.6783553E+01  0.7546771E-02  0.2323384E+00
         21   -1    0    0  503  502  0.00000000000E+00  0.00000000000E+00  0.12111929136E+02  0.12111929136E+02  0.00000000000E+00 0. -1.
         21   -1    0    0  501  503 -0.00000000000E+00 -0.00000000000E+00 -0.65405835979E+01  0.65405835979E+01  0.00000000000E+00 0. -1.
          5    1    1    2  501    0  0.34277195828E+01 -0.34896029717E+01 -0.32521143400E+01  0.75228211543E+01  0.47000000000E+01 0. -1.
         -5    1    1    2    0  502 -0.34277195828E+01  0.34896029717E+01  0.88234598776E+01  0.11129691579E+02  0.47000000000E+01 0. -1.
<mgrwt>
<rscale>  2 0.67835529E+01</rscale>
<asrwt>0</asrwt>
<pdfrwt beam="1">  1       21 0.18633737E-02 0.67835529E+01</pdfrwt>
<pdfrwt beam="2">  1       21 0.10062436E-02 0.67835529E+01</pdfrwt>
<totfact> 0.14254938E+09</totfact>
</mgrwt>
</event>
<event>
 4    1  0.3964155E+006  0.8661403E+01  0.7546771E-02  0.2160268E+00
         21   -1    0    0  501  502  0.00000000000E+00  0.00000000000E+00  0.78636281943E+00  0.78636281943E+00  0.00000000000E+00 0.  1.
         21   -1    0    0  502  503 -0.00000000000E+00 -0.00000000000E+00 -0.96425608447E+02  0.96425608447E+02  0.00000000000E+00 0. -1.
          5    1    1    2  501    0  0.72647128496E+01 -0.39223233918E+00 -0.42809531224E+02  0.43676948870E+02  0.47000000000E+01 0. -1.
         -5    1    1    2    0  503 -0.72647128496E+01  0.39223233918E+00 -0.52829714403E+02  0.53535022396E+02  0.47000000000E+01 0. -1.
<mgrwt>
<rscale>  2 0.86614028E+01</rscale>
<asrwt>0</asrwt>
<pdfrwt beam="1">  1       21 0.12097889E-03 0.86614028E+01</pdfrwt>
<pdfrwt beam="2">  1       21 0.14834710E-01 0.86614028E+01</pdfrwt>
<totfact> 0.14030735E+09</totfact>
</mgrwt>
</event>
<event>
 4    1  0.3964155E+006  0.5194809E+01  0.7546771E-02  0.2533713E+00
         21   -1    0    0  501  502  0.00000000000E+00  0.00000000000E+00  0.39115078844E+01  0.39115078844E+01  0.00000000000E+00 0.  1.
         21   -1    0    0  502  503 -0.00000000000E+00 -0.00000000000E+00 -0.11553372263E+02  0.11553372263E+02  0.00000000000E+00 0. -1.
          5    1    1    2  501    0 -0.21666691384E+01 -0.44897764103E+00  0.10868610542E+01  0.53072877281E+01  0.47000000000E+01 0.  1.
         -5    1    1    2    0  503  0.21666691384E+01  0.44897764103E+00 -0.87287254326E+01  0.10157592419E+02  0.47000000000E+01 0. -1.
<mgrwt>
<rscale>  2 0.51948086E+01</rscale>
<asrwt>0</asrwt>
<pdfrwt beam="1">  1       21 0.60177045E-03 0.51948086E+01</pdfrwt>
<pdfrwt beam="2">  1       21 0.17774419E-02 0.51948086E+01</pdfrwt>
<totfact> 0.24859413E+09</totfact>
</mgrwt>
</event>
<event>
 4    1  0.3964155E+006  0.4799067E+01  0.7546771E-02  0.2604083E+00
         21   -1    0    0  503  502  0.00000000000E+00  0.00000000000E+00  0.25302216782E+00  0.25302216782E+00  0.00000000000E+00 0. -1.
         21   -1    0    0  501  503 -0.00000000000E+00 -0.00000000000E+00 -0.45460834257E+03  0.45460834257E+03  0.00000000000E+00 0. -1.
          5    1    1    2  501    0  0.84573478742E+00 -0.47516363550E+00 -0.43056927255E+03  0.43059601660E+03  0.47000000000E+01 0. -1.
         -5    1    1    2    0  502 -0.84573478742E+00  0.47516363550E+00 -0.23786047855E+02  0.24265348140E+02  0.47000000000E+01 0. -1.
<mgrwt>
<rscale>  2 0.47990674E+01</rscale>
<asrwt>0</asrwt>
<pdfrwt beam="1">  1       21 0.38926266E-04 0.47990674E+01</pdfrwt>
<pdfrwt beam="2">  1       21 0.69940143E-01 0.47990674E+01</pdfrwt>
<totfact> 0.29640351E+08</totfact>
</mgrwt>
</event>
<event>
 4    1  0.3964155E+006  0.5854152E+01  0.7546771E-02  0.2434801E+00
         21   -1    0    0  503  502  0.00000000000E+00  0.00000000000E+00  0.28002165878E+01  0.28002165878E+01  0.00000000000E+00 0. -1.
         21   -1    0    0  501  503 -0.00000000000E+00 -0.00000000000E+00 -0.19851348260E+02  0.19851348260E+02  0.00000000000E+00 0. -1.
          5    1    1    2  501    0  0.34307969833E+01  0.64087772823E+00 -0.15539154026E+02  0.16605312404E+02  0.47000000000E+01 0. -1.
         -5    1    1    2    0  502 -0.34307969833E+01 -0.64087772823E+00 -0.15119776459E+01  0.60462524430E+01  0.47000000000E+01 0. -1.
<mgrwt>
<rscale>  2 0.58541517E+01</rscale>
<asrwt>0</asrwt>
<pdfrwt beam="1">  1       21 0.43080255E-03 0.58541517E+01</pdfrwt>
<pdfrwt beam="2">  1       21 0.30540536E-02 0.58541517E+01</pdfrwt>
<totfact> 0.20273597E+09</totfact>
</mgrwt>
</event>
<event>
 4    1  0.3964155E+006  0.6732554E+01  0.7546771E-02  0.2328831E+00
         21   -1    0    0  503  502  0.00000000000E+00  0.00000000000E+00  0.95288472161E+02  0.95288472161E+02  0.00000000000E+00 0. -1.
         21   -1    0    0  501  503 -0.00000000000E+00 -0.00000000000E+00 -0.74082730199E+00  0.74082730199E+00  0.00000000000E+00 0.  1.
          5    1    1    2  501    0 -0.44705593706E+01 -0.18031579481E+01  0.18549159933E+02  0.19733185600E+02  0.47000000000E+01 0.  1.
         -5    1    1    2    0  502  0.44705593706E+01  0.18031579481E+01  0.75998484926E+02  0.76296113864E+02  0.47000000000E+01 0. -1.
<mgrwt>
<rscale>  2 0.67325537E+01</rscale>
<asrwt>0</asrwt>
<pdfrwt beam="1">  1       21 0.14659755E-01 0.67325537E+01</pdfrwt>
<pdfrwt beam="2">  1       21 0.11397351E-03 0.67325537E+01</pdfrwt>
<totfact> 0.13073063E+09</totfact>
</mgrwt>
</event>
<event>
 4    1  0.3964155E+006  0.1263853E+02  0.7546771E-02  0.1950042E+00
         21   -1    0    0  503  502  0.00000000000E+00  0.00000000000E+00  0.83574228433E+01  0.83574228433E+01  0.00000000000E+00 0.  1.
         21   -1    0    0  501  503 -0.00000000000E+00 -0.00000000000E+00 -0.21977200198E+02  0.21977200198E+02  0.00000000000E+00 0.  1.
          5    1    1    2  501    0  0.11508561404E+02 -0.22793537286E+01 -0.12285734045E+02  0.17625881539E+02  0.47000000000E+01 0.  1.
         -5    1    1    2    0  502 -0.11508561404E+02  0.22793537286E+01 -0.13340433101E+01  0.12708741502E+02  0.47000000000E+01 0.  1.
<mgrwt>
<rscale>  2 0.12638530E+02</rscale>
<asrwt>0</asrwt>
<pdfrwt beam="1">  1       21 0.12857574E-02 0.12638530E+02</pdfrwt>
<pdfrwt beam="2">  1       21 0.33811077E-02 0.12638530E+02</pdfrwt>
<totfact> 0.60581977E+08</totfact>
</mgrwt>
</event>
<event>
 4    1  0.3964155E+006  0.7614131E+01  0.7546771E-02  0.2243200E+00
         21   -1    0    0  501  502  0.00000000000E+00  0.00000000000E+00  0.11620204837E+03  0.11620204837E+03  0.00000000000E+00 0.  1.
         21   -1    0    0  502  503 -0.00000000000E+00 -0.00000000000E+00 -0.49891719404E+00  0.49891719404E+00  0.00000000000E+00 0.  1.
          5    1    1    2  501    0  0.48206195990E+01 -0.35562078415E+01  0.57739882435E+02  0.58239754559E+02  0.47000000000E+01 0.  1.
         -5    1    1    2    0  503 -0.48206195990E+01  0.35562078415E+01  0.57963248746E+02  0.58461211009E+02  0.47000000000E+01 0.  1.
<mgrwt>
<rscale>  2 0.76141308E+01</rscale>
<asrwt>0</asrwt>
<pdfrwt beam="1">  1       21 0.17877217E-01 0.76141308E+01</pdfrwt>
<pdfrwt beam="2">  1       21 0.76756584E-04 0.76141308E+01</pdfrwt>
<totfact> 0.17728627E+09</totfact>
</mgrwt>
</event>
<event>
 4    1  0.3964155E+006  0.5070523E+01  0.7546771E-02  0.2554793E+00
         21   -1    0    0  503  502  0.00000000000E+00  0.00000000000E+00  0.71702556312E+03  0.71702556312E+03  0.00000000000E+00 0.  1.
         21   -1    0    0  501  503 -0.00000000000E+00 -0.00000000000E+00 -0.77412781675E-01  0.77412781675E-01  0.00000000000E+00 0. -1.
          5    1    1    2  501    0  0.19003561933E+01  0.94079355910E-01  0.95772764402E+02  0.95906895507E+02  0.47000000000E+01 0. -1.
         -5    1    1    2    0  502 -0.19003561933E+01 -0.94079355910E-01  0.62117538594E+03  0.62119608040E+03  0.47000000000E+01 0.  1.
<mgrwt>
<rscale>  2 0.50705231E+01</rscale>
<asrwt>0</asrwt>
<pdfrwt beam="1">  1       21 0.11030631E+00 0.50705231E+01</pdfrwt>
<pdfrwt beam="2">  1       21 0.11910233E-04 0.50705231E+01</pdfrwt>
<totfact> 0.61004052E+08</totfact>
</mgrwt>
</event>
<event>
 4    1  0.3964155E+006  0.5348476E+01  0.7546771E-02  0.2508815E+00
         21   -1    0    0  503  502  0.00000000000E+00  0.00000000000E+00  0.22204799336E-01  0.22204799336E-01  0.00000000000E+00 0. -1.
         21   -1    0    0  501  503 -0.00000000000E+00 -0.00000000000E+00 -0.18543971425E+04  0.18543971425E+04  0.00000000000E+00 0. -1.
          5    1    1    2  501    0  0.12160791185E+01 -0.22444027901E+01 -0.14394898695E+04  0.14394998057E+04  0.47000000000E+01 0.  1.
         -5    1    1    2    0  502 -0.12160791185E+01  0.22444027901E+01 -0.41488506813E+03  0.41491954154E+03  0.47000000000E+01 0.  1.
<mgrwt>
<rscale>  2 0.53484757E+01</rscale>
<asrwt>0</asrwt>
<pdfrwt beam="1">  1       21 0.34166325E-05 0.53484757E+01</pdfrwt>
<pdfrwt beam="2">  1       21 0.28524933E+00 0.53484757E+01</pdfrwt>
<totfact> 0.42488288E+08</totfact>
</mgrwt>
</event>
<event>
 4    1  0.3964155E+006  0.4718592E+01  0.7546771E-02  0.2619635E+00
         21   -1    0    0  503  502  0.00000000000E+00  0.00000000000E+00  0.53105066606E+02  0.53105066606E+02  0.00000000000E+00 0. -1.
         21   -1    0    0  501  503 -0.00000000000E+00 -0.00000000000E+00 -0.11608180080E+01  0.11608180080E+01  0.00000000000E+00 0. -1.
          5    1    1    2  501    0  0.19866226359E+00 -0.36829737630E+00  0.42858050524E+01  0.63744203344E+01  0.47000000000E+01 0. -1.
         -5    1    1    2    0  502 -0.19866226359E+00  0.36829737630E+00  0.47658443545E+02  0.47891464279E+02  0.47000000000E+01 0. -1.
<mgrwt>
<rscale>  2 0.47185919E+01</rscale>
<asrwt>0</asrwt>
<pdfrwt beam="1">  1       21 0.81700084E-02 0.47185919E+01</pdfrwt>
<pdfrwt beam="2">  1       21 0.17858743E-03 0.47185919E+01</pdfrwt>
<totfact> 0.12949578E+09</totfact>
</mgrwt>
</event>
<event>
 4    1  0.3964155E+006  0.5471353E+01  0.7546771E-02  0.2489766E+00
         21   -1    0    0  503  502  0.00000000000E+00  0.00000000000E+00  0.68126555841E+02  0.68126555841E+02  0.00000000000E+00 0. -1.
         21   -1    0    0  501  503 -0.00000000000E+00 -0.00000000000E+00 -0.13997664022E+02  0.13997664022E+02  0.00000000000E+00 0. -1.
          5    1    1    2  501    0  0.14940285339E+01 -0.23693001185E+01 -0.13348016306E+02  0.14425853307E+02  0.47000000000E+01 0. -1.
         -5    1    1    2    0  502 -0.14940285339E+01  0.23693001185E+01  0.67476908125E+02  0.67698366556E+02  0.47000000000E+01 0. -1.
<mgrwt>
<rscale>  2 0.54713531E+01</rscale>
<asrwt>0</asrwt>
<pdfrwt beam="1">  1       21 0.10481008E-01 0.54713531E+01</pdfrwt>
<pdfrwt beam="2">  1       21 0.21534868E-02 0.54713531E+01</pdfrwt>
<totfact> 0.32157270E+07</totfact>
</mgrwt>
</event>
<event>
 4    1  0.3964155E+006  0.7833812E+01  0.7546771E-02  0.2224331E+00
         21   -1    0    0  503  502  0.00000000000E+00  0.00000000000E+00  0.12516179796E+03  0.12516179796E+03  0.00000000000E+00 0.  1.
         21   -1    0    0  501  503 -0.00000000000E+00 -0.00000000000E+00 -0.49056532795E+00  0.49056532795E+00  0.00000000000E+00 0. -1.
          5    1    1    2  501    0  0.48043761421E+01  0.40244973015E+01  0.60914180351E+02  0.61415844670E+02  0.47000000000E+01 0. -1.
         -5    1    1    2    0  502 -0.48043761421E+01 -0.40244973015E+01  0.63757052284E+02  0.64236518622E+02  0.47000000000E+01 0.  1.
<mgrwt>
<rscale>  2 0.78338119E+01</rscale>
<asrwt>0</asrwt>
<pdfrwt beam="1">  1       21 0.19255636E-01 0.78338119E+01</pdfrwt>
<pdfrwt beam="2">  1       21 0.75471689E-04 0.78338119E+01</pdfrwt>
<totfact> 0.16381622E+09</totfact>
</mgrwt>
</event>
<event>
 4    1  0.3964155E+006  0.6463371E+01  0.7546771E-02  0.2358753E+00
         21   -1    0    0  503  502  0.00000000000E+00  0.00000000000E+00  0.12093562665E+03  0.12093562665E+03  0.00000000000E+00 0. -1.
         21   -1    0    0  501  503 -0.00000000000E+00 -0.00000000000E+00 -0.42746859609E+00  0.42746859609E+00  0.00000000000E+00 0. -1.
          5    1    1    2  501    0  0.21949416728E+01 -0.38558261172E+01  0.33670984094E+02  0.34285716178E+02  0.47000000000E+01 0. -1.
         -5    1    1    2    0  502 -0.21949416728E+01  0.38558261172E+01  0.86837173962E+02  0.87077379070E+02  0.47000000000E+01 0. -1.
<mgrwt>
<rscale>  2 0.64633709E+01</rscale>
<asrwt>0</asrwt>
<pdfrwt beam="1">  1       21 0.18605454E-01 0.64633709E+01</pdfrwt>
<pdfrwt beam="2">  1       21 0.65764496E-04 0.64633709E+01</pdfrwt>
<totfact> 0.18176354E+09</totfact>
</mgrwt>
</event>
<event>
 4    1  0.3964155E+006  0.1062174E+02  0.7546771E-02  0.2041240E+00
         21   -1    0    0  501  502  0.00000000000E+00  0.00000000000E+00  0.97191336305E+00  0.97191336305E+00  0.00000000000E+00 0. -1.
         21   -1    0    0  502  503 -0.00000000000E+00 -0.00000000000E+00 -0.22902676036E+03  0.22902676036E+03  0.00000000000E+00 0.  1.
          5    1    1    2  501    0 -0.23584472784E+01 -0.92287076388E+01 -0.33269356445E+02  0.34923794131E+02  0.47000000000E+01 0. -1.
         -5    1    1    2    0  503  0.23584472784E+01  0.92287076388E+01 -0.19478549055E+03  0.19507487959E+03  0.47000000000E+01 0.  1.
<mgrwt>
<rscale>  2 0.10621738E+02</rscale>
<asrwt>0</asrwt>
<pdfrwt beam="1">  1       21 0.14952513E-03 0.10621738E+02</pdfrwt>
<pdfrwt beam="2">  1       21 0.35234888E-01 0.10621738E+02</pdfrwt>
<totfact> 0.27028108E+08</totfact>
</mgrwt>
</event>
<event>
 4    1  0.3964155E+006  0.6494498E+01  0.7546771E-02  0.2355189E+00
         21   -1    0    0  501  502  0.00000000000E+00  0.00000000000E+00  0.27797411496E+01  0.27797411496E+01  0.00000000000E+00 0.  1.
         21   -1    0    0  502  503 -0.00000000000E+00 -0.00000000000E+00 -0.21741672615E+02  0.21741672615E+02  0.00000000000E+00 0. -1.
          5    1    1    2  501    0  0.36535654078E+01 -0.25961451924E+01 -0.27420499077E+01  0.70496345824E+01  0.47000000000E+01 0.  1.
         -5    1    1    2    0  503 -0.36535654078E+01  0.25961451924E+01 -0.16219881558E+02  0.17471779182E+02  0.47000000000E+01 0. -1.
<mgrwt>
<rscale>  2 0.64944984E+01</rscale>
<asrwt>0</asrwt>
<pdfrwt beam="1">  1       21 0.42765249E-03 0.64944984E+01</pdfrwt>
<pdfrwt beam="2">  1       21 0.33448727E-02 0.64944984E+01</pdfrwt>
<totfact> 0.19578883E+09</totfact>
</mgrwt>
</event>
<event>
 4    1  0.3964155E+006  0.6332937E+01  0.7546771E-02  0.2374006E+00
         21   -1    0    0  501  502  0.00000000000E+00  0.00000000000E+00  0.81965179220E+03  0.81965179220E+03  0.00000000000E+00 0. -1.
         21   -1    0    0  502  503 -0.00000000000E+00 -0.00000000000E+00 -0.58800862782E+00  0.58800862782E+00  0.00000000000E+00 0. -1.
          5    1    1    2  501    0  0.70195943014E+00 -0.41860894619E+01  0.80221732450E+03  0.80224232113E+03  0.47000000000E+01 0. -1.
         -5    1    1    2    0  503 -0.70195943014E+00  0.41860894619E+01  0.16846459072E+02  0.17997479692E+02  0.47000000000E+01 0. -1.
<mgrwt>
<rscale>  2 0.63329371E+01</rscale>
<asrwt>0</asrwt>
<pdfrwt beam="1">  1       21 0.12609936E+00 0.63329371E+01</pdfrwt>
<pdfrwt beam="2">  1       21 0.90463522E-04 0.63329371E+01</pdfrwt>
<totfact> 0.35655926E+07</totfact>
</mgrwt>
</event>
<event>
 4    1  0.3964155E+006  0.6656512E+01  0.7546771E-02  0.2337081E+00
         21   -1    0    0  501  502  0.00000000000E+00  0.00000000000E+00  0.10504694869E+01  0.10504694869E+01  0.00000000000E+00 0. -1.
         21   -1    0    0  502  503 -0.00000000000E+00 -0.00000000000E+00 -0.17413661969E+03  0.17413661969E+03  0.00000000000E+00 0.  1.
          5    1    1    2  501    0  0.18632499151E+01 -0.43298331927E+01 -0.10292682457E+02  0.12257588176E+02  0.47000000000E+01 0. -1.
         -5    1    1    2    0  503 -0.18632499151E+01  0.43298331927E+01 -0.16279346774E+03  0.16292950100E+03  0.47000000000E+01 0.  1.
<mgrwt>
<rscale>  2 0.66565123E+01</rscale>
<asrwt>0</asrwt>
<pdfrwt beam="1">  1       21 0.16161086E-03 0.66565123E+01</pdfrwt>
<pdfrwt beam="2">  1       21 0.26790221E-01 0.66565123E+01</pdfrwt>
<totfact> 0.30225089E+08</totfact>
</mgrwt>
</event>
<event>
 4    1  0.3964155E+006  0.7470350E+01  0.7546771E-02  0.2256035E+00
         21   -1    0    0  501  502  0.00000000000E+00  0.00000000000E+00  0.15503771943E+03  0.15503771943E+03  0.00000000000E+00 0.  1.
         21   -1    0    0  502  503 -0.00000000000E+00 -0.00000000000E+00 -0.36263293033E+00  0.36263293033E+00  0.00000000000E+00 0. -1.
          5    1    1    2  501    0 -0.46050429971E+01  0.35369065336E+01  0.70656634947E+02  0.71050448210E+02  0.47000000000E+01 0. -1.
         -5    1    1    2    0  503  0.46050429971E+01 -0.35369065336E+01  0.84018451553E+02  0.84349904151E+02  0.47000000000E+01 0.  1.
<mgrwt>
<rscale>  2 0.74703500E+01</rscale>
<asrwt>0</asrwt>
<pdfrwt beam="1">  1       21 0.23851904E-01 0.74703500E+01</pdfrwt>
<pdfrwt beam="2">  1       21 0.55789805E-04 0.74703500E+01</pdfrwt>
<totfact> 0.16759838E+09</totfact>
</mgrwt>
</event>
<event>
 4    1  0.3964155E+006  0.6638776E+01  0.7546771E-02  0.2339028E+00
         21   -1    0    0  503  502  0.00000000000E+00  0.00000000000E+00  0.11245606381E+02  0.11245606381E+02  0.00000000000E+00 0.  1.
         21   -1    0    0  501  503 -0.00000000000E+00 -0.00000000000E+00 -0.45005349565E+01  0.45005349565E+01  0.00000000000E+00 0. -1.
          5    1    1    2  501    0 -0.46546632847E+01  0.56343369255E+00  0.54284042429E+00  0.66609326333E+01  0.47000000000E+01 0. -1.
         -5    1    1    2    0  502  0.46546632847E+01 -0.56343369255E+00  0.62022310006E+01  0.90852087045E+01  0.47000000000E+01 0.  1.
<mgrwt>
<rscale>  2 0.66387761E+01</rscale>
<asrwt>0</asrwt>
<pdfrwt beam="1">  1       21 0.17300933E-02 0.66387761E+01</pdfrwt>
<pdfrwt beam="2">  1       21 0.69239000E-03 0.66387761E+01</pdfrwt>
<totfact> 0.26469781E+09</totfact>
</mgrwt>
</event>
<event>
 4    1  0.3964155E+006  0.1062762E+02  0.7546771E-02  0.2040935E+00
         21   -1    0    0  503  502  0.00000000000E+00  0.00000000000E+00  0.12305855291E+02  0.12305855291E+02  0.00000000000E+00 0.  1.
         21   -1    0    0  501  503 -0.00000000000E+00 -0.00000000000E+00 -0.26640788439E+02  0.26640788439E+02  0.00000000000E+00 0. -1.
          5    1    1    2  501    0 -0.47383725932E+01  0.82706774077E+01 -0.22933415993E+02  0.25276230904E+02  0.47000000000E+01 0. -1.
         -5    1    1    2    0  502  0.47383725932E+01 -0.82706774077E+01  0.85984828444E+01  0.13670412826E+02  0.47000000000E+01 0.  1.
<mgrwt>
<rscale>  2 0.10627619E+02</rscale>
<asrwt>0</asrwt>
<pdfrwt beam="1">  1       21 0.18932085E-02 0.10627619E+02</pdfrwt>
<pdfrwt beam="2">  1       21 0.40985828E-02 0.10627619E+02</pdfrwt>
<totfact> 0.23419569E+08</totfact>
</mgrwt>
</event>
<event>
 4    1  0.3964155E+006  0.5001540E+01  0.7546771E-02  0.2566881E+00
         21   -1    0    0  503  502  0.00000000000E+00  0.00000000000E+00  0.21517623571E+02  0.21517623571E+02  0.00000000000E+00 0. -1.
         21   -1    0    0  501  503 -0.00000000000E+00 -0.00000000000E+00 -0.21260362618E+01  0.21260362618E+01  0.00000000000E+00 0. -1.
          5    1    1    2  501    0  0.12198217371E+01 -0.11989333939E+01  0.17374779892E+01  0.52947366427E+01  0.47000000000E+01 0. -1.
         -5    1    1    2    0  502 -0.12198217371E+01  0.11989333939E+01  0.17654109320E+02  0.18348923190E+02  0.47000000000E+01 0. -1.
<mgrwt>
<rscale>  2 0.50015404E+01</rscale>
<asrwt>0</asrwt>
<pdfrwt beam="1">  1       21 0.33104035E-02 0.50015404E+01</pdfrwt>
<pdfrwt beam="2">  1       21 0.32708252E-03 0.50015404E+01</pdfrwt>
<totfact> 0.22723936E+09</totfact>
</mgrwt>
</event>
<event>
 4    1  0.3964155E+006  0.9771253E+01  0.7546771E-02  0.2088244E+00
         21   -1    0    0  501  502  0.00000000000E+00  0.00000000000E+00  0.15599614834E+02  0.15599614834E+02  0.00000000000E+00 0. -1.
         21   -1    0    0  502  503 -0.00000000000E+00 -0.00000000000E+00 -0.71007580131E+01  0.71007580131E+01  0.00000000000E+00 0.  1.
          5    1    1    2  501    0  0.80585209239E+01  0.29064808606E+01  0.32253839592E-01  0.97713065034E+01  0.47000000000E+01 0.  1.
         -5    1    1    2    0  503 -0.80585209239E+01 -0.29064808606E+01  0.84666029811E+01  0.12929066343E+02  0.47000000000E+01 0. -1.
<mgrwt>
<rscale>  2 0.97712533E+01</rscale>
<asrwt>0</asrwt>
<pdfrwt beam="1">  1       21 0.23999407E-02 0.97712533E+01</pdfrwt>
<pdfrwt beam="2">  1       21 0.10924243E-02 0.97712533E+01</pdfrwt>
<totfact> 0.11212379E+09</totfact>
</mgrwt>
</event>
<event>
 4    1  0.3964155E+006  0.6491206E+01  0.7546771E-02  0.2355564E+00
         21   -1    0    0  503  502  0.00000000000E+00  0.00000000000E+00  0.14994391424E+01  0.14994391424E+01  0.00000000000E+00 0. -1.
         21   -1    0    0  501  503 -0.00000000000E+00 -0.00000000000E+00 -0.44709209437E+02  0.44709209437E+02  0.00000000000E+00 0. -1.
          5    1    1    2  501    0 -0.44297215951E+01  0.65062972018E+00 -0.35686616947E+02  0.36272170897E+02  0.47000000000E+01 0. -1.
         -5    1    1    2    0  502  0.44297215951E+01 -0.65062972018E+00 -0.75231533471E+01  0.99364776821E+01  0.47000000000E+01 0. -1.
<mgrwt>
<rscale>  2 0.64912058E+01</rscale>
<asrwt>0</asrwt>
<pdfrwt beam="1">  1       21 0.23068294E-03 0.64912058E+01</pdfrwt>
<pdfrwt beam="2">  1       21 0.68783401E-02 0.64912058E+01</pdfrwt>
<totfact> 0.15694223E+09</totfact>
</mgrwt>
</event>
<event>
 4    1  0.3964155E+006  0.4839238E+01  0.7546771E-02  0.2596488E+00
         21   -1    0    0  503  502  0.00000000000E+00  0.00000000000E+00  0.82027134339E+01  0.82027134339E+01  0.00000000000E+00 0. -1.
         21   -1    0    0  501  503 -0.00000000000E+00 -0.00000000000E+00 -0.28571836882E+01  0.28571836882E+01  0.00000000000E+00 0. -1.
          5    1    1    2  501    0  0.11413460703E+01  0.15986992416E+00  0.28278368377E+01  0.56048987882E+01  0.47000000000E+01 0. -1.
         -5    1    1    2    0  502 -0.11413460703E+01 -0.15986992416E+00  0.25176929080E+01  0.54549983340E+01  0.47000000000E+01 0. -1.
<mgrwt>
<rscale>  2 0.48392385E+01</rscale>
<asrwt>0</asrwt>
<pdfrwt beam="1">  1       21 0.12619559E-02 0.48392385E+01</pdfrwt>
<pdfrwt beam="2">  1       21 0.43956672E-03 0.48392385E+01</pdfrwt>
<totfact> 0.57580572E+09</totfact>
</mgrwt>
</event>
<event>
 4    1  0.3964155E+006  0.5680283E+01  0.7546771E-02  0.2458990E+00
         21   -1    0    0  503  502  0.00000000000E+00  0.00000000000E+00  0.19733567872E+03  0.19733567872E+03  0.00000000000E+00 0.  1.
         21   -1    0    0  501  503 -0.00000000000E+00 -0.00000000000E+00 -0.16545366412E+00  0.16545366412E+00  0.00000000000E+00 0. -1.
          5    1    1    2  501    0  0.28951855924E+01 -0.13392202182E+01  0.10929868172E+03  0.10944618512E+03  0.47000000000E+01 0. -1.
         -5    1    1    2    0  502 -0.28951855924E+01  0.13392202182E+01  0.87871543331E+02  0.88054947265E+02  0.47000000000E+01 0.  1.
<mgrwt>
<rscale>  2 0.56802826E+01</rscale>
<asrwt>0</asrwt>
<pdfrwt beam="1">  1       21 0.30359147E-01 0.56802826E+01</pdfrwt>
<pdfrwt beam="2">  1       21 0.25454568E-04 0.56802826E+01</pdfrwt>
<totfact> 0.26065685E+09</totfact>
</mgrwt>
</event>
<event>
 4    1  0.3964155E+006  0.5910192E+01  0.7546771E-02  0.2427261E+00
         21   -1    0    0  503  502  0.00000000000E+00  0.00000000000E+00  0.29907232403E+01  0.29907232403E+01  0.00000000000E+00 0. -1.
         21   -1    0    0  501  503 -0.00000000000E+00 -0.00000000000E+00 -0.13464919059E+02  0.13464919059E+02  0.00000000000E+00 0.  1.
          5    1    1    2  501    0 -0.35797686371E+01  0.16008129662E+00 -0.82331144734E+01  0.10134818373E+02  0.47000000000E+01 0.  1.
         -5    1    1    2    0  502  0.35797686371E+01 -0.16008129662E+00 -0.22410813456E+01  0.63208239269E+01  0.47000000000E+01 0. -1.
<mgrwt>
<rscale>  2 0.59101920E+01</rscale>
<asrwt>0</asrwt>
<pdfrwt beam="1">  1       21 0.46011126E-03 0.59101920E+01</pdfrwt>
<pdfrwt beam="2">  1       21 0.20715261E-02 0.59101920E+01</pdfrwt>
<totfact> 0.32695612E+09</totfact>
</mgrwt>
</event>
<event>
 4    1  0.3964155E+006  0.4855682E+01  0.7546771E-02  0.2593410E+00
         21   -1    0    0  501  502  0.00000000000E+00  0.00000000000E+00  0.24268402757E+03  0.24268402757E+03  0.00000000000E+00 0. -1.
         21   -1    0    0  502  503 -0.00000000000E+00 -0.00000000000E+00 -0.12586604937E+00  0.12586604937E+00  0.00000000000E+00 0. -1.
          5    1    1    2  501    0 -0.11450537861E+01 -0.42012252894E+00  0.17926418610E+03  0.17932993634E+03  0.47000000000E+01 0. -1.
         -5    1    1    2    0  503  0.11450537861E+01  0.42012252894E+00  0.63293975422E+02  0.63479957277E+02  0.47000000000E+01 0. -1.
<mgrwt>
<rscale>  2 0.48556824E+01</rscale>
<asrwt>0</asrwt>
<pdfrwt beam="1">  1       21 0.37335630E-01 0.48556824E+01</pdfrwt>
<pdfrwt beam="2">  1       21 0.19364202E-04 0.48556824E+01</pdfrwt>
<totfact> 0.23020488E+09</totfact>
</mgrwt>
</event>
<event>
 4    1  0.3964155E+006  0.8529335E+01  0.7546771E-02  0.2169820E+00
         21   -1    0    0  503  502  0.00000000000E+00  0.00000000000E+00  0.95752848214E+00  0.95752848214E+00  0.00000000000E+00 0. -1.
         21   -1    0    0  501  503 -0.00000000000E+00 -0.00000000000E+00 -0.10284114098E+03  0.10284114098E+03  0.00000000000E+00 0. -1.
          5    1    1    2  501    0 -0.40673109098E+01 -0.58409365741E+01 -0.77467683246E+02  0.77935816577E+02  0.47000000000E+01 0. -1.
         -5    1    1    2    0  502  0.40673109098E+01  0.58409365741E+01 -0.24415929252E+02  0.25862852885E+02  0.47000000000E+01 0. -1.
<mgrwt>
<rscale>  2 0.85293351E+01</rscale>
<asrwt>0</asrwt>
<pdfrwt beam="1">  1       21 0.14731219E-03 0.85293351E+01</pdfrwt>
<pdfrwt beam="2">  1       21 0.15821701E-01 0.85293351E+01</pdfrwt>
<totfact> 0.95474936E+08</totfact>
</mgrwt>
</event>
<event>
 4    1  0.3964155E+006  0.1140407E+02  0.7546771E-02  0.2002909E+00
         21   -1    0    0  501  502  0.00000000000E+00  0.00000000000E+00  0.67076516021E+00  0.67076516021E+00  0.00000000000E+00 0.  1.
         21   -1    0    0  502  503 -0.00000000000E+00 -0.00000000000E+00 -0.37147570592E+03  0.37147570592E+03  0.00000000000E+00 0. -1.
          5    1    1    2  501    0  0.21776622092E+01  0.10159758979E+02 -0.56747704410E+02  0.57882250051E+02  0.47000000000E+01 0.  1.
         -5    1    1    2    0  503 -0.21776622092E+01 -0.10159758979E+02 -0.31405723635E+03  0.31426422103E+03  0.47000000000E+01 0. -1.
<mgrwt>
<rscale>  2 0.11404075E+02</rscale>
<asrwt>0</asrwt>
<pdfrwt beam="1">  1       21 0.10319450E-03 0.11404075E+02</pdfrwt>
<pdfrwt beam="2">  1       21 0.57150187E-01 0.11404075E+02</pdfrwt>
<totfact> 0.19121268E+08</totfact>
</mgrwt>
</event>
<event>
 4    1  0.3964155E+006  0.5239995E+01  0.7546771E-02  0.2526262E+00
         21   -1    0    0  503  502  0.00000000000E+00  0.00000000000E+00  0.74694434336E+02  0.74694434336E+02  0.00000000000E+00 0. -1.
         21   -1    0    0  501  503 -0.00000000000E+00 -0.00000000000E+00 -0.37374441430E+00  0.37374441430E+00  0.00000000000E+00 0. -1.
          5    1    1    2  501    0  0.20717766513E+01  0.10369614624E+01  0.32347092795E+02  0.32768765004E+02  0.47000000000E+01 0. -1.
         -5    1    1    2    0  502 -0.20717766513E+01 -0.10369614624E+01  0.41973597127E+02  0.42299413747E+02  0.47000000000E+01 0. -1.
<mgrwt>
<rscale>  2 0.52399950E+01</rscale>
<asrwt>0</asrwt>
<pdfrwt beam="1">  1       21 0.11491440E-01 0.52399950E+01</pdfrwt>
<pdfrwt beam="2">  1       21 0.57499200E-04 0.52399950E+01</pdfrwt>
<totfact> 0.38711592E+09</totfact>
</mgrwt>
</event>
<event>
 4    1  0.3964155E+006  0.5692378E+01  0.7546771E-02  0.2457267E+00
         21   -1    0    0  501  502  0.00000000000E+00  0.00000000000E+00  0.50947677639E+01  0.50947677639E+01  0.00000000000E+00 0.  1.
         21   -1    0    0  502  503 -0.00000000000E+00 -0.00000000000E+00 -0.67060760474E+01  0.67060760474E+01  0.00000000000E+00 0. -1.
          5    1    1    2  501    0  0.16813650468E+00  0.32070079529E+01 -0.21458848141E+01  0.60834193945E+01  0.47000000000E+01 0. -1.
         -5    1    1    2    0  503 -0.16813650468E+00 -0.32070079529E+01  0.53457653057E+00  0.57174244168E+01  0.47000000000E+01 0.  1.
<mgrwt>
<rscale>  2 0.56923782E+01</rscale>
<asrwt>0</asrwt>
<pdfrwt beam="1">  1       21 0.78381043E-03 0.56923782E+01</pdfrwt>
<pdfrwt beam="2">  1       21 0.10317040E-02 0.56923782E+01</pdfrwt>
<totfact> 0.40532854E+09</totfact>
</mgrwt>
</event>
<event>
 4    1  0.3964155E+006  0.4734517E+01  0.7546771E-02  0.2616521E+00
         21   -1    0    0  503  502  0.00000000000E+00  0.00000000000E+00  0.17971162587E+02  0.17971162587E+02  0.00000000000E+00 0.  1.
         21   -1    0    0  501  503 -0.00000000000E+00 -0.00000000000E+00 -0.26279135363E+01  0.26279135363E+01  0.00000000000E+00 0.  1.
          5    1    1    2  501    0 -0.18102692943E+00  0.54118619832E+00  0.20634059391E+00  0.47390114677E+01  0.47000000000E+01 0.  1.
         -5    1    1    2    0  502  0.18102692943E+00 -0.54118619832E+00  0.15136908457E+02  0.15860064656E+02  0.47000000000E+01 0.  1.
<mgrwt>
<rscale>  2 0.47345172E+01</rscale>
<asrwt>0</asrwt>
<pdfrwt beam="1">  1       21 0.27647942E-02 0.47345172E+01</pdfrwt>
<pdfrwt beam="2">  1       21 0.40429440E-03 0.47345172E+01</pdfrwt>
<totfact> 0.20844613E+09</totfact>
</mgrwt>
</event>
<event>
 4    1  0.3964155E+006  0.5208687E+01  0.7546771E-02  0.2531413E+00
         21   -1    0    0  501  502  0.00000000000E+00  0.00000000000E+00  0.34163200387E+02  0.34163200387E+02  0.00000000000E+00 0. -1.
         21   -1    0    0  502  503 -0.00000000000E+00 -0.00000000000E+00 -0.22802868043E+01  0.22802868043E+01  0.00000000000E+00 0. -1.
          5    1    1    2  501    0 -0.22429416370E+01  0.98169841796E-01  0.30651901135E+02  0.31091308556E+02  0.47000000000E+01 0. -1.
         -5    1    1    2    0  503  0.22429416370E+01 -0.98169841796E-01  0.12310124479E+01  0.53521786360E+01  0.47000000000E+01 0. -1.
<mgrwt>
<rscale>  2 0.52086874E+01</rscale>
<asrwt>0</asrwt>
<pdfrwt beam="1">  1       21 0.52558766E-02 0.52086874E+01</pdfrwt>
<pdfrwt beam="2">  1       21 0.35081338E-03 0.52086874E+01</pdfrwt>
<totfact> 0.10965751E+09</totfact>
</mgrwt>
</event>
<event>
 4    1  0.3964155E+006  0.4724249E+01  0.7546771E-02  0.2618527E+00
         21   -1    0    0  503  502  0.00000000000E+00  0.00000000000E+00  0.58469588656E+01  0.58469588656E+01  0.00000000000E+00 0.  1.
         21   -1    0    0  501  503 -0.00000000000E+00 -0.00000000000E+00 -0.80708682579E+01  0.80708682579E+01  0.00000000000E+00 0.  1.
          5    1    1    2  501    0 -0.15642019743E+00 -0.45173288020E+00 -0.61640010316E+01  0.77661727119E+01  0.47000000000E+01 0.  1.
         -5    1    1    2    0  502  0.15642019743E+00  0.45173288020E+00  0.39400916393E+01  0.61516544116E+01  0.47000000000E+01 0.  1.
<mgrwt>
<rscale>  2 0.47242491E+01</rscale>
<asrwt>0</asrwt>
<pdfrwt beam="1">  1       21 0.89953213E-03 0.47242491E+01</pdfrwt>
<pdfrwt beam="2">  1       21 0.12416720E-02 0.47242491E+01</pdfrwt>
<totfact> 0.21427209E+09</totfact>
</mgrwt>
</event>
<event>
 4    1  0.3964155E+006  0.8842607E+01  0.7546771E-02  0.2147534E+00
         21   -1    0    0  503  502  0.00000000000E+00  0.00000000000E+00  0.12671237120E+04  0.12671237120E+04  0.00000000000E+00 0.  1.
         21   -1    0    0  501  503 -0.00000000000E+00 -0.00000000000E+00 -0.31584723545E+00  0.31584723545E+00  0.00000000000E+00 0. -1.
          5    1    1    2  501    0 -0.39322466204E+01  0.63748829007E+01  0.64950929652E+02  0.65550095028E+02  0.47000000000E+01 0. -1.
         -5    1    1    2    0  502  0.39322466204E+01 -0.63748829007E+01  0.12018569351E+04  0.12018894642E+04  0.47000000000E+01 0.  1.
<mgrwt>
<rscale>  2 0.88426068E+01</rscale>
<asrwt>0</asrwt>
<pdfrwt beam="1">  1       21 0.19493804E+00 0.88426068E+01</pdfrwt>
<pdfrwt beam="2">  1       21 0.48592897E-04 0.88426068E+01</pdfrwt>
<totfact> 0.36421972E+07</totfact>
</mgrwt>
</event>
<event>
 4    1  0.3964155E+006  0.5353398E+01  0.7546771E-02  0.2508037E+00
         21   -1    0    0  503  502  0.00000000000E+00  0.00000000000E+00  0.44396432739E+01  0.44396432739E+01  0.00000000000E+00 0. -1.
         21   -1    0    0  501  503 -0.00000000000E+00 -0.00000000000E+00 -0.90972152232E+02  0.90972152232E+02  0.00000000000E+00 0. -1.
          5    1    1    2  501    0  0.89544695964E+00  0.24014676102E+01 -0.89248449805E+02  0.89408862337E+02  0.47000000000E+01 0. -1.
         -5    1    1    2    0  502 -0.89544695964E+00 -0.24014676102E+01  0.27159408467E+01  0.60029331683E+01  0.47000000000E+01 0. -1.
<mgrwt>
<rscale>  2 0.53533982E+01</rscale>
<asrwt>0</asrwt>
<pdfrwt beam="1">  1       21 0.68302200E-03 0.53533982E+01</pdfrwt>
<pdfrwt beam="2">  1       21 0.13995717E-01 0.53533982E+01</pdfrwt>
<totfact> 0.10226283E+08</totfact>
</mgrwt>
</event>
<event>
 4    1  0.3964155E+006  0.7968511E+01  0.7546771E-02  0.2213178E+00
         21   -1    0    0  501  502  0.00000000000E+00  0.00000000000E+00  0.75595385237E+00  0.75595385237E+00  0.00000000000E+00 0. -1.
         21   -1    0    0  502  503 -0.00000000000E+00 -0.00000000000E+00 -0.83996088768E+02  0.83996088768E+02  0.00000000000E+00 0.  1.
          5    1    1    2  501    0 -0.59146618699E+01  0.25345495791E+01 -0.41617239023E+02  0.42373243332E+02  0.47000000000E+01 0. -1.
         -5    1    1    2    0  503  0.59146618699E+01 -0.25345495791E+01 -0.41622895892E+02  0.42378799288E+02  0.47000000000E+01 0.  1.
<mgrwt>
<rscale>  2 0.79685109E+01</rscale>
<asrwt>0</asrwt>
<pdfrwt beam="1">  1       21 0.11630066E-03 0.79685109E+01</pdfrwt>
<pdfrwt beam="2">  1       21 0.12922467E-01 0.79685109E+01</pdfrwt>
<totfact> 0.17509775E+09</totfact>
</mgrwt>
</event>
<event>
 4    1  0.3964155E+006  0.1178593E+02  0.7546771E-02  0.1985647E+00
         21   -1    0    0  501  502  0.00000000000E+00  0.00000000000E+00  0.10937612202E+00  0.10937612202E+00  0.00000000000E+00 0.  1.
         21   -1    0    0  502  503 -0.00000000000E+00 -0.00000000000E+00 -0.12860847839E+04  0.12860847839E+04  0.00000000000E+00 0. -1.
          5    1    1    2  501    0  0.67466034700E+01  0.84440187083E+01 -0.71489875063E+03  0.71499589633E+03  0.47000000000E+01 0.  1.
         -5    1    1    2    0  503 -0.67466034700E+01 -0.84440187083E+01 -0.57107665713E+03  0.57119826368E+03  0.47000000000E+01 0. -1.
<mgrwt>
<rscale>  2 0.11785928E+02</rscale>
<asrwt>0</asrwt>
<pdfrwt beam="1">  1       21 0.16827273E-04 0.11785928E+02</pdfrwt>
<pdfrwt beam="2">  1       21 0.19785711E+00 0.11785928E+02</pdfrwt>
<totfact> 0.16421811E+08</totfact>
</mgrwt>
</event>
<event>
 4    1  0.3964155E+006  0.9568101E+01  0.7546771E-02  0.2100434E+00
         21   -1    0    0  501  502  0.00000000000E+00  0.00000000000E+00  0.15717779694E+01  0.15717779694E+01  0.00000000000E+00 0. -1.
         21   -1    0    0  502  503 -0.00000000000E+00 -0.00000000000E+00 -0.82899550792E+02  0.82899550792E+02  0.00000000000E+00 0. -1.
          5    1    1    2  501    0 -0.19909328310E+01  0.80928826133E+01 -0.17630923888E+02  0.20059861407E+02  0.47000000000E+01 0. -1.
         -5    1    1    2    0  503  0.19909328310E+01 -0.80928826133E+01 -0.63696848934E+02  0.64411467354E+02  0.47000000000E+01 0. -1.
<mgrwt>
<rscale>  2 0.95681013E+01</rscale>
<asrwt>0</asrwt>
<pdfrwt beam="1">  1       21 0.24181200E-03 0.95681013E+01</pdfrwt>
<pdfrwt beam="2">  1       21 0.12753777E-01 0.95681013E+01</pdfrwt>
<totfact> 0.72721539E+08</totfact>
</mgrwt>
</event>
<event>
 4    1  0.3964155E+006  0.6785267E+01  0.7546771E-02  0.2323202E+00
         21   -1    0    0  501  502  0.00000000000E+00  0.00000000000E+00  0.25343866271E+04  0.25343866271E+04  0.00000000000E+00 0.  1.
         21   -1    0    0  502  503 -0.00000000000E+00 -0.00000000000E+00 -0.48941756927E-01  0.48941756927E-01  0.00000000000E+00 0. -1.
          5    1    1    2  501    0 -0.33509452939E+01 -0.35666525339E+01  0.22720515200E+04  0.22720616517E+04  0.47000000000E+01 0.  1.
         -5    1    1    2    0  503  0.33509452939E+01  0.35666525339E+01  0.26228616538E+03  0.26237391714E+03  0.47000000000E+01 0. -1.
<mgrwt>
<rscale>  2 0.67852667E+01</rscale>
<asrwt>0</asrwt>
<pdfrwt beam="1">  1       21 0.38980055E+00 0.67852667E+01</pdfrwt>
<pdfrwt beam="2">  1       21 0.75315309E-05 0.67852667E+01</pdfrwt>
<totfact> 0.59884220E+07</totfact>
</mgrwt>
</event>
<event>
 4    1  0.3964155E+006  0.7743028E+01  0.7546771E-02  0.2232023E+00
         21   -1    0    0  503  502  0.00000000000E+00  0.00000000000E+00  0.61352360787E+01  0.61352360787E+01  0.00000000000E+00 0. -1.
         21   -1    0    0  501  503 -0.00000000000E+00 -0.00000000000E+00 -0.19016086724E+02  0.19016086724E+02  0.00000000000E+00 0. -1.
          5    1    1    2  501    0  0.48425129280E+01  0.37966495806E+01 -0.15208386523E+02  0.17066033521E+02  0.47000000000E+01 0. -1.
         -5    1    1    2    0  502 -0.48425129280E+01 -0.37966495806E+01  0.23275358785E+01  0.80852892812E+01  0.47000000000E+01 0. -1.
<mgrwt>
<rscale>  2 0.77430278E+01</rscale>
<asrwt>0</asrwt>
<pdfrwt beam="1">  1       21 0.94388248E-03 0.77430278E+01</pdfrwt>
<pdfrwt beam="2">  1       21 0.29255518E-02 0.77430278E+01</pdfrwt>
<totfact> 0.88971227E+08</totfact>
</mgrwt>
</event>
<event>
 4    1  0.3964155E+006  0.8614125E+01  0.7546771E-02  0.2163660E+00
         21   -1    0    0  501  502  0.00000000000E+00  0.00000000000E+00  0.50801147715E+01  0.50801147715E+01  0.00000000000E+00 0.  1.
         21   -1    0    0  502  503 -0.00000000000E+00 -0.00000000000E+00 -0.25388408255E+03  0.25388408255E+03  0.00000000000E+00 0. -1.
          5    1    1    2  501    0  0.71378046178E+01 -0.10792994879E+01  0.13002280127E+01  0.87117010412E+01  0.47000000000E+01 0.  1.
         -5    1    1    2    0  503 -0.71378046178E+01  0.10792994879E+01 -0.25010419579E+03  0.25025249628E+03  0.47000000000E+01 0. -1.
<mgrwt>
<rscale>  2 0.86141246E+01</rscale>
<asrwt>0</asrwt>
<pdfrwt beam="1">  1       21 0.78155606E-03 0.86141246E+01</pdfrwt>
<pdfrwt beam="2">  1       21 0.39059093E-01 0.86141246E+01</pdfrwt>
<totfact> 0.19899023E+07</totfact>
</mgrwt>
</event>
<event>
 4    1  0.3964155E+006  0.8379707E+01  0.7546771E-02  0.2180931E+00
         21   -1    0    0  503  502  0.00000000000E+00  0.00000000000E+00  0.89045786156E+00  0.89045786156E+00  0.00000000000E+00 0. -1.
         21   -1    0    0  501  503 -0.00000000000E+00 -0.00000000000E+00 -0.78893765696E+02  0.78893765696E+02  0.00000000000E+00 0.  1.
          5    1    1    2  501    0  0.66093990925E+01  0.21083962598E+01 -0.39854154569E+02  0.40725583208E+02  0.47000000000E+01 0.  1.
         -5    1    1    2    0  502 -0.66093990925E+01 -0.21083962598E+01 -0.38149153265E+02  0.39058640350E+02  0.47000000000E+01 0.  1.
<mgrwt>
<rscale>  2 0.83797071E+01</rscale>
<asrwt>0</asrwt>
<pdfrwt beam="1">  1       21 0.13699353E-03 0.83797071E+01</pdfrwt>
<pdfrwt beam="2">  1       21 0.12137501E-01 0.83797071E+01</pdfrwt>
<totfact> 0.15974926E+09</totfact>
</mgrwt>
</event>
<event>
 4    1  0.3964155E+006  0.5855787E+01  0.7546771E-02  0.2434580E+00
         21   -1    0    0  501  502  0.00000000000E+00  0.00000000000E+00  0.18944566733E+01  0.18944566733E+01  0.00000000000E+00 0.  1.
         21   -1    0    0  502  503 -0.00000000000E+00 -0.00000000000E+00 -0.19454152189E+02  0.19454152189E+02  0.00000000000E+00 0.  1.
          5    1    1    2  501    0 -0.34160742938E+01  0.72847375762E+00 -0.59639378106E+01  0.83581572015E+01  0.47000000000E+01 0.  1.
         -5    1    1    2    0  503  0.34160742938E+01 -0.72847375762E+00 -0.11595757706E+02  0.12990451661E+02  0.47000000000E+01 0.  1.
<mgrwt>
<rscale>  2 0.58557867E+01</rscale>
<asrwt>0</asrwt>
<pdfrwt beam="1">  1       21 0.29145488E-03 0.58557867E+01</pdfrwt>
<pdfrwt beam="2">  1       21 0.29929464E-02 0.58557867E+01</pdfrwt>
<totfact> 0.35760028E+09</totfact>
</mgrwt>
</event>
<event>
 4    1  0.3964155E+006  0.5031310E+01  0.7546771E-02  0.2561629E+00
         21   -1    0    0  501  502  0.00000000000E+00  0.00000000000E+00  0.91419992429E+01  0.91419992429E+01  0.00000000000E+00 0.  1.
         21   -1    0    0  502  503 -0.00000000000E+00 -0.00000000000E+00 -0.19546406274E+02  0.19546406274E+02  0.00000000000E+00 0.  1.
          5    1    1    2  501    0 -0.15790011004E+00  0.17886174150E+01  0.80872010539E+01  0.95245422771E+01  0.47000000000E+01 0.  1.
         -5    1    1    2    0  503  0.15790011004E+00 -0.17886174150E+01 -0.18491608085E+02  0.19163863240E+02  0.47000000000E+01 0.  1.
<mgrwt>
<rscale>  2 0.50313104E+01</rscale>
<asrwt>0</asrwt>
<pdfrwt beam="1">  1       21 0.14064614E-02 0.50313104E+01</pdfrwt>
<pdfrwt beam="2">  1       21 0.30071394E-02 0.50313104E+01</pdfrwt>
<totfact> 0.34895424E+08</totfact>
</mgrwt>
</event>
<event>
 4    1  0.3964155E+006  0.4825312E+01  0.7546771E-02  0.2599108E+00
         21   -1    0    0  501  502  0.00000000000E+00  0.00000000000E+00  0.25833659738E+03  0.25833659738E+03  0.00000000000E+00 0. -1.
         21   -1    0    0  502  503 -0.00000000000E+00 -0.00000000000E+00 -0.12793180533E+00  0.12793180533E+00  0.00000000000E+00 0. -1.
          5    1    1    2  501    0  0.95686604345E+00  0.52730155237E+00  0.19935383521E+03  0.19941222443E+03  0.47000000000E+01 0. -1.
         -5    1    1    2    0  503 -0.95686604345E+00 -0.52730155237E+00  0.58854830359E+02  0.59052304749E+02  0.47000000000E+01 0. -1.
<mgrwt>
<rscale>  2 0.48253124E+01</rscale>
<asrwt>0</asrwt>
<pdfrwt beam="1">  1       21 0.39743674E-01 0.48253124E+01</pdfrwt>
<pdfrwt beam="2">  1       21 0.19682023E-04 0.48253124E+01</pdfrwt>
<totfact> 0.20135201E+09</totfact>
</mgrwt>
</event>
<event>
 4    1  0.3964155E+006  0.8159142E+01  0.7546771E-02  0.2197904E+00
         21   -1    0    0  503  502  0.00000000000E+00  0.00000000000E+00  0.62985845807E+03  0.62985845807E+03  0.00000000000E+00 0. -1.
         21   -1    0    0  501  503 -0.00000000000E+00 -0.00000000000E+00 -0.13986651818E+00  0.13986651818E+00  0.00000000000E+00 0. -1.
          5    1    1    2  501    0 -0.42696165831E+00  0.66557720423E+01  0.15915604190E+03  0.15936504407E+03  0.47000000000E+01 0. -1.
         -5    1    1    2    0  502  0.42696165831E+00 -0.66557720423E+01  0.47056254965E+03  0.47063328052E+03  0.47000000000E+01 0. -1.
<mgrwt>
<rscale>  2 0.81591420E+01</rscale>
<asrwt>0</asrwt>
<pdfrwt beam="1">  1       21 0.96899030E-01 0.81591420E+01</pdfrwt>
<pdfrwt beam="2">  1       21 0.21518430E-04 0.81591420E+01</pdfrwt>
<totfact> 0.48779124E+08</totfact>
</mgrwt>
</event>
<event>
 4    1  0.3964155E+006  0.5816213E+01  0.7546771E-02  0.2439976E+00
         21   -1    0    0  503  502  0.00000000000E+00  0.00000000000E+00  0.63332668918E+00  0.63332668918E+00  0.00000000000E+00 0. -1.
         21   -1    0    0  501  503 -0.00000000000E+00 -0.00000000000E+00 -0.12592736237E+03  0.12592736237E+03  0.00000000000E+00 0. -1.
          5    1    1    2  501    0  0.32100645517E+01  0.11974204321E+01 -0.11066663156E+03  0.11081936506E+03  0.47000000000E+01 0. -1.
         -5    1    1    2    0  502 -0.32100645517E+01 -0.11974204321E+01 -0.14627404117E+02  0.15741324002E+02  0.47000000000E+01 0. -1.
<mgrwt>
<rscale>  2 0.58162127E+01</rscale>
<asrwt>0</asrwt>
<pdfrwt beam="1">  1       21 0.97434862E-04 0.58162127E+01</pdfrwt>
<pdfrwt beam="2">  1       21 0.19373443E-01 0.58162127E+01</pdfrwt>
<totfact> 0.92546533E+08</totfact>
</mgrwt>
</event>
<event>
 4    1  0.3964155E+006  0.6123988E+01  0.7546771E-02  0.2399561E+00
         21   -1    0    0  503  502  0.00000000000E+00  0.00000000000E+00  0.28444099751E+01  0.28444099751E+01  0.00000000000E+00 0.  1.
         21   -1    0    0  501  503 -0.00000000000E+00 -0.00000000000E+00 -0.15841548951E+02  0.15841548951E+02  0.00000000000E+00 0. -1.
          5    1    1    2  501    0 -0.13030283471E+01  0.37034230280E+01 -0.26724837783E+01  0.66817209267E+01  0.47000000000E+01 0.  1.
         -5    1    1    2    0  502  0.13030283471E+01 -0.37034230280E+01 -0.10324655198E+02  0.12004238000E+02  0.47000000000E+01 0. -1.
<mgrwt>
<rscale>  2 0.61239877E+01</rscale>
<asrwt>0</asrwt>
<pdfrwt beam="1">  1       21 0.43760153E-03 0.61239877E+01</pdfrwt>
<pdfrwt beam="2">  1       21 0.24371614E-02 0.61239877E+01</pdfrwt>
<totfact> 0.28615393E+09</totfact>
</mgrwt>
</event>
<event>
 4    1  0.3964155E+006  0.5275097E+01  0.7546771E-02  0.2520550E+00
         21   -1    0    0  503  502  0.00000000000E+00  0.00000000000E+00  0.72177090368E+01  0.72177090368E+01  0.00000000000E+00 0. -1.
         21   -1    0    0  501  503 -0.00000000000E+00 -0.00000000000E+00 -0.41035941949E+01  0.41035941949E+01  0.00000000000E+00 0. -1.
          5    1    1    2  501    0  0.23763836326E+01 -0.29908733058E+00  0.16473120844E+00  0.52776688766E+01  0.47000000000E+01 0. -1.
         -5    1    1    2    0  502 -0.23763836326E+01  0.29908733058E+00  0.29493836335E+01  0.60436343551E+01  0.47000000000E+01 0. -1.
<mgrwt>
<rscale>  2 0.52750974E+01</rscale>
<asrwt>0</asrwt>
<pdfrwt beam="1">  1       21 0.11104168E-02 0.52750974E+01</pdfrwt>
<pdfrwt beam="2">  1       21 0.63132218E-03 0.52750974E+01</pdfrwt>
<totfact> 0.45867292E+09</totfact>
</mgrwt>
</event>
<event>
 4    1  0.3964155E+006  0.4728585E+01  0.7546771E-02  0.2617679E+00
         21   -1    0    0  501  502  0.00000000000E+00  0.00000000000E+00  0.79507160914E+01  0.79507160914E+01  0.00000000000E+00 0. -1.
         21   -1    0    0  502  503 -0.00000000000E+00 -0.00000000000E+00 -0.44202836419E+01  0.44202836419E+01  0.00000000000E+00 0. -1.
          5    1    1    2  501    0  0.57389011240E-01 -0.51596399768E+00  0.54959599088E+01  0.72501784574E+01  0.47000000000E+01 0. -1.
         -5    1    1    2    0  503 -0.57389011240E-01  0.51596399768E+00 -0.19655274593E+01  0.51208212758E+01  0.47000000000E+01 0. -1.
<mgrwt>
<rscale>  2 0.47285846E+01</rscale>
<asrwt>0</asrwt>
<pdfrwt beam="1">  1       21 0.12231871E-02 0.47285846E+01</pdfrwt>
<pdfrwt beam="2">  1       21 0.68004364E-03 0.47285846E+01</pdfrwt>
<totfact> 0.32233853E+09</totfact>
</mgrwt>
</event>
<event>
 4    1  0.3964155E+006  0.9449258E+01  0.7546771E-02  0.2107756E+00
         21   -1    0    0  503  502  0.00000000000E+00  0.00000000000E+00  0.83835291190E+00  0.83835291190E+00  0.00000000000E+00 0.  1.
         21   -1    0    0  501  503 -0.00000000000E+00 -0.00000000000E+00 -0.11426679826E+03  0.11426679826E+03  0.00000000000E+00 0. -1.
          5    1    1    2  501    0 -0.81932944535E+01 -0.26152631036E+00 -0.71714391606E+02  0.72334241086E+02  0.47000000000E+01 0.  1.
         -5    1    1    2    0  502  0.81932944535E+01  0.26152631036E+00 -0.41714053743E+02  0.42770910087E+02  0.47000000000E+01 0.  1.
<mgrwt>
<rscale>  2 0.94492576E+01</rscale>
<asrwt>0</asrwt>
<pdfrwt beam="1">  1       21 0.12897737E-03 0.94492576E+01</pdfrwt>
<pdfrwt beam="2">  1       21 0.17579508E-01 0.94492576E+01</pdfrwt>
<totfact> 0.10263713E+09</totfact>
</mgrwt>
</event>
<event>
 4    1  0.3964155E+006  0.1189560E+02  0.7546771E-02  0.1980848E+00
         21   -1    0    0  501  502  0.00000000000E+00  0.00000000000E+00  0.10649169588E+02  0.10649169588E+02  0.00000000000E+00 0. -1.
         21   -1    0    0  502  503 -0.00000000000E+00 -0.00000000000E+00 -0.20919130029E+02  0.20919130029E+02  0.00000000000E+00 0.  1.
          5    1    1    2  501    0  0.37877092471E+01 -0.10250292649E+02  0.43983861259E+01  0.12682706385E+02  0.47000000000E+01 0. -1.
         -5    1    1    2    0  503 -0.37877092471E+01  0.10250292649E+02 -0.14668346567E+02  0.18885593232E+02  0.47000000000E+01 0.  1.
<mgrwt>
<rscale>  2 0.11895598E+02</rscale>
<asrwt>0</asrwt>
<pdfrwt beam="1">  1       21 0.16383338E-02 0.11895598E+02</pdfrwt>
<pdfrwt beam="2">  1       21 0.32183277E-02 0.11895598E+02</pdfrwt>
<totfact> 0.44302132E+08</totfact>
</mgrwt>
</event>
<event>
 4    1  0.3964155E+006  0.6330468E+01  0.7546771E-02  0.2374300E+00
         21   -1    0    0  503  502  0.00000000000E+00  0.00000000000E+00  0.13275005992E+02  0.13275005992E+02  0.00000000000E+00 0.  1.
         21   -1    0    0  501  503 -0.00000000000E+00 -0.00000000000E+00 -0.81467673443E+02  0.81467673443E+02  0.00000000000E+00 0.  1.
          5    1    1    2  501    0 -0.38098512207E+01 -0.18627551670E+01 -0.80581706390E+02  0.80829983471E+02  0.47000000000E+01 0.  1.
         -5    1    1    2    0  502  0.38098512207E+01  0.18627551670E+01  0.12389038940E+02  0.13912695964E+02  0.47000000000E+01 0.  1.
<mgrwt>
<rscale>  2 0.63304678E+01</rscale>
<asrwt>0</asrwt>
<pdfrwt beam="1">  1       21 0.20423086E-02 0.63304678E+01</pdfrwt>
<pdfrwt beam="2">  1       21 0.12533488E-01 0.63304678E+01</pdfrwt>
<totfact> 0.28646433E+07</totfact>
</mgrwt>
</event>
<event>
 4    1  0.3964155E+006  0.5465175E+01  0.7546771E-02  0.2490706E+00
         21   -1    0    0  503  502  0.00000000000E+00  0.00000000000E+00  0.30454648274E+02  0.30454648274E+02  0.00000000000E+00 0.  1.
         21   -1    0    0  501  503 -0.00000000000E+00 -0.00000000000E+00 -0.13393682836E+01  0.13393682836E+01  0.00000000000E+00 0.  1.
          5    1    1    2  501    0  0.18695688733E+01  0.20695040653E+01  0.63316759475E+01  0.83641051615E+01  0.47000000000E+01 0.  1.
         -5    1    1    2    0  502 -0.18695688733E+01 -0.20695040653E+01  0.22783604043E+02  0.23429911396E+02  0.47000000000E+01 0.  1.
<mgrwt>
<rscale>  2 0.54651747E+01</rscale>
<asrwt>0</asrwt>
<pdfrwt beam="1">  1       21 0.46853300E-02 0.54651747E+01</pdfrwt>
<pdfrwt beam="2">  1       21 0.20605668E-03 0.54651747E+01</pdfrwt>
<totfact> 0.28000817E+09</totfact>
</mgrwt>
</event>
<event>
 4    1  0.3964155E+006  0.5601971E+01  0.7546771E-02  0.2470298E+00
         21   -1    0    0  503  502  0.00000000000E+00  0.00000000000E+00  0.18641629766E+01  0.18641629766E+01  0.00000000000E+00 0. -1.
         21   -1    0    0  501  503 -0.00000000000E+00 -0.00000000000E+00 -0.17051252059E+02  0.17051252059E+02  0.00000000000E+00 0. -1.
          5    1    1    2  501    0  0.28034376689E+01 -0.11970028475E+01 -0.65269917992E+01  0.86013778272E+01  0.47000000000E+01 0. -1.
         -5    1    1    2    0  502 -0.28034376689E+01  0.11970028475E+01 -0.86600972836E+01  0.10314037209E+02  0.47000000000E+01 0. -1.
<mgrwt>
<rscale>  2 0.56019710E+01</rscale>
<asrwt>0</asrwt>
<pdfrwt beam="1">  1       21 0.28679431E-03 0.56019710E+01</pdfrwt>
<pdfrwt beam="2">  1       21 0.26232695E-02 0.56019710E+01</pdfrwt>
<totfact> 0.42467347E+09</totfact>
</mgrwt>
</event>
<event>
 4    1  0.3964155E+006  0.2253928E+02  0.7546771E-02  0.1699089E+00
         21   -1    0    0  503  502  0.00000000000E+00  0.00000000000E+00  0.74812657309E+01  0.74812657309E+01  0.00000000000E+00 0.  1.
         21   -1    0    0  501  503 -0.00000000000E+00 -0.00000000000E+00 -0.82244473758E+03  0.82244473758E+03  0.00000000000E+00 0. -1.
          5    1    1    2  501    0  0.11333321678E+02 -0.18907271952E+02 -0.80494493799E+03  0.80526043756E+03  0.47000000000E+01 0. -1.
         -5    1    1    2    0  502 -0.11333321678E+02  0.18907271952E+02 -0.10018533863E+02  0.24665565749E+02  0.47000000000E+01 0.  1.
<mgrwt>
<rscale>  2 0.22539279E+02</rscale>
<asrwt>0</asrwt>
<pdfrwt beam="1">  1       21 0.11509647E-02 0.22539279E+02</pdfrwt>
<pdfrwt beam="2">  1       21 0.12652988E+00 0.22539279E+02</pdfrwt>
<totfact> 0.13148657E+06</totfact>
</mgrwt>
</event>
<event>
 4    1  0.3964155E+006  0.5387992E+01  0.7546771E-02  0.2502608E+00
         21   -1    0    0  501  502  0.00000000000E+00  0.00000000000E+00  0.67047570195E+02  0.67047570195E+02  0.00000000000E+00 0. -1.
         21   -1    0    0  502  503 -0.00000000000E+00 -0.00000000000E+00 -0.12470998770E+01  0.12470998770E+01  0.00000000000E+00 0. -1.
          5    1    1    2  501    0 -0.22146418433E+01  0.14268212273E+01  0.60490100419E+02  0.60729586743E+02  0.47000000000E+01 0. -1.
         -5    1    1    2    0  503  0.22146418433E+01 -0.14268212273E+01  0.53103698996E+01  0.75650833293E+01  0.47000000000E+01 0. -1.
<mgrwt>
<rscale>  2 0.53879920E+01</rscale>
<asrwt>0</asrwt>
<pdfrwt beam="1">  1       21 0.10315008E-01 0.53879920E+01</pdfrwt>
<pdfrwt beam="2">  1       21 0.19186157E-03 0.53879920E+01</pdfrwt>
<totfact> 0.93614349E+08</totfact>
</mgrwt>
</event>
<event>
 4    1  0.3964155E+006  0.4868321E+01  0.7546771E-02  0.2591057E+00
         21   -1    0    0  501  502  0.00000000000E+00  0.00000000000E+00  0.12586643983E+02  0.12586643983E+02  0.00000000000E+00 0.  1.
         21   -1    0    0  502  503 -0.00000000000E+00 -0.00000000000E+00 -0.18834421415E+01  0.18834421415E+01  0.00000000000E+00 0.  1.
          5    1    1    2  501    0  0.10365289673E+01  0.73222574012E+00  0.52397194921E+01  0.71522868504E+01  0.47000000000E+01 0.  1.
         -5    1    1    2    0  503 -0.10365289673E+01 -0.73222574012E+00  0.54634823499E+01  0.73177992745E+01  0.47000000000E+01 0.  1.
<mgrwt>
<rscale>  2 0.48683207E+01</rscale>
<asrwt>0</asrwt>
<pdfrwt beam="1">  1       21 0.19364067E-02 0.48683207E+01</pdfrwt>
<pdfrwt beam="2">  1       21 0.28976034E-03 0.48683207E+01</pdfrwt>
<totfact> 0.55957422E+09</totfact>
</mgrwt>
</event>
<event>
 4    1  0.3964155E+006  0.8060873E+01  0.7546771E-02  0.2205705E+00
         21   -1    0    0  503  502  0.00000000000E+00  0.00000000000E+00  0.13658237850E+02  0.13658237850E+02  0.00000000000E+00 0. -1.
         21   -1    0    0  501  503 -0.00000000000E+00 -0.00000000000E+00 -0.13889528159E+02  0.13889528159E+02  0.00000000000E+00 0.  1.
          5    1    1    2  501    0  0.26922507176E+01  0.59698799613E+01 -0.11284243615E+02  0.13867654259E+02  0.47000000000E+01 0.  1.
         -5    1    1    2    0  502 -0.26922507176E+01 -0.59698799613E+01  0.11052953307E+02  0.13680111750E+02  0.47000000000E+01 0. -1.
<mgrwt>
<rscale>  2 0.80608734E+01</rscale>
<asrwt>0</asrwt>
<pdfrwt beam="1">  1       21 0.21012674E-02 0.80608734E+01</pdfrwt>
<pdfrwt beam="2">  1       21 0.21368505E-02 0.80608734E+01</pdfrwt>
<totfact> 0.45557797E+08</totfact>
</mgrwt>
</event>
<event>
 4    1  0.3964155E+006  0.9656854E+01  0.7546771E-02  0.2095059E+00
         21   -1    0    0  501  502  0.00000000000E+00  0.00000000000E+00  0.11408689809E+00  0.11408689809E+00  0.00000000000E+00 0. -1.
         21   -1    0    0  502  503 -0.00000000000E+00 -0.00000000000E+00 -0.12022659997E+04  0.12022659997E+04  0.00000000000E+00 0.  1.
          5    1    1    2  501    0 -0.83555240223E+01  0.11619167067E+01 -0.26093003136E+03  0.26110866722E+03  0.47000000000E+01 0. -1.
         -5    1    1    2    0  503  0.83555240223E+01 -0.11619167067E+01 -0.94122188145E+03  0.94127141939E+03  0.47000000000E+01 0.  1.
<mgrwt>
<rscale>  2 0.96568542E+01</rscale>
<asrwt>0</asrwt>
<pdfrwt beam="1">  1       21 0.17552172E-04 0.96568542E+01</pdfrwt>
<pdfrwt beam="2">  1       21 0.18496040E+00 0.96568542E+01</pdfrwt>
<totfact> 0.16946607E+08</totfact>
</mgrwt>
</event>
<event>
 4    1  0.3964155E+006  0.8773485E+01  0.7546771E-02  0.2152342E+00
         21   -1    0    0  503  502  0.00000000000E+00  0.00000000000E+00  0.66701206774E+01  0.66701206774E+01  0.00000000000E+00 0. -1.
         21   -1    0    0  501  503 -0.00000000000E+00 -0.00000000000E+00 -0.68661581512E+02  0.68661581512E+02  0.00000000000E+00 0. -1.
          5    1    1    2  501    0  0.37289226591E+01  0.64014984720E+01 -0.65350774379E+02  0.65937074236E+02  0.47000000000E+01 0. -1.
         -5    1    1    2    0  502 -0.37289226591E+01 -0.64014984720E+01  0.33593135447E+01  0.93946279530E+01  0.47000000000E+01 0. -1.
<mgrwt>
<rscale>  2 0.87734854E+01</rscale>
<asrwt>0</asrwt>
<pdfrwt beam="1">  1       21 0.10261724E-02 0.87734854E+01</pdfrwt>
<pdfrwt beam="2">  1       21 0.10563320E-01 0.87734854E+01</pdfrwt>
<totfact> 0.12011930E+08</totfact>
</mgrwt>
</event>
<event>
 4    1  0.3964155E+006  0.4721053E+01  0.7546771E-02  0.2619153E+00
         21   -1    0    0  501  502  0.00000000000E+00  0.00000000000E+00  0.61757848620E-01  0.61757848620E-01  0.00000000000E+00 0.  1.
         21   -1    0    0  502  503 -0.00000000000E+00 -0.00000000000E+00 -0.43159567640E+03  0.43159567640E+03  0.00000000000E+00 0.  1.
          5    1    1    2  501    0  0.13426584091E+00  0.42463253697E+00 -0.30311847973E+03  0.30315524257E+03  0.47000000000E+01 0.  1.
         -5    1    1    2    0  503 -0.13426584091E+00 -0.42463253697E+00 -0.12841543882E+03  0.12850219169E+03  0.47000000000E+01 0.  1.
<mgrwt>
<rscale>  2 0.47210529E+01</rscale>
<asrwt>0</asrwt>
<pdfrwt beam="1">  1       21 0.95012390E-05 0.47210529E+01</pdfrwt>
<pdfrwt beam="2">  1       21 0.66399115E-01 0.47210529E+01</pdfrwt>
<totfact> 0.20755112E+09</totfact>
</mgrwt>
</event>
<event>
 4    1  0.3964155E+006  0.5611232E+01  0.7546771E-02  0.2468947E+00
         21   -1    0    0  503  502  0.00000000000E+00  0.00000000000E+00  0.82657458529E-01  0.82657458529E-01  0.00000000000E+00 0.  1.
         21   -1    0    0  501  503 -0.00000000000E+00 -0.00000000000E+00 -0.38151142220E+03  0.38151142220E+03  0.00000000000E+00 0. -1.
          5    1    1    2  501    0 -0.25530197563E+01  0.16964708944E+01 -0.19822317213E+03  0.19830257662E+03  0.47000000000E+01 0.  1.
         -5    1    1    2    0  502  0.25530197563E+01 -0.16964708944E+01 -0.18320559261E+03  0.18329150304E+03  0.47000000000E+01 0.  1.
<mgrwt>
<rscale>  2 0.56112319E+01</rscale>
<asrwt>0</asrwt>
<pdfrwt beam="1">  1       21 0.12716330E-04 0.56112319E+01</pdfrwt>
<pdfrwt beam="2">  1       21 0.58695000E-01 0.56112319E+01</pdfrwt>
<totfact> 0.20453484E+09</totfact>
</mgrwt>
</event>
<event>
 4    1  0.3964155E+006  0.5594360E+01  0.7546771E-02  0.2471411E+00
         21   -1    0    0  501  502  0.00000000000E+00  0.00000000000E+00  0.40139427718E+01  0.40139427718E+01  0.00000000000E+00 0.  1.
         21   -1    0    0  502  503 -0.00000000000E+00 -0.00000000000E+00 -0.79422145589E+01  0.79422145589E+01  0.00000000000E+00 0. -1.
          5    1    1    2  501    0  0.66878696264E+00  0.29596592397E+01 -0.11558944451E+01  0.57125257798E+01  0.47000000000E+01 0.  1.
         -5    1    1    2    0  503 -0.66878696264E+00 -0.29596592397E+01 -0.27723773421E+01  0.62436315509E+01  0.47000000000E+01 0. -1.
<mgrwt>
<rscale>  2 0.55943596E+01</rscale>
<asrwt>0</asrwt>
<pdfrwt beam="1">  1       21 0.61752966E-03 0.55943596E+01</pdfrwt>
<pdfrwt beam="2">  1       21 0.12218792E-02 0.55943596E+01</pdfrwt>
<totfact> 0.43804831E+09</totfact>
</mgrwt>
</event>
<event>
 4    1  0.3964155E+006  0.7364929E+01  0.7546771E-02  0.2265704E+00
         21   -1    0    0  503  502  0.00000000000E+00  0.00000000000E+00  0.15994024852E+01  0.15994024852E+01  0.00000000000E+00 0. -1.
         21   -1    0    0  501  503 -0.00000000000E+00 -0.00000000000E+00 -0.11831007849E+03  0.11831007849E+03  0.00000000000E+00 0.  1.
          5    1    1    2  501    0 -0.54149085763E+01 -0.16825430612E+01 -0.10899300743E+03  0.10924155736E+03  0.47000000000E+01 0.  1.
         -5    1    1    2    0  502  0.54149085763E+01  0.16825430612E+01 -0.77176685808E+01  0.10667923620E+02  0.47000000000E+01 0. -1.
<mgrwt>
<rscale>  2 0.73649295E+01</rscale>
<asrwt>0</asrwt>
<pdfrwt beam="1">  1       21 0.24606185E-03 0.73649295E+01</pdfrwt>
<pdfrwt beam="2">  1       21 0.18201556E-01 0.73649295E+01</pdfrwt>
<totfact> 0.34210415E+08</totfact>
</mgrwt>
</event>
<event>
 4    1  0.3964155E+006  0.6187566E+01  0.7546771E-02  0.2391633E+00
         21   -1    0    0  501  502  0.00000000000E+00  0.00000000000E+00  0.50460967203E+01  0.50460967203E+01  0.00000000000E+00 0. -1.
         21   -1    0    0  502  503 -0.00000000000E+00 -0.00000000000E+00 -0.91902358857E+01  0.91902358857E+01  0.00000000000E+00 0. -1.
          5    1    1    2  501    0 -0.18482238090E+01  0.35749185012E+01  0.90076188358E+00  0.62527870194E+01  0.47000000000E+01 0. -1.
         -5    1    1    2    0  503  0.18482238090E+01 -0.35749185012E+01 -0.50449010490E+01  0.79835455866E+01  0.47000000000E+01 0. -1.
<mgrwt>
<rscale>  2 0.61875660E+01</rscale>
<asrwt>0</asrwt>
<pdfrwt beam="1">  1       21 0.77632258E-03 0.61875660E+01</pdfrwt>
<pdfrwt beam="2">  1       21 0.14138824E-02 0.61875660E+01</pdfrwt>
<totfact> 0.28345306E+09</totfact>
</mgrwt>
</event>
<event>
 4    1  0.3964155E+006  0.5755626E+01  0.7546771E-02  0.2448357E+00
         21   -1    0    0  501  502  0.00000000000E+00  0.00000000000E+00  0.28785197363E+02  0.28785197363E+02  0.00000000000E+00 0. -1.
         21   -1    0    0  502  503 -0.00000000000E+00 -0.00000000000E+00 -0.13448079898E+01  0.13448079898E+01  0.00000000000E+00 0. -1.
          5    1    1    2  501    0 -0.68569654946E+00  0.32506995928E+01  0.19441581905E+02  0.20275658671E+02  0.47000000000E+01 0. -1.
         -5    1    1    2    0  503  0.68569654946E+00 -0.32506995928E+01  0.79988074689E+01  0.98543466818E+01  0.47000000000E+01 0. -1.
<mgrwt>
<rscale>  2 0.57556257E+01</rscale>
<asrwt>0</asrwt>
<pdfrwt beam="1">  1       21 0.44284915E-02 0.57556257E+01</pdfrwt>
<pdfrwt beam="2">  1       21 0.20689356E-03 0.57556257E+01</pdfrwt>
<totfact> 0.31708816E+09</totfact>
</mgrwt>
</event>
<event>
 4    1  0.3964155E+006  0.6037029E+01  0.7546771E-02  0.2410629E+00
         21   -1    0    0  503  502  0.00000000000E+00  0.00000000000E+00  0.20953054889E+03  0.20953054889E+03  0.00000000000E+00 0.  1.
         21   -1    0    0  501  503 -0.00000000000E+00 -0.00000000000E+00 -0.27784697962E+00  0.27784697962E+00  0.00000000000E+00 0.  1.
          5    1    1    2  501    0  0.24159618153E+01  0.29187069205E+01  0.40473995266E+02  0.40921754781E+02  0.47000000000E+01 0.  1.
         -5    1    1    2    0  502 -0.24159618153E+01 -0.29187069205E+01  0.16877870664E+03  0.16888664108E+03  0.47000000000E+01 0.  1.
<mgrwt>
<rscale>  2 0.60370292E+01</rscale>
<asrwt>0</asrwt>
<pdfrwt beam="1">  1       21 0.32235343E-01 0.60370292E+01</pdfrwt>
<pdfrwt beam="2">  1       21 0.42745857E-04 0.60370292E+01</pdfrwt>
<totfact> 0.12382837E+09</totfact>
</mgrwt>
</event>
<event>
 4    1  0.3964155E+006  0.4964596E+01  0.7546771E-02  0.2573473E+00
         21   -1    0    0  503  502  0.00000000000E+00  0.00000000000E+00  0.35757626195E+03  0.35757626195E+03  0.00000000000E+00 0.  1.
         21   -1    0    0  501  503 -0.00000000000E+00 -0.00000000000E+00 -0.14697574400E+00  0.14697574400E+00  0.00000000000E+00 0.  1.
          5    1    1    2  501    0  0.79656754458E+00  0.13866125544E+01  0.48376069839E+02  0.48630148542E+02  0.47000000000E+01 0.  1.
         -5    1    1    2    0  502 -0.79656754458E+00 -0.13866125544E+01  0.30905321636E+03  0.30909308915E+03  0.47000000000E+01 0.  1.
<mgrwt>
<rscale>  2 0.49645961E+01</rscale>
<asrwt>0</asrwt>
<pdfrwt beam="1">  1       21 0.55011036E-01 0.49645961E+01</pdfrwt>
<pdfrwt beam="2">  1       21 0.22611939E-04 0.49645961E+01</pdfrwt>
<totfact> 0.97115198E+08</totfact>
</mgrwt>
</event>
<event>
 4    1  0.3964155E+006  0.6603450E+01  0.7546771E-02  0.2342931E+00
         21   -1    0    0  501  502  0.00000000000E+00  0.00000000000E+00  0.34762855093E+01  0.34762855093E+01  0.00000000000E+00 0.  1.
         21   -1    0    0  502  503 -0.00000000000E+00 -0.00000000000E+00 -0.15549691267E+02  0.15549691267E+02  0.00000000000E+00 0.  1.
          5    1    1    2  501    0 -0.33417756282E+01 -0.32168433857E+01 -0.18540807987E+01  0.68588017412E+01  0.47000000000E+01 0.  1.
         -5    1    1    2    0  503  0.33417756282E+01  0.32168433857E+01 -0.10219324959E+02  0.12167175035E+02  0.47000000000E+01 0.  1.
<mgrwt>
<rscale>  2 0.66034495E+01</rscale>
<asrwt>0</asrwt>
<pdfrwt beam="1">  1       21 0.53481315E-03 0.66034495E+01</pdfrwt>
<pdfrwt beam="2">  1       21 0.23922602E-02 0.66034495E+01</pdfrwt>
<totfact> 0.23699190E+09</totfact>
</mgrwt>
</event>
<event>
 4    1  0.3964155E+006  0.4746261E+01  0.7546771E-02  0.2614236E+00
         21   -1    0    0  503  502  0.00000000000E+00  0.00000000000E+00  0.18890737708E+01  0.18890737708E+01  0.00000000000E+00 0. -1.
         21   -1    0    0  501  503 -0.00000000000E+00 -0.00000000000E+00 -0.48918667820E+02  0.48918667820E+02  0.00000000000E+00 0. -1.
          5    1    1    2  501    0 -0.56007819103E-01  0.65868046311E+00 -0.45606384592E+02  0.45852691441E+02  0.47000000000E+01 0. -1.
         -5    1    1    2    0  502  0.56007819103E-01 -0.65868046311E+00 -0.14232094573E+01  0.49550501498E+01  0.47000000000E+01 0. -1.
<mgrwt>
<rscale>  2 0.47462614E+01</rscale>
<asrwt>0</asrwt>
<pdfrwt beam="1">  1       21 0.29062670E-03 0.47462614E+01</pdfrwt>
<pdfrwt beam="2">  1       21 0.75259497E-02 0.47462614E+01</pdfrwt>
<totfact> 0.76448717E+08</totfact>
</mgrwt>
</event>
<event>
 4    1  0.3964155E+006  0.5153142E+01  0.7546771E-02  0.2540683E+00
         21   -1    0    0  503  502  0.00000000000E+00  0.00000000000E+00  0.13133685680E+02  0.13133685680E+02  0.00000000000E+00 0.  1.
         21   -1    0    0  501  503 -0.00000000000E+00 -0.00000000000E+00 -0.41433536214E+01  0.41433536214E+01  0.00000000000E+00 0. -1.
          5    1    1    2  501    0  0.27722922955E+00  0.20947587618E+01 -0.16861521568E+01  0.54219903552E+01  0.47000000000E+01 0. -1.
         -5    1    1    2    0  502 -0.27722922955E+00 -0.20947587618E+01  0.10676484215E+02  0.11855048946E+02  0.47000000000E+01 0.  1.
<mgrwt>
<rscale>  2 0.51531418E+01</rscale>
<asrwt>0</asrwt>
<pdfrwt beam="1">  1       21 0.20205670E-02 0.51531418E+01</pdfrwt>
<pdfrwt beam="2">  1       21 0.63743902E-03 0.51531418E+01</pdfrwt>
<totfact> 0.18985155E+09</totfact>
</mgrwt>
</event>
<event>
 4    1  0.3964155E+006  0.5489163E+01  0.7546771E-02  0.2487065E+00
         21   -1    0    0  501  502  0.00000000000E+00  0.00000000000E+00  0.31999157732E+01  0.31999157732E+01  0.00000000000E+00 0. -1.
         21   -1    0    0  502  503 -0.00000000000E+00 -0.00000000000E+00 -0.13912790694E+03  0.13912790694E+03  0.00000000000E+00 0. -1.
          5    1    1    2  501    0  0.90194217725E+00 -0.26883842380E+01  0.74954760618E+00  0.55401020853E+01  0.47000000000E+01 0. -1.
         -5    1    1    2    0  503 -0.90194217725E+00  0.26883842380E+01 -0.13667753877E+03  0.13678772062E+03  0.47000000000E+01 0. -1.
<mgrwt>
<rscale>  2 0.54891629E+01</rscale>
<asrwt>0</asrwt>
<pdfrwt beam="1">  1       21 0.49229471E-03 0.54891629E+01</pdfrwt>
<pdfrwt beam="2">  1       21 0.21404295E-01 0.54891629E+01</pdfrwt>
<totfact> 0.83586402E+07</totfact>
</mgrwt>
</event>
<event>
 4    1  0.3964155E+006  0.5196528E+01  0.7546771E-02  0.2533428E+00
         21   -1    0    0  501  502  0.00000000000E+00  0.00000000000E+00  0.30093692081E+00  0.30093692081E+00  0.00000000000E+00 0.  1.
         21   -1    0    0  502  503 -0.00000000000E+00 -0.00000000000E+00 -0.11131450759E+03  0.11131450759E+03  0.00000000000E+00 0.  1.
          5    1    1    2  501    0 -0.77176912870E+00  0.20780467448E+01 -0.30933595391E+02  0.31367040499E+02  0.47000000000E+01 0.  1.
         -5    1    1    2    0  503  0.77176912870E+00 -0.20780467448E+01 -0.80079975274E+02  0.80248404007E+02  0.47000000000E+01 0.  1.
<mgrwt>
<rscale>  2 0.51965283E+01</rscale>
<asrwt>0</asrwt>
<pdfrwt beam="1">  1       21 0.46297987E-04 0.51965283E+01</pdfrwt>
<pdfrwt beam="2">  1       21 0.17125309E-01 0.51965283E+01</pdfrwt>
<totfact> 0.27560519E+09</totfact>
</mgrwt>
</event>
<event>
 4    1  0.3964155E+006  0.5941778E+01  0.7546771E-02  0.2423063E+00
         21   -1    0    0  501  502  0.00000000000E+00  0.00000000000E+00  0.36133515526E+03  0.36133515526E+03  0.00000000000E+00 0. -1.
         21   -1    0    0  502  503 -0.00000000000E+00 -0.00000000000E+00 -0.11400402758E+00  0.11400402758E+00  0.00000000000E+00 0. -1.
          5    1    1    2  501    0 -0.32085061569E+01  0.17088643251E+01  0.24894198204E+03  0.24901288149E+03  0.47000000000E+01 0. -1.
         -5    1    1    2    0  503  0.32085061569E+01 -0.17088643251E+01  0.11227916919E+03  0.11243627779E+03  0.47000000000E+01 0. -1.
<mgrwt>
<rscale>  2 0.59417783E+01</rscale>
<asrwt>0</asrwt>
<pdfrwt beam="1">  1       21 0.55589107E-01 0.59417783E+01</pdfrwt>
<pdfrwt beam="2">  1       21 0.17539370E-04 0.59417783E+01</pdfrwt>
<totfact> 0.15395424E+09</totfact>
</mgrwt>
</event>
<event>
 4    1  0.3964155E+006  0.9960682E+01  0.7546771E-02  0.2077232E+00
         21   -1    0    0  501  502  0.00000000000E+00  0.00000000000E+00  0.16588121739E+02  0.16588121739E+02  0.00000000000E+00 0. -1.
         21   -1    0    0  502  503 -0.00000000000E+00 -0.00000000000E+00 -0.17288350247E+02  0.17288350247E+02  0.00000000000E+00 0.  1.
          5    1    1    2  501    0 -0.73999098855E+01  0.47293248814E+01  0.13348288955E+02  0.16655089258E+02  0.47000000000E+01 0. -1.
         -5    1    1    2    0  503  0.73999098855E+01 -0.47293248814E+01 -0.14048517464E+02  0.17221382728E+02  0.47000000000E+01 0.  1.
<mgrwt>
<rscale>  2 0.99606817E+01</rscale>
<asrwt>0</asrwt>
<pdfrwt beam="1">  1       21 0.25520187E-02 0.99606817E+01</pdfrwt>
<pdfrwt beam="2">  1       21 0.26597462E-02 0.99606817E+01</pdfrwt>
<totfact> 0.27910202E+08</totfact>
</mgrwt>
</event>
<event>
 4    1  0.3964155E+006  0.8665025E+01  0.7546771E-02  0.2160009E+00
         21   -1    0    0  503  502  0.00000000000E+00  0.00000000000E+00  0.75928844460E+00  0.75928844460E+00  0.00000000000E+00 0.  1.
         21   -1    0    0  501  503 -0.00000000000E+00 -0.00000000000E+00 -0.16761009417E+03  0.16761009417E+03  0.00000000000E+00 0. -1.
          5    1    1    2  501    0  0.15749723882E+01 -0.71071876239E+01 -0.13733163522E+03  0.13760472625E+03  0.47000000000E+01 0. -1.
         -5    1    1    2    0  502 -0.15749723882E+01  0.71071876239E+01 -0.29519170504E+02  0.30764656364E+02  0.47000000000E+01 0.  1.
<mgrwt>
<rscale>  2 0.86650248E+01</rscale>
<asrwt>0</asrwt>
<pdfrwt beam="1">  1       21 0.11681375E-03 0.86650248E+01</pdfrwt>
<pdfrwt beam="2">  1       21 0.25786137E-01 0.86650248E+01</pdfrwt>
<totfact> 0.58961056E+08</totfact>
</mgrwt>
</event>
<event>
 4    1  0.3964155E+006  0.9430696E+01  0.7546771E-02  0.2108913E+00
         21   -1    0    0  503  502  0.00000000000E+00  0.00000000000E+00  0.44156101390E+02  0.44156101390E+02  0.00000000000E+00 0. -1.
         21   -1    0    0  501  503 -0.00000000000E+00 -0.00000000000E+00 -0.38115170918E+01  0.38115170918E+01  0.00000000000E+00 0.  1.
          5    1    1    2  501    0  0.63577461963E+01  0.51407293079E+01  0.37026250948E+01  0.10131508629E+02  0.47000000000E+01 0.  1.
         -5    1    1    2    0  502 -0.63577461963E+01 -0.51407293079E+01  0.36641959204E+02  0.37836109853E+02  0.47000000000E+01 0. -1.
<mgrwt>
<rscale>  2 0.94306964E+01</rscale>
<asrwt>0</asrwt>
<pdfrwt beam="1">  1       21 0.67932460E-02 0.94306964E+01</pdfrwt>
<pdfrwt beam="2">  1       21 0.58638728E-03 0.94306964E+01</pdfrwt>
<totfact> 0.55641045E+08</totfact>
</mgrwt>
</event>
<event>
 4    1  0.3964155E+006  0.4815479E+01  0.7546771E-02  0.2600967E+00
         21   -1    0    0  501  502  0.00000000000E+00  0.00000000000E+00  0.92586316366E-01  0.92586316366E-01  0.00000000000E+00 0. -1.
         21   -1    0    0  502  503 -0.00000000000E+00 -0.00000000000E+00 -0.25094174916E+03  0.25094174916E+03  0.00000000000E+00 0. -1.
          5    1    1    2  501    0 -0.15110950670E+00  0.10373073937E+01 -0.13094432060E+03  0.13103283534E+03  0.47000000000E+01 0. -1.
         -5    1    1    2    0  503  0.15110950670E+00 -0.10373073937E+01 -0.11990484224E+03  0.12000150013E+03  0.47000000000E+01 0. -1.
<mgrwt>
<rscale>  2 0.48154793E+01</rscale>
<asrwt>0</asrwt>
<pdfrwt beam="1">  1       21 0.14244190E-04 0.48154793E+01</pdfrwt>
<pdfrwt beam="2">  1       21 0.38606039E-01 0.48154793E+01</pdfrwt>
<totfact> 0.32377691E+09</totfact>
</mgrwt>
</event>
<event>
 4    1  0.3964155E+006  0.9911441E+01  0.7546771E-02  0.2080063E+00
         21   -1    0    0  501  502  0.00000000000E+00  0.00000000000E+00  0.97800252812E+00  0.97800252812E+00  0.00000000000E+00 0. -1.
         21   -1    0    0  502  503 -0.00000000000E+00 -0.00000000000E+00 -0.13286523774E+03  0.13286523774E+03  0.00000000000E+00 0.  1.
          5    1    1    2  501    0 -0.54675091933E+01 -0.68009559166E+01 -0.32886827462E+02  0.34347926846E+02  0.47000000000E+01 0. -1.
         -5    1    1    2    0  503  0.54675091933E+01  0.68009559166E+01 -0.99000407749E+02  0.99495313421E+02  0.47000000000E+01 0.  1.
<mgrwt>
<rscale>  2 0.99114408E+01</rscale>
<asrwt>0</asrwt>
<pdfrwt beam="1">  1       21 0.15046185E-03 0.99114408E+01</pdfrwt>
<pdfrwt beam="2">  1       21 0.20440816E-01 0.99114408E+01</pdfrwt>
<totfact> 0.66261665E+08</totfact>
</mgrwt>
</event>
<event>
 4    1  0.3964155E+006  0.8675106E+01  0.7546771E-02  0.2159290E+00
         21   -1    0    0  503  502  0.00000000000E+00  0.00000000000E+00  0.79480433008E+01  0.79480433008E+01  0.00000000000E+00 0.  1.
         21   -1    0    0  501  503 -0.00000000000E+00 -0.00000000000E+00 -0.11571953524E+02  0.11571953524E+02  0.00000000000E+00 0. -1.
          5    1    1    2  501    0 -0.69294372170E+01 -0.22694413243E+01  0.23490138231E+01  0.89875096668E+01  0.47000000000E+01 0.  1.
         -5    1    1    2    0  502  0.69294372170E+01  0.22694413243E+01 -0.59729240461E+01  0.10532487158E+02  0.47000000000E+01 0. -1.
<mgrwt>
<rscale>  2 0.86751060E+01</rscale>
<asrwt>0</asrwt>
<pdfrwt beam="1">  1       21 0.12227759E-02 0.86751060E+01</pdfrwt>
<pdfrwt beam="2">  1       21 0.17803006E-02 0.86751060E+01</pdfrwt>
<totfact> 0.13719470E+09</totfact>
</mgrwt>
</event>
<event>
 4    1  0.3964155E+006  0.5200852E+01  0.7546771E-02  0.2532710E+00
         21   -1    0    0  501  502  0.00000000000E+00  0.00000000000E+00  0.37687151753E+00  0.37687151753E+00  0.00000000000E+00 0.  1.
         21   -1    0    0  502  503 -0.00000000000E+00 -0.00000000000E+00 -0.33094416743E+03  0.33094416743E+03  0.00000000000E+00 0.  1.
          5    1    1    2  501    0  0.15706740418E+01  0.15785587993E+01 -0.18683050745E+02  0.19393433166E+02  0.47000000000E+01 0.  1.
         -5    1    1    2    0  503 -0.15706740418E+01 -0.15785587993E+01 -0.31188424517E+03  0.31192760578E+03  0.47000000000E+01 0.  1.
<mgrwt>
<rscale>  2 0.52008523E+01</rscale>
<asrwt>0</asrwt>
<pdfrwt beam="1">  1       21 0.57980756E-04 0.52008523E+01</pdfrwt>
<pdfrwt beam="2">  1       21 0.50914028E-01 0.52008523E+01</pdfrwt>
<totfact> 0.33245911E+08</totfact>
</mgrwt>
</event>
<event>
 4    1  0.3964155E+006  0.6557172E+01  0.7546771E-02  0.2348096E+00
         21   -1    0    0  503  502  0.00000000000E+00  0.00000000000E+00  0.23991633571E+00  0.23991633571E+00  0.00000000000E+00 0.  1.
         21   -1    0    0  501  503 -0.00000000000E+00 -0.00000000000E+00 -0.18813600837E+03  0.18813600837E+03  0.00000000000E+00 0. -1.
          5    1    1    2  501    0  0.32636606017E+01  0.32023470400E+01 -0.11445855595E+03  0.11464622775E+03  0.47000000000E+01 0. -1.
         -5    1    1    2    0  502 -0.32636606017E+01 -0.32023470400E+01 -0.73437536089E+02  0.73729696961E+02  0.47000000000E+01 0.  1.
<mgrwt>
<rscale>  2 0.65571722E+01</rscale>
<asrwt>0</asrwt>
<pdfrwt beam="1">  1       21 0.36910217E-04 0.65571722E+01</pdfrwt>
<pdfrwt beam="2">  1       21 0.28943992E-01 0.65571722E+01</pdfrwt>
<totfact> 0.19248263E+09</totfact>
</mgrwt>
</event>
<event>
 4    1  0.3964155E+006  0.5999469E+01  0.7546771E-02  0.2415493E+00
         21   -1    0    0  503  502  0.00000000000E+00  0.00000000000E+00  0.27419609266E+01  0.27419609266E+01  0.00000000000E+00 0.  1.
         21   -1    0    0  501  503 -0.00000000000E+00 -0.00000000000E+00 -0.13438713732E+02  0.13438713732E+02  0.00000000000E+00 0.  1.
          5    1    1    2  501    0  0.26144243697E+01  0.26586478534E+01 -0.65806031018E+01  0.89049402231E+01  0.47000000000E+01 0.  1.
         -5    1    1    2    0  502 -0.26144243697E+01 -0.26586478534E+01 -0.41161497035E+01  0.72757344355E+01  0.47000000000E+01 0.  1.
<mgrwt>
<rscale>  2 0.59994686E+01</rscale>
<asrwt>0</asrwt>
<pdfrwt beam="1">  1       21 0.42184014E-03 0.59994686E+01</pdfrwt>
<pdfrwt beam="2">  1       21 0.20674944E-02 0.59994686E+01</pdfrwt>
<totfact> 0.37478461E+09</totfact>
</mgrwt>
</event>
<event>
 4    1  0.3964155E+006  0.8106606E+01  0.7546771E-02  0.2202055E+00
         21   -1    0    0  503  502  0.00000000000E+00  0.00000000000E+00  0.10897822312E+03  0.10897822312E+03  0.00000000000E+00 0.  1.
         21   -1    0    0  501  503 -0.00000000000E+00 -0.00000000000E+00 -0.67452597649E+00  0.67452597649E+00  0.00000000000E+00 0. -1.
          5    1    1    2  501    0 -0.46770438222E+01  0.46639387427E+01  0.36302060551E+02  0.37196191522E+02  0.47000000000E+01 0. -1.
         -5    1    1    2    0  502  0.46770438222E+01 -0.46639387427E+01  0.72001636590E+02  0.72456557572E+02  0.47000000000E+01 0.  1.
<mgrwt>
<rscale>  2 0.81066062E+01</rscale>
<asrwt>0</asrwt>
<pdfrwt beam="1">  1       21 0.16765866E-01 0.81066062E+01</pdfrwt>
<pdfrwt beam="2">  1       21 0.10377331E-03 0.81066062E+01</pdfrwt>
<totfact> 0.13612657E+09</totfact>
</mgrwt>
</event>
<event>
 4    1  0.3964155E+006  0.7451753E+01  0.7546771E-02  0.2257724E+00
         21   -1    0    0  503  502  0.00000000000E+00  0.00000000000E+00  0.22772510237E+00  0.22772510237E+00  0.00000000000E+00 0. -1.
         21   -1    0    0  501  503 -0.00000000000E+00 -0.00000000000E+00 -0.31533331742E+03  0.31533331742E+03  0.00000000000E+00 0.  1.
          5    1    1    2  501    0 -0.57563646249E+01  0.55035695613E+00 -0.23268036711E+03  0.23279966037E+03  0.47000000000E+01 0.  1.
         -5    1    1    2    0  502  0.57563646249E+01 -0.55035695613E+00 -0.82425225203E+02  0.82761382155E+02  0.47000000000E+01 0. -1.
<mgrwt>
<rscale>  2 0.74517532E+01</rscale>
<asrwt>0</asrwt>
<pdfrwt beam="1">  1       21 0.35034745E-04 0.74517532E+01</pdfrwt>
<pdfrwt beam="2">  1       21 0.48512660E-01 0.74517532E+01</pdfrwt>
<totfact> 0.91218999E+08</totfact>
</mgrwt>
</event>
<event>
 4    1  0.3964155E+006  0.6777402E+01  0.7546771E-02  0.2324037E+00
         21   -1    0    0  503  502  0.00000000000E+00  0.00000000000E+00  0.28218154375E+02  0.28218154375E+02  0.00000000000E+00 0. -1.
         21   -1    0    0  501  503 -0.00000000000E+00 -0.00000000000E+00 -0.23764388153E+01  0.23764388153E+01  0.00000000000E+00 0. -1.
          5    1    1    2  501    0  0.45054677968E+01 -0.18825363975E+01  0.43348571932E+01  0.80451333265E+01  0.47000000000E+01 0. -1.
         -5    1    1    2    0  502 -0.45054677968E+01  0.18825363975E+01  0.21506858367E+02  0.22549459864E+02  0.47000000000E+01 0. -1.
<mgrwt>
<rscale>  2 0.67774024E+01</rscale>
<asrwt>0</asrwt>
<pdfrwt beam="1">  1       21 0.43412543E-02 0.67774024E+01</pdfrwt>
<pdfrwt beam="2">  1       21 0.36560599E-03 0.67774024E+01</pdfrwt>
<totfact> 0.17129080E+09</totfact>
</mgrwt>
</event>
<event>
 4    1  0.3964155E+006  0.9556550E+01  0.7546771E-02  0.2101140E+00
         21   -1    0    0  501  502  0.00000000000E+00  0.00000000000E+00  0.23082607245E+02  0.23082607245E+02  0.00000000000E+00 0. -1.
         21   -1    0    0  502  503 -0.00000000000E+00 -0.00000000000E+00 -0.54424506044E+01  0.54424506044E+01  0.00000000000E+00 0.  1.
          5    1    1    2  501    0  0.34982483223E+01 -0.75498276449E+01  0.16272428020E+02  0.18871130132E+02  0.47000000000E+01 0. -1.
         -5    1    1    2    0  503 -0.34982483223E+01  0.75498276449E+01  0.13677286206E+01  0.96539277174E+01  0.47000000000E+01 0.  1.
<mgrwt>
<rscale>  2 0.95565495E+01</rscale>
<asrwt>0</asrwt>
<pdfrwt beam="1">  1       21 0.35511703E-02 0.95565495E+01</pdfrwt>
<pdfrwt beam="2">  1       21 0.83730010E-03 0.95565495E+01</pdfrwt>
<totfact> 0.90505710E+08</totfact>
</mgrwt>
</event>
<event>
 4    1  0.3964155E+006  0.4959286E+01  0.7546771E-02  0.2574427E+00
         21   -1    0    0  501  502  0.00000000000E+00  0.00000000000E+00  0.28425937822E+03  0.28425937822E+03  0.00000000000E+00 0.  1.
         21   -1    0    0  502  503 -0.00000000000E+00 -0.00000000000E+00 -0.18022984785E+00  0.18022984785E+00  0.00000000000E+00 0.  1.
          5    1    1    2  501    0 -0.13439552646E+01  0.83564273006E+00  0.24458968394E+03  0.24463995587E+03  0.47000000000E+01 0.  1.
         -5    1    1    2    0  503  0.13439552646E+01 -0.83564273006E+00  0.39489464424E+02  0.39799652198E+02  0.47000000000E+01 0.  1.
<mgrwt>
<rscale>  2 0.49592857E+01</rscale>
<asrwt>0</asrwt>
<pdfrwt beam="1">  1       21 0.43731853E-01 0.49592857E+01</pdfrwt>
<pdfrwt beam="2">  1       21 0.27727896E-04 0.49592857E+01</pdfrwt>
<totfact> 0.11116363E+09</totfact>
</mgrwt>
</event>
<event>
 4    1  0.3964155E+006  0.7710892E+01  0.7546771E-02  0.2234782E+00
         21   -1    0    0  503  502  0.00000000000E+00  0.00000000000E+00  0.84321159309E+01  0.84321159309E+01  0.00000000000E+00 0. -1.
         21   -1    0    0  501  503 -0.00000000000E+00 -0.00000000000E+00 -0.49287938016E+02  0.49287938016E+02  0.00000000000E+00 0. -1.
          5    1    1    2  501    0 -0.35851107712E+01  0.49512452549E+01 -0.47143871515E+02  0.47770309506E+02  0.47000000000E+01 0. -1.
         -5    1    1    2    0  502  0.35851107712E+01 -0.49512452549E+01  0.62880494300E+01  0.99497444414E+01  0.47000000000E+01 0. -1.
<mgrwt>
<rscale>  2 0.77108916E+01</rscale>
<asrwt>0</asrwt>
<pdfrwt beam="1">  1       21 0.12972486E-02 0.77108916E+01</pdfrwt>
<pdfrwt beam="2">  1       21 0.75827595E-02 0.77108916E+01</pdfrwt>
<totfact> 0.13406112E+08</totfact>
</mgrwt>
</event>
<event>
 4    1  0.3964155E+006  0.7607562E+01  0.7546771E-02  0.2243778E+00
         21   -1    0    0  503  502  0.00000000000E+00  0.00000000000E+00  0.30981590186E+03  0.30981590186E+03  0.00000000000E+00 0. -1.
         21   -1    0    0  501  503 -0.00000000000E+00 -0.00000000000E+00 -0.19562544500E+00  0.19562544500E+00  0.00000000000E+00 0. -1.
          5    1    1    2  501    0 -0.51790260103E+01 -0.29937739233E+01  0.12189515182E+03  0.12213231771E+03  0.47000000000E+01 0. -1.
         -5    1    1    2    0  502  0.51790260103E+01  0.29937739233E+01  0.18772512459E+03  0.18787920959E+03  0.47000000000E+01 0. -1.
<mgrwt>
<rscale>  2 0.76075615E+01</rscale>
<asrwt>0</asrwt>
<pdfrwt beam="1">  1       21 0.47663592E-01 0.76075615E+01</pdfrwt>
<pdfrwt beam="2">  1       21 0.30096470E-04 0.76075615E+01</pdfrwt>
<totfact> 0.11712457E+09</totfact>
</mgrwt>
</event>
<event>
 4    1  0.3964155E+006  0.6176011E+01  0.7546771E-02  0.2393063E+00
         21   -1    0    0  503  502  0.00000000000E+00  0.00000000000E+00  0.14986150347E+02  0.14986150347E+02  0.00000000000E+00 0.  1.
         21   -1    0    0  501  503 -0.00000000000E+00 -0.00000000000E+00 -0.92917526395E+01  0.92917526395E+01  0.00000000000E+00 0.  1.
          5    1    1    2  501    0 -0.37139859953E+01 -0.15031359016E+01 -0.74964207443E+01  0.97128488863E+01  0.47000000000E+01 0.  1.
         -5    1    1    2    0  502  0.37139859953E+01  0.15031359016E+01  0.13190818452E+02  0.14565054100E+02  0.47000000000E+01 0.  1.
<mgrwt>
<rscale>  2 0.61760108E+01</rscale>
<asrwt>0</asrwt>
<pdfrwt beam="1">  1       21 0.23055616E-02 0.61760108E+01</pdfrwt>
<pdfrwt beam="2">  1       21 0.14295004E-02 0.61760108E+01</pdfrwt>
<totfact> 0.59118008E+08</totfact>
</mgrwt>
</event>
<event>
 4    1  0.3964155E+006  0.1426472E+02  0.7546771E-02  0.1891371E+00
         21   -1    0    0  501  502  0.00000000000E+00  0.00000000000E+00  0.36543078292E+02  0.36543078292E+02  0.00000000000E+00 0. -1.
         21   -1    0    0  502  503 -0.00000000000E+00 -0.00000000000E+00 -0.15748533840E+02  0.15748533840E+02  0.00000000000E+00 0.  1.
          5    1    1    2  501    0  0.15960044532E+00  0.13467252833E+02  0.31418646861E+02  0.34505271217E+02  0.47000000000E+01 0. -1.
         -5    1    1    2    0  503 -0.15960044532E+00 -0.13467252833E+02 -0.10624102409E+02  0.17786340915E+02  0.47000000000E+01 0.  1.
<mgrwt>
<rscale>  2 0.14264725E+02</rscale>
<asrwt>0</asrwt>
<pdfrwt beam="1">  1       21 0.56220120E-02 0.14264725E+02</pdfrwt>
<pdfrwt beam="2">  1       21 0.24228514E-02 0.14264725E+02</pdfrwt>
<totfact> 0.11285222E+08</totfact>
</mgrwt>
</event>
<event>
 4    1  0.3964155E+006  0.5014004E+01  0.7546771E-02  0.2564675E+00
         21   -1    0    0  501  502  0.00000000000E+00  0.00000000000E+00  0.47664119927E+03  0.47664119927E+03  0.00000000000E+00 0. -1.
         21   -1    0    0  502  503 -0.00000000000E+00 -0.00000000000E+00 -0.27933483694E+00  0.27933483694E+00  0.00000000000E+00 0.  1.
          5    1    1    2  501    0 -0.57648455877E+00 -0.16486066820E+01  0.45295116802E+03  0.45297891877E+03  0.47000000000E+01 0. -1.
         -5    1    1    2    0  503  0.57648455877E+00  0.16486066820E+01  0.23410696405E+02  0.23941615330E+02  0.47000000000E+01 0.  1.
<mgrwt>
<rscale>  2 0.50140042E+01</rscale>
<asrwt>0</asrwt>
<pdfrwt beam="1">  1       21 0.73328765E-01 0.50140042E+01</pdfrwt>
<pdfrwt beam="2">  1       21 0.42974972E-04 0.50140042E+01</pdfrwt>
<totfact> 0.24613584E+08</totfact>
</mgrwt>
</event>
<event>
 4    1  0.3964155E+006  0.1530115E+02  0.7546771E-02  0.1859015E+00
         21   -1    0    0  501  502  0.00000000000E+00  0.00000000000E+00  0.51503043897E+02  0.51503043897E+02  0.00000000000E+00 0.  1.
         21   -1    0    0  502  503 -0.00000000000E+00 -0.00000000000E+00 -0.54259209874E+01  0.54259209874E+01  0.00000000000E+00 0. -1.
          5    1    1    2  501    0  0.10592278994E+02 -0.99919409537E+01  0.34502258773E+02  0.37742961181E+02  0.47000000000E+01 0.  1.
         -5    1    1    2    0  503 -0.10592278994E+02  0.99919409537E+01  0.11574864137E+02  0.19186003703E+02  0.47000000000E+01 0. -1.
<mgrwt>
<rscale>  2 0.15301152E+02</rscale>
<asrwt>0</asrwt>
<pdfrwt beam="1">  1       21 0.79235449E-02 0.15301152E+02</pdfrwt>
<pdfrwt beam="2">  1       21 0.83475711E-03 0.15301152E+02</pdfrwt>
<totfact> 0.33013274E+08</totfact>
</mgrwt>
</event>
<event>
 4    1  0.3964155E+006  0.7132743E+01  0.7546771E-02  0.2287816E+00
         21   -1    0    0  503  502  0.00000000000E+00  0.00000000000E+00  0.35737322386E+02  0.35737322386E+02  0.00000000000E+00 0. -1.
         21   -1    0    0  501  503 -0.00000000000E+00 -0.00000000000E+00 -0.33551046588E+01  0.33551046588E+01  0.00000000000E+00 0. -1.
          5    1    1    2  501    0  0.26330253995E+01 -0.46747400581E+01  0.13605904054E+01  0.72613513629E+01  0.47000000000E+01 0. -1.
         -5    1    1    2    0  502 -0.26330253995E+01  0.46747400581E+01  0.31021627322E+02  0.31831075682E+02  0.47000000000E+01 0. -1.
<mgrwt>
<rscale>  2 0.71327426E+01</rscale>
<asrwt>0</asrwt>
<pdfrwt beam="1">  1       21 0.54980493E-02 0.71327426E+01</pdfrwt>
<pdfrwt beam="2">  1       21 0.51616997E-03 0.71327426E+01</pdfrwt>
<totfact> 0.77148084E+08</totfact>
</mgrwt>
</event>
<event>
 4    1  0.3964155E+006  0.8087098E+01  0.7546771E-02  0.2203608E+00
         21   -1    0    0  503  502  0.00000000000E+00  0.00000000000E+00  0.93753290282E+03  0.93753290282E+03  0.00000000000E+00 0.  1.
         21   -1    0    0  501  503 -0.00000000000E+00 -0.00000000000E+00 -0.73408499165E-01  0.73408499165E-01  0.00000000000E+00 0. -1.
          5    1    1    2  501    0 -0.54865082866E+01 -0.36344709343E+01  0.36419828211E+03  0.36428805888E+03  0.47000000000E+01 0. -1.
         -5    1    1    2    0  502  0.54865082866E+01  0.36344709343E+01  0.57326121221E+03  0.57331825243E+03  0.47000000000E+01 0.  1.
<mgrwt>
<rscale>  2 0.80870979E+01</rscale>
<asrwt>0</asrwt>
<pdfrwt beam="1">  1       21 0.14422624E+00 0.80870979E+01</pdfrwt>
<pdfrwt beam="2">  1       21 0.11294366E-04 0.80870979E+01</pdfrwt>
<totfact> 0.49668277E+08</totfact>
</mgrwt>
</event>
<event>
 4    1  0.3964155E+006  0.8078956E+01  0.7546771E-02  0.2204258E+00
         21   -1    0    0  501  502  0.00000000000E+00  0.00000000000E+00  0.19096061647E+02  0.19096061647E+02  0.00000000000E+00 0. -1.
         21   -1    0    0  502  503 -0.00000000000E+00 -0.00000000000E+00 -0.47571123396E+01  0.47571123396E+01  0.00000000000E+00 0. -1.
          5    1    1    2  501    0 -0.40622257284E+01  0.51650605586E+01  0.13497378378E+02  0.15730503855E+02  0.47000000000E+01 0. -1.
         -5    1    1    2    0  503  0.40622257284E+01 -0.51650605586E+01  0.84157092921E+00  0.81226701319E+01  0.47000000000E+01 0. -1.
<mgrwt>
<rscale>  2 0.80789559E+01</rscale>
<asrwt>0</asrwt>
<pdfrwt beam="1">  1       21 0.29378556E-02 0.80789559E+01</pdfrwt>
<pdfrwt beam="2">  1       21 0.73186345E-03 0.80789559E+01</pdfrwt>
<totfact> 0.13086117E+09</totfact>
</mgrwt>
</event>
<event>
 4    1  0.3964155E+006  0.5174520E+01  0.7546771E-02  0.2537095E+00
         21   -1    0    0  503  502  0.00000000000E+00  0.00000000000E+00  0.97635503564E+00  0.97635503564E+00  0.00000000000E+00 0. -1.
         21   -1    0    0  501  503 -0.00000000000E+00 -0.00000000000E+00 -0.23072392173E+03  0.23072392173E+03  0.00000000000E+00 0. -1.
          5    1    1    2  501    0 -0.21605972945E+01  0.13218843373E+00 -0.22362114953E+03  0.22368100986E+03  0.47000000000E+01 0. -1.
         -5    1    1    2    0  502  0.21605972945E+01 -0.13218843373E+00 -0.61264171654E+01  0.80192669076E+01  0.47000000000E+01 0. -1.
<mgrwt>
<rscale>  2 0.51745197E+01</rscale>
<asrwt>0</asrwt>
<pdfrwt beam="1">  1       21 0.15020838E-03 0.51745197E+01</pdfrwt>
<pdfrwt beam="2">  1       21 0.35496010E-01 0.51745197E+01</pdfrwt>
<totfact> 0.17456985E+08</totfact>
</mgrwt>
</event>
<event>
 4    1  0.3964155E+006  0.6192237E+01  0.7546771E-02  0.2391056E+00
         21   -1    0    0  501  502  0.00000000000E+00  0.00000000000E+00  0.36405832108E-01  0.36405832108E-01  0.00000000000E+00 0.  1.
         21   -1    0    0  502  503 -0.00000000000E+00 -0.00000000000E+00 -0.11590367878E+04  0.11590367878E+04  0.00000000000E+00 0.  1.
          5    1    1    2  501    0 -0.38252549860E+01  0.12732730671E+01 -0.40440097436E+03  0.40444837973E+03  0.47000000000E+01 0.  1.
         -5    1    1    2    0  503  0.38252549860E+01 -0.12732730671E+01 -0.75459940762E+03  0.75462481392E+03  0.47000000000E+01 0.  1.
<mgrwt>
<rscale>  2 0.61922371E+01</rscale>
<asrwt>0</asrwt>
<pdfrwt beam="1">  1       21 0.56015669E-05 0.61922371E+01</pdfrwt>
<pdfrwt beam="2">  1       21 0.17829204E+00 0.61922371E+01</pdfrwt>
<totfact> 0.69067228E+08</totfact>
</mgrwt>
</event>
<event>
 4    1  0.3964155E+006  0.6036782E+01  0.7546771E-02  0.2410661E+00
         21   -1    0    0  503  502  0.00000000000E+00  0.00000000000E+00  0.62325128553E+00  0.62325128553E+00  0.00000000000E+00 0. -1.
         21   -1    0    0  501  503 -0.00000000000E+00 -0.00000000000E+00 -0.95598094012E+02  0.95598094012E+02  0.00000000000E+00 0. -1.
          5    1    1    2  501    0  0.37819702663E+01 -0.22234408730E+00 -0.77469142874E+02  0.77703994966E+02  0.47000000000E+01 0. -1.
         -5    1    1    2    0  502 -0.37819702663E+01  0.22234408730E+00 -0.17505699852E+02  0.18517350331E+02  0.47000000000E+01 0. -1.
<mgrwt>
<rscale>  2 0.60367819E+01</rscale>
<asrwt>0</asrwt>
<pdfrwt beam="1">  1       21 0.95884818E-04 0.60367819E+01</pdfrwt>
<pdfrwt beam="2">  1       21 0.14707398E-01 0.60367819E+01</pdfrwt>
<totfact> 0.15097829E+09</totfact>
</mgrwt>
</event>
<event>
 4    1  0.3964155E+006  0.7560560E+01  0.7546771E-02  0.2247936E+00
         21   -1    0    0  503  502  0.00000000000E+00  0.00000000000E+00  0.25946221562E+02  0.25946221562E+02  0.00000000000E+00 0.  1.
         21   -1    0    0  501  503 -0.00000000000E+00 -0.00000000000E+00 -0.24267469135E+01  0.24267469135E+01  0.00000000000E+00 0.  1.
          5    1    1    2  501    0  0.43818629286E+00 -0.59059342842E+01  0.16066451024E+02  0.17756489391E+02  0.47000000000E+01 0.  1.
         -5    1    1    2    0  502 -0.43818629286E+00  0.59059342842E+01  0.74530236245E+01  0.10616479084E+02  0.47000000000E+01 0.  1.
<mgrwt>
<rscale>  2 0.75605600E+01</rscale>
<asrwt>0</asrwt>
<pdfrwt beam="1">  1       21 0.39917262E-02 0.75605600E+01</pdfrwt>
<pdfrwt beam="2">  1       21 0.37334570E-03 0.75605600E+01</pdfrwt>
<totfact> 0.20465785E+09</totfact>
</mgrwt>
</event>
<event>
 4    1  0.3964155E+006  0.7444546E+01  0.7546771E-02  0.2258381E+00
         21   -1    0    0  503  502  0.00000000000E+00  0.00000000000E+00  0.27524752974E+02  0.27524752974E+02  0.00000000000E+00 0. -1.
         21   -1    0    0  501  503 -0.00000000000E+00 -0.00000000000E+00 -0.32698794070E+01  0.32698794070E+01  0.00000000000E+00 0. -1.
          5    1    1    2  501    0  0.18205916943E+01 -0.54787508554E+01  0.25832601898E+01  0.78800062348E+01  0.47000000000E+01 0. -1.
         -5    1    1    2    0  502 -0.18205916943E+01  0.54787508554E+01  0.21671613377E+02  0.22914626147E+02  0.47000000000E+01 0. -1.
<mgrwt>
<rscale>  2 0.74445460E+01</rscale>
<asrwt>0</asrwt>
<pdfrwt beam="1">  1       21 0.42345772E-02 0.74445460E+01</pdfrwt>
<pdfrwt beam="2">  1       21 0.50305839E-03 0.74445460E+01</pdfrwt>
<totfact> 0.12197489E+09</totfact>
</mgrwt>
</event>
<event>
 4    1  0.3964155E+006  0.4794934E+01  0.7546771E-02  0.2604871E+00
         21   -1    0    0  501  502  0.00000000000E+00  0.00000000000E+00  0.13029841558E+02  0.13029841558E+02  0.00000000000E+00 0. -1.
         21   -1    0    0  502  503 -0.00000000000E+00 -0.00000000000E+00 -0.19959180300E+01  0.19959180300E+01  0.00000000000E+00 0. -1.
          5    1    1    2  501    0  0.92107279183E+00  0.23024740131E+00  0.29588655915E+01  0.56343832442E+01  0.47000000000E+01 0. -1.
         -5    1    1    2    0  503 -0.92107279183E+00 -0.23024740131E+00  0.80750579368E+01  0.93913763441E+01  0.47000000000E+01 0. -1.
<mgrwt>
<rscale>  2 0.47949337E+01</rscale>
<asrwt>0</asrwt>
<pdfrwt beam="1">  1       21 0.20045910E-02 0.47949337E+01</pdfrwt>
<pdfrwt beam="2">  1       21 0.30706432E-03 0.47949337E+01</pdfrwt>
<totfact> 0.48452410E+09</totfact>
</mgrwt>
</event>
<event>
 4    1  0.3964155E+006  0.6317122E+01  0.7546771E-02  0.2375891E+00
         21   -1    0    0  501  502  0.00000000000E+00  0.00000000000E+00  0.19611318253E+03  0.19611318253E+03  0.00000000000E+00 0. -1.
         21   -1    0    0  502  503 -0.00000000000E+00 -0.00000000000E+00 -0.20353485602E+00  0.20353485602E+00  0.00000000000E+00 0. -1.
          5    1    1    2  501    0 -0.17271034676E+01 -0.38513823630E+01  0.96413971494E+02  0.96620701363E+02  0.47000000000E+01 0. -1.
         -5    1    1    2    0  503  0.17271034676E+01  0.38513823630E+01  0.99495676180E+02  0.99696016024E+02  0.47000000000E+01 0. -1.
<mgrwt>
<rscale>  2 0.63171222E+01</rscale>
<asrwt>0</asrwt>
<pdfrwt beam="1">  1       21 0.30171108E-01 0.63171222E+01</pdfrwt>
<pdfrwt beam="2">  1       21 0.31313212E-04 0.63171222E+01</pdfrwt>
<totfact> 0.21744906E+09</totfact>
</mgrwt>
</event>
<event>
 4    1  0.3964155E+006  0.6038426E+01  0.7546771E-02  0.2410449E+00
         21   -1    0    0  503  502  0.00000000000E+00  0.00000000000E+00  0.15487047799E+00  0.15487047799E+00  0.00000000000E+00 0. -1.
         21   -1    0    0  501  503 -0.00000000000E+00 -0.00000000000E+00 -0.93864381778E+03  0.93864381778E+03  0.00000000000E+00 0. -1.
          5    1    1    2  501    0 -0.37563872418E+01  0.51200262050E+00 -0.87553145153E+03  0.87555227440E+03  0.47000000000E+01 0. -1.
         -5    1    1    2    0  502  0.37563872418E+01 -0.51200262050E+00 -0.62957495767E+02  0.63246413852E+02  0.47000000000E+01 0. -1.
<mgrwt>
<rscale>  2 0.60384263E+01</rscale>
<asrwt>0</asrwt>
<pdfrwt beam="1">  1       21 0.23825377E-04 0.60384263E+01</pdfrwt>
<pdfrwt beam="2">  1       21 0.14441189E+00 0.60384263E+01</pdfrwt>
<totfact> 0.15547215E+08</totfact>
</mgrwt>
</event>
<event>
 4    1  0.3964155E+006  0.1153520E+02  0.7546771E-02  0.1996882E+00
         21   -1    0    0  501  502  0.00000000000E+00  0.00000000000E+00  0.22507190317E+01  0.22507190317E+01  0.00000000000E+00 0. -1.
         21   -1    0    0  502  503 -0.00000000000E+00 -0.00000000000E+00 -0.64722807869E+02  0.64722807869E+02  0.00000000000E+00 0.  1.
          5    1    1    2  501    0  0.12539899476E+01  0.10459362251E+02 -0.21382836137E+02  0.24295810971E+02  0.47000000000E+01 0. -1.
         -5    1    1    2    0  503 -0.12539899476E+01 -0.10459362251E+02 -0.41089252700E+02  0.42677715929E+02  0.47000000000E+01 0.  1.
<mgrwt>
<rscale>  2 0.11535196E+02</rscale>
<asrwt>0</asrwt>
<pdfrwt beam="1">  1       21 0.34626447E-03 0.11535196E+02</pdfrwt>
<pdfrwt beam="2">  1       21 0.99573550E-02 0.11535196E+02</pdfrwt>
<totfact> 0.72001270E+08</totfact>
</mgrwt>
</event>
<event>
 4    1  0.3964155E+006  0.4826447E+01  0.7546771E-02  0.2598894E+00
         21   -1    0    0  501  502  0.00000000000E+00  0.00000000000E+00  0.14004239111E+03  0.14004239111E+03  0.00000000000E+00 0.  1.
         21   -1    0    0  502  503 -0.00000000000E+00 -0.00000000000E+00 -0.16763101156E+00  0.16763101156E+00  0.00000000000E+00 0.  1.
          5    1    1    2  501    0  0.31171741096E+00 -0.10523434599E+01  0.76090639045E+02  0.76243556742E+02  0.47000000000E+01 0. -1.
         -5    1    1    2    0  503 -0.31171741096E+00  0.10523434599E+01  0.63784121049E+02  0.63966465375E+02  0.47000000000E+01 0. -1.
<mgrwt>
<rscale>  2 0.48264474E+01</rscale>
<asrwt>0</asrwt>
<pdfrwt beam="1">  1       21 0.21544890E-01 0.48264474E+01</pdfrwt>
<pdfrwt beam="2">  1       21 0.25789498E-04 0.48264474E+01</pdfrwt>
<totfact> 0.38711885E+09</totfact>
</mgrwt>
</event>
<event>
 4    1  0.3964155E+006  0.5597115E+01  0.7546771E-02  0.2471008E+00
         21   -1    0    0  503  502  0.00000000000E+00  0.00000000000E+00  0.25245611854E+03  0.25245611854E+03  0.00000000000E+00 0. -1.
         21   -1    0    0  501  503 -0.00000000000E+00 -0.00000000000E+00 -0.25913826007E+00  0.25913826007E+00  0.00000000000E+00 0.  1.
          5    1    1    2  501    0 -0.21294828594E+01  0.21686404240E+01  0.34881124404E+02  0.35327334151E+02  0.47000000000E+01 0.  1.
         -5    1    1    2    0  502  0.21294828594E+01 -0.21686404240E+01  0.21731585588E+03  0.21738792265E+03  0.47000000000E+01 0. -1.
<mgrwt>
<rscale>  2 0.55971152E+01</rscale>
<asrwt>0</asrwt>
<pdfrwt beam="1">  1       21 0.38839206E-01 0.55971152E+01</pdfrwt>
<pdfrwt beam="2">  1       21 0.39867627E-04 0.55971152E+01</pdfrwt>
<totfact> 0.93171864E+08</totfact>
</mgrwt>
</event>
<event>
 4    1  0.3964155E+006  0.7185843E+01  0.7546771E-02  0.2282656E+00
         21   -1    0    0  503  502  0.00000000000E+00  0.00000000000E+00  0.13340951650E+01  0.13340951650E+01  0.00000000000E+00 0.  1.
         21   -1    0    0  501  503 -0.00000000000E+00 -0.00000000000E+00 -0.39061332359E+02  0.39061332359E+02  0.00000000000E+00 0.  1.
          5    1    1    2  501    0  0.52575387829E+01  0.13800829657E+01 -0.16934896500E+02  0.18396387214E+02  0.47000000000E+01 0.  1.
         -5    1    1    2    0  502 -0.52575387829E+01 -0.13800829657E+01 -0.20792340694E+02  0.21999040310E+02  0.47000000000E+01 0.  1.
<mgrwt>
<rscale>  2 0.71858432E+01</rscale>
<asrwt>0</asrwt>
<pdfrwt beam="1">  1       21 0.20524544E-03 0.71858432E+01</pdfrwt>
<pdfrwt beam="2">  1       21 0.60094350E-02 0.71858432E+01</pdfrwt>
<totfact> 0.24434455E+09</totfact>
</mgrwt>
</event>
<event>
 4    1  0.3964155E+006  0.5372258E+01  0.7546771E-02  0.2505070E+00
         21   -1    0    0  503  502  0.00000000000E+00  0.00000000000E+00  0.13641203511E+02  0.13641203511E+02  0.00000000000E+00 0. -1.
         21   -1    0    0  501  503 -0.00000000000E+00 -0.00000000000E+00 -0.36479077056E+01  0.36479077056E+01  0.00000000000E+00 0. -1.
          5    1    1    2  501    0  0.25530029349E+01  0.50332019723E+00 -0.60576074396E+00  0.54063019973E+01  0.47000000000E+01 0. -1.
         -5    1    1    2    0  502 -0.25530029349E+01 -0.50332019723E+00  0.10599056549E+02  0.11882809219E+02  0.47000000000E+01 0. -1.
<mgrwt>
<rscale>  2 0.53722579E+01</rscale>
<asrwt>0</asrwt>
<pdfrwt beam="1">  1       21 0.20986467E-02 0.53722579E+01</pdfrwt>
<pdfrwt beam="2">  1       21 0.56121658E-03 0.53722579E+01</pdfrwt>
<totfact> 0.22339985E+09</totfact>
</mgrwt>
</event>
<event>
 4    1  0.3964155E+006  0.5365289E+01  0.7546771E-02  0.2506164E+00
         21   -1    0    0  501  502  0.00000000000E+00  0.00000000000E+00  0.24384762170E+03  0.24384762170E+03  0.00000000000E+00 0.  1.
         21   -1    0    0  502  503 -0.00000000000E+00 -0.00000000000E+00 -0.58393459069E+00  0.58393459069E+00  0.00000000000E+00 0. -1.
          5    1    1    2  501    0  0.24004445325E+01 -0.96653516906E+00  0.23079702331E+03  0.23085937774E+03  0.47000000000E+01 0.  1.
         -5    1    1    2    0  503 -0.24004445325E+01  0.96653516906E+00  0.12466663801E+02  0.13572178547E+02  0.47000000000E+01 0. -1.
<mgrwt>
<rscale>  2 0.53652888E+01</rscale>
<asrwt>0</asrwt>
<pdfrwt beam="1">  1       21 0.37514937E-01 0.53652888E+01</pdfrwt>
<pdfrwt beam="2">  1       21 0.89836286E-04 0.53652888E+01</pdfrwt>
<totfact> 0.32451822E+08</totfact>
</mgrwt>
</event>
<event>
 4    1  0.3964155E+006  0.6070272E+01  0.7546771E-02  0.2406366E+00
         21   -1    0    0  501  502  0.00000000000E+00  0.00000000000E+00  0.59328788911E+00  0.59328788911E+00  0.00000000000E+00 0.  1.
         21   -1    0    0  502  503 -0.00000000000E+00 -0.00000000000E+00 -0.94994844277E+02  0.94994844277E+02  0.00000000000E+00 0. -1.
          5    1    1    2  501    0  0.27369314564E+01  0.26958120473E+01 -0.19079695730E+02  0.20022062469E+02  0.47000000000E+01 0.  1.
         -5    1    1    2    0  503 -0.27369314564E+01 -0.26958120473E+01 -0.75321860658E+02  0.75566069696E+02  0.47000000000E+01 0. -1.
<mgrwt>
<rscale>  2 0.60702715E+01</rscale>
<asrwt>0</asrwt>
<pdfrwt beam="1">  1       21 0.91275003E-04 0.60702715E+01</pdfrwt>
<pdfrwt beam="2">  1       21 0.14614600E-01 0.60702715E+01</pdfrwt>
<totfact> 0.16365447E+09</totfact>
</mgrwt>
</event>
<event>
 4    1  0.3964155E+006  0.6191949E+01  0.7546771E-02  0.2391091E+00
         21   -1    0    0  503  502  0.00000000000E+00  0.00000000000E+00  0.88486378653E+01  0.88486378653E+01  0.00000000000E+00 0.  1.
         21   -1    0    0  501  503 -0.00000000000E+00 -0.00000000000E+00 -0.43565404114E+01  0.43565404114E+01  0.00000000000E+00 0. -1.
          5    1    1    2  501    0  0.40060334975E+01  0.44936933653E+00  0.27324533772E+01  0.67680527955E+01  0.47000000000E+01 0.  1.
         -5    1    1    2    0  502 -0.40060334975E+01 -0.44936933653E+00  0.17596440767E+01  0.64371254812E+01  0.47000000000E+01 0. -1.
<mgrwt>
<rscale>  2 0.61919494E+01</rscale>
<asrwt>0</asrwt>
<pdfrwt beam="1">  1       21 0.13613289E-02 0.61919494E+01</pdfrwt>
<pdfrwt beam="2">  1       21 0.67023699E-03 0.61919494E+01</pdfrwt>
<totfact> 0.36790872E+09</totfact>
</mgrwt>
</event>
<event>
 4    1  0.3964155E+006  0.5052814E+01  0.7546771E-02  0.2557869E+00
         21   -1    0    0  501  502  0.00000000000E+00  0.00000000000E+00  0.21398510107E+01  0.21398510107E+01  0.00000000000E+00 0.  1.
         21   -1    0    0  502  503 -0.00000000000E+00 -0.00000000000E+00 -0.42834288784E+02  0.42834288784E+02  0.00000000000E+00 0.  1.
          5    1    1    2  501    0 -0.26157851801E+00 -0.18364375495E+01 -0.12470043543E+01  0.52044160147E+01  0.47000000000E+01 0.  1.
         -5    1    1    2    0  503  0.26157851801E+00  0.18364375495E+01 -0.39447433419E+02  0.39769723780E+02  0.47000000000E+01 0.  1.
<mgrwt>
<rscale>  2 0.50528137E+01</rscale>
<asrwt>0</asrwt>
<pdfrwt beam="1">  1       21 0.32920786E-03 0.50528137E+01</pdfrwt>
<pdfrwt beam="2">  1       21 0.65898903E-02 0.50528137E+01</pdfrwt>
<totfact> 0.83298608E+08</totfact>
</mgrwt>
</event>
<event>
 4    1  0.3964155E+006  0.4793262E+01  0.7546771E-02  0.2605190E+00
         21   -1    0    0  503  502  0.00000000000E+00  0.00000000000E+00  0.29518773940E+00  0.29518773940E+00  0.00000000000E+00 0.  1.
         21   -1    0    0  501  503 -0.00000000000E+00 -0.00000000000E+00 -0.10173847101E+03  0.10173847101E+03  0.00000000000E+00 0.  1.
          5    1    1    2  501    0  0.79503119775E+00  0.50327556392E+00 -0.25991927521E+02  0.26430203502E+02  0.47000000000E+01 0.  1.
         -5    1    1    2    0  502 -0.79503119775E+00 -0.50327556392E+00 -0.75451355750E+02  0.75603455248E+02  0.47000000000E+01 0.  1.
<mgrwt>
<rscale>  2 0.47932620E+01</rscale>
<asrwt>0</asrwt>
<pdfrwt beam="1">  1       21 0.45413441E-04 0.47932620E+01</pdfrwt>
<pdfrwt beam="2">  1       21 0.15652092E-01 0.47932620E+01</pdfrwt>
<totfact> 0.30090930E+09</totfact>
</mgrwt>
</event>
<event>
 4    1  0.3964155E+006  0.4818317E+01  0.7546771E-02  0.2600430E+00
         21   -1    0    0  501  502  0.00000000000E+00  0.00000000000E+00  0.84807818970E-01  0.84807818970E-01  0.00000000000E+00 0. -1.
         21   -1    0    0  502  503 -0.00000000000E+00 -0.00000000000E+00 -0.34078263053E+03  0.34078263053E+03  0.00000000000E+00 0. -1.
          5    1    1    2  501    0  0.17933968627E+00 -0.10459540327E+01 -0.24593786232E+03  0.24598505708E+03  0.47000000000E+01 0. -1.
         -5    1    1    2    0  503 -0.17933968627E+00  0.10459540327E+01 -0.94759960391E+02  0.94882381272E+02  0.47000000000E+01 0. -1.
<mgrwt>
<rscale>  2 0.48183174E+01</rscale>
<asrwt>0</asrwt>
<pdfrwt beam="1">  1       21 0.13046982E-04 0.48183174E+01</pdfrwt>
<pdfrwt beam="2">  1       21 0.52429603E-01 0.48183174E+01</pdfrwt>
<totfact> 0.21337265E+09</totfact>
</mgrwt>
</event>
<event>
 4    1  0.3964155E+006  0.6151914E+01  0.7546771E-02  0.2396061E+00
         21   -1    0    0  503  502  0.00000000000E+00  0.00000000000E+00  0.29745863740E+02  0.29745863740E+02  0.00000000000E+00 0.  1.
         21   -1    0    0  501  503 -0.00000000000E+00 -0.00000000000E+00 -0.43398129106E+01  0.43398129106E+01  0.00000000000E+00 0.  1.
          5    1    1    2  501    0 -0.35762613506E+01 -0.17223250685E+01 -0.16254076873E+01  0.63630180763E+01  0.47000000000E+01 0.  1.
         -5    1    1    2    0  502  0.35762613506E+01  0.17223250685E+01  0.27031458517E+02  0.27722658575E+02  0.47000000000E+01 0.  1.
<mgrwt>
<rscale>  2 0.61519142E+01</rscale>
<asrwt>0</asrwt>
<pdfrwt beam="1">  1       21 0.45762866E-02 0.61519142E+01</pdfrwt>
<pdfrwt beam="2">  1       21 0.66766354E-03 0.61519142E+01</pdfrwt>
<totfact> 0.63454615E+08</totfact>
</mgrwt>
</event>
<event>
 4    1  0.3964155E+006  0.4972771E+01  0.7546771E-02  0.2572007E+00
         21   -1    0    0  501  502  0.00000000000E+00  0.00000000000E+00  0.93072359115E+00  0.93072359115E+00  0.00000000000E+00 0.  1.
         21   -1    0    0  502  503 -0.00000000000E+00 -0.00000000000E+00 -0.29182733532E+02  0.29182733532E+02  0.00000000000E+00 0. -1.
          5    1    1    2  501    0 -0.95575664005E+00 -0.13133840075E+01 -0.96199805496E+01  0.10829241621E+02  0.47000000000E+01 0.  1.
         -5    1    1    2    0  503  0.95575664005E+00  0.13133840075E+01 -0.18632029391E+02  0.19284215502E+02  0.47000000000E+01 0. -1.
<mgrwt>
<rscale>  2 0.49727707E+01</rscale>
<asrwt>0</asrwt>
<pdfrwt beam="1">  1       21 0.14318823E-03 0.49727707E+01</pdfrwt>
<pdfrwt beam="2">  1       21 0.44896518E-02 0.49727707E+01</pdfrwt>
<totfact> 0.44252722E+09</totfact>
</mgrwt>
</event>
<event>
 4    1  0.3964155E+006  0.5248729E+01  0.7546771E-02  0.2524835E+00
         21   -1    0    0  501  502  0.00000000000E+00  0.00000000000E+00  0.47786425942E+01  0.47786425942E+01  0.00000000000E+00 0.  1.
         21   -1    0    0  502  503 -0.00000000000E+00 -0.00000000000E+00 -0.81662084071E+01  0.81662084071E+01  0.00000000000E+00 0.  1.
          5    1    1    2  501    0  0.23364670712E+01 -0.90191941531E-02  0.18158877258E+01  0.55539722680E+01  0.47000000000E+01 0.  1.
         -5    1    1    2    0  503 -0.23364670712E+01  0.90191941531E-02 -0.52034535388E+01  0.73908787333E+01  0.47000000000E+01 0.  1.
<mgrwt>
<rscale>  2 0.52487293E+01</rscale>
<asrwt>0</asrwt>
<pdfrwt beam="1">  1       21 0.73517579E-03 0.52487293E+01</pdfrwt>
<pdfrwt beam="2">  1       21 0.12563397E-02 0.52487293E+01</pdfrwt>
<totfact> 0.31061069E+09</totfact>
</mgrwt>
</event>
<event>
 4    1  0.3964155E+006  0.9031159E+01  0.7546771E-02  0.2134717E+00
         21   -1    0    0  501  502  0.00000000000E+00  0.00000000000E+00  0.48124332965E+01  0.48124332965E+01  0.00000000000E+00 0.  1.
         21   -1    0    0  502  503 -0.00000000000E+00 -0.00000000000E+00 -0.52936451612E+02  0.52936451612E+02  0.00000000000E+00 0.  1.
          5    1    1    2  501    0 -0.69548750193E+01  0.33318988998E+01 -0.25434019465E+00  0.90347399380E+01  0.47000000000E+01 0.  1.
         -5    1    1    2    0  503  0.69548750193E+01 -0.33318988998E+01 -0.47869678121E+02  0.48714144970E+02  0.47000000000E+01 0.  1.
<mgrwt>
<rscale>  2 0.90311592E+01</rscale>
<asrwt>0</asrwt>
<pdfrwt beam="1">  1       21 0.74037436E-03 0.90311592E+01</pdfrwt>
<pdfrwt beam="2">  1       21 0.81440694E-02 0.90311592E+01</pdfrwt>
<totfact> 0.29340951E+08</totfact>
</mgrwt>
</event>
<event>
 4    1  0.3964155E+006  0.5001234E+01  0.7546771E-02  0.2566935E+00
         21   -1    0    0  501  502  0.00000000000E+00  0.00000000000E+00  0.24296618253E+01  0.24296618253E+01  0.00000000000E+00 0. -1.
         21   -1    0    0  502  503 -0.00000000000E+00 -0.00000000000E+00 -0.14602075581E+03  0.14602075581E+03  0.00000000000E+00 0. -1.
          5    1    1    2  501    0  0.14154378041E+00 -0.17036154945E+01 -0.23462235845E+00  0.50067342696E+01  0.47000000000E+01 0. -1.
         -5    1    1    2    0  503 -0.14154378041E+00  0.17036154945E+01 -0.14335647163E+03  0.14344368337E+03  0.47000000000E+01 0. -1.
<mgrwt>
<rscale>  2 0.50012339E+01</rscale>
<asrwt>0</asrwt>
<pdfrwt beam="1">  1       21 0.37379419E-03 0.50012339E+01</pdfrwt>
<pdfrwt beam="2">  1       21 0.22464728E-01 0.50012339E+01</pdfrwt>
<totfact> 0.10554592E+08</totfact>
</mgrwt>
</event>
<event>
 4    1  0.3964155E+006  0.7102796E+01  0.7546771E-02  0.2290754E+00
         21   -1    0    0  503  502  0.00000000000E+00  0.00000000000E+00  0.40746219895E+02  0.40746219895E+02  0.00000000000E+00 0.  1.
         21   -1    0    0  501  503 -0.00000000000E+00 -0.00000000000E+00 -0.14109456351E+01  0.14109456351E+01  0.00000000000E+00 0.  1.
          5    1    1    2  501    0 -0.21614421908E+01  0.48670196253E+01  0.12290982857E+02  0.14195702588E+02  0.47000000000E+01 0.  1.
         -5    1    1    2    0  502  0.21614421908E+01 -0.48670196253E+01  0.27044291403E+02  0.27961462942E+02  0.47000000000E+01 0.  1.
<mgrwt>
<rscale>  2 0.71027961E+01</rscale>
<asrwt>0</asrwt>
<pdfrwt beam="1">  1       21 0.62686483E-02 0.71027961E+01</pdfrwt>
<pdfrwt beam="2">  1       21 0.21706859E-03 0.71027961E+01</pdfrwt>
<totfact> 0.21035096E+09</totfact>
</mgrwt>
</event>
<event>
 4    1  0.3964155E+006  0.7708159E+01  0.7546771E-02  0.2235017E+00
         21   -1    0    0  501  502  0.00000000000E+00  0.00000000000E+00  0.52849527124E+02  0.52849527124E+02  0.00000000000E+00 0.  1.
         21   -1    0    0  502  503 -0.00000000000E+00 -0.00000000000E+00 -0.33717830745E+01  0.33717830745E+01  0.00000000000E+00 0. -1.
          5    1    1    2  501    0 -0.48188107373E+01 -0.37556338561E+01  0.47689514852E+02  0.48308441803E+02  0.47000000000E+01 0.  1.
         -5    1    1    2    0  503  0.48188107373E+01  0.37556338561E+01  0.17882291972E+01  0.79128683955E+01  0.47000000000E+01 0. -1.
<mgrwt>
<rscale>  2 0.77081595E+01</rscale>
<asrwt>0</asrwt>
<pdfrwt beam="1">  1       21 0.81306958E-02 0.77081595E+01</pdfrwt>
<pdfrwt beam="2">  1       21 0.51873590E-03 0.77081595E+01</pdfrwt>
<totfact> 0.44445928E+08</totfact>
</mgrwt>
</event>
<event>
 4    1  0.3964155E+006  0.6396629E+01  0.7546771E-02  0.2366493E+00
         21   -1    0    0  501  502  0.00000000000E+00  0.00000000000E+00  0.11289454068E+04  0.11289454068E+04  0.00000000000E+00 0. -1.
         21   -1    0    0  502  503 -0.00000000000E+00 -0.00000000000E+00 -0.49135727804E-01  0.49135727804E-01  0.00000000000E+00 0.  1.
          5    1    1    2  501    0 -0.30964672942E+01  0.30395323437E+01  0.85360141649E+03  0.85362538335E+03  0.47000000000E+01 0. -1.
         -5    1    1    2    0  503  0.30964672942E+01 -0.30395323437E+01  0.27529485455E+03  0.27536915915E+03  0.47000000000E+01 0. -1.
<mgrwt>
<rscale>  2 0.63966293E+01</rscale>
<asrwt>0</asrwt>
<pdfrwt beam="1">  1       21 0.17366314E+00 0.63966293E+01</pdfrwt>
<pdfrwt beam="2">  1       21 0.75602469E-05 0.63966293E+01</pdfrwt>
<totfact> 0.49847780E+08</totfact>
</mgrwt>
</event>
<event>
 4    1  0.3964155E+006  0.7344785E+01  0.7546771E-02  0.2267577E+00
         21   -1    0    0  503  502  0.00000000000E+00  0.00000000000E+00  0.20943902284E+02  0.20943902284E+02  0.00000000000E+00 0. -1.
         21   -1    0    0  501  503 -0.00000000000E+00 -0.00000000000E+00 -0.31951946911E+01  0.31951946911E+01  0.00000000000E+00 0.  1.
          5    1    1    2  501    0 -0.14798509963E+01  0.54466425392E+01  0.14188702269E+02  0.15977019309E+02  0.47000000000E+01 0. -1.
         -5    1    1    2    0  502  0.14798509963E+01 -0.54466425392E+01  0.35600053240E+01  0.81620776661E+01  0.47000000000E+01 0.  1.
<mgrwt>
<rscale>  2 0.73447855E+01</rscale>
<asrwt>0</asrwt>
<pdfrwt beam="1">  1       21 0.32221387E-02 0.73447855E+01</pdfrwt>
<pdfrwt beam="2">  1       21 0.49156843E-03 0.73447855E+01</pdfrwt>
<totfact> 0.18721467E+09</totfact>
</mgrwt>
</event>
<event>
 4    1  0.3964155E+006  0.7104948E+01  0.7546771E-02  0.2290542E+00
         21   -1    0    0  503  502  0.00000000000E+00  0.00000000000E+00  0.56675382996E+00  0.56675382996E+00  0.00000000000E+00 0. -1.
         21   -1    0    0  501  503 -0.00000000000E+00 -0.00000000000E+00 -0.12518098700E+03  0.12518098700E+03  0.00000000000E+00 0. -1.
          5    1    1    2  501    0 -0.73319969628E+00 -0.52775659470E+01 -0.96076705745E+02  0.96339055793E+02  0.47000000000E+01 0. -1.
         -5    1    1    2    0  502  0.73319969628E+00  0.52775659470E+01 -0.28537527427E+02  0.29408685040E+02  0.47000000000E+01 0. -1.
<mgrwt>
<rscale>  2 0.71049479E+01</rscale>
<asrwt>0</asrwt>
<pdfrwt beam="1">  1       21 0.87192780E-04 0.71049479E+01</pdfrwt>
<pdfrwt beam="2">  1       21 0.19258639E-01 0.71049479E+01</pdfrwt>
<totfact> 0.12590661E+09</totfact>
</mgrwt>
</event>
<event>
 4    1  0.3964155E+006  0.6584541E+01  0.7546771E-02  0.2345034E+00
         21   -1    0    0  501  502  0.00000000000E+00  0.00000000000E+00  0.18031117519E+01  0.18031117519E+01  0.00000000000E+00 0. -1.
         21   -1    0    0  502  503 -0.00000000000E+00 -0.00000000000E+00 -0.52231147564E+02  0.52231147564E+02  0.00000000000E+00 0. -1.
          5    1    1    2  501    0 -0.28199262006E+01  0.36488617683E+01 -0.53672051835E+01  0.84948847822E+01  0.47000000000E+01 0. -1.
         -5    1    1    2    0  503  0.28199262006E+01 -0.36488617683E+01 -0.45060830628E+02  0.45539374534E+02  0.47000000000E+01 0. -1.
<mgrwt>
<rscale>  2 0.65845407E+01</rscale>
<asrwt>0</asrwt>
<pdfrwt beam="1">  1       21 0.27740185E-03 0.65845407E+01</pdfrwt>
<pdfrwt beam="2">  1       21 0.80355600E-02 0.65845407E+01</pdfrwt>
<totfact> 0.97222542E+08</totfact>
</mgrwt>
</event>
<event>
 4    1  0.3964155E+006  0.6363054E+01  0.7546771E-02  0.2370438E+00
         21   -1    0    0  503  502  0.00000000000E+00  0.00000000000E+00  0.15772820114E+03  0.15772820114E+03  0.00000000000E+00 0.  1.
         21   -1    0    0  501  503 -0.00000000000E+00 -0.00000000000E+00 -0.10039834359E+01  0.10039834359E+01  0.00000000000E+00 0.  1.
          5    1    1    2  501    0 -0.15670917266E+01 -0.39928283684E+01  0.98897812127E+01  0.11759941637E+02  0.47000000000E+01 0.  1.
         -5    1    1    2    0  502  0.15670917266E+01  0.39928283684E+01  0.14683443649E+03  0.14697224294E+03  0.47000000000E+01 0.  1.
<mgrwt>
<rscale>  2 0.63630539E+01</rscale>
<asrwt>0</asrwt>
<pdfrwt beam="1">  1       21 0.24265857E-01 0.63630539E+01</pdfrwt>
<pdfrwt beam="2">  1       21 0.15445912E-03 0.63630539E+01</pdfrwt>
<totfact> 0.36783447E+08</totfact>
</mgrwt>
</event>
<event>
 4    1  0.3964155E+006  0.5675623E+01  0.7546771E-02  0.2459656E+00
         21   -1    0    0  501  502  0.00000000000E+00  0.00000000000E+00  0.49729768655E+01  0.49729768655E+01  0.00000000000E+00 0.  1.
         21   -1    0    0  502  503 -0.00000000000E+00 -0.00000000000E+00 -0.11412794588E+03  0.11412794588E+03  0.00000000000E+00 0.  1.
          5    1    1    2  501    0 -0.27450316634E+01  0.16085700171E+01  0.32583424787E+01  0.65444245004E+01  0.47000000000E+01 0.  1.
         -5    1    1    2    0  503  0.27450316634E+01 -0.16085700171E+01 -0.11241331149E+03  0.11255649825E+03  0.47000000000E+01 0.  1.
<mgrwt>
<rscale>  2 0.56756230E+01</rscale>
<asrwt>0</asrwt>
<pdfrwt beam="1">  1       21 0.76507338E-03 0.56756230E+01</pdfrwt>
<pdfrwt beam="2">  1       21 0.17558145E-01 0.56756230E+01</pdfrwt>
<totfact> 0.63564342E+07</totfact>
</mgrwt>
</event>
<event>
 4    1  0.3964155E+006  0.6571118E+01  0.7546771E-02  0.2346533E+00
         21   -1    0    0  503  502  0.00000000000E+00  0.00000000000E+00  0.38371010124E+01  0.38371010124E+01  0.00000000000E+00 0. -1.
         21   -1    0    0  501  503 -0.00000000000E+00 -0.00000000000E+00 -0.16210255486E+02  0.16210255486E+02  0.00000000000E+00 0. -1.
          5    1    1    2  501    0 -0.38197945283E+01 -0.25492675833E+01 -0.11729577169E+02  0.13444797358E+02  0.47000000000E+01 0. -1.
         -5    1    1    2    0  502  0.38197945283E+01  0.25492675833E+01 -0.64357730477E+00  0.66025591400E+01  0.47000000000E+01 0. -1.
<mgrwt>
<rscale>  2 0.65711183E+01</rscale>
<asrwt>0</asrwt>
<pdfrwt beam="1">  1       21 0.59032325E-03 0.65711183E+01</pdfrwt>
<pdfrwt beam="2">  1       21 0.24938854E-02 0.65711183E+01</pdfrwt>
<totfact> 0.19351924E+09</totfact>
</mgrwt>
</event>
<event>
 4    1  0.3964155E+006  0.5226866E+01  0.7546771E-02  0.2528416E+00
         21   -1    0    0  503  502  0.00000000000E+00  0.00000000000E+00  0.57855706228E-01  0.57855706228E-01  0.00000000000E+00 0.  1.
         21   -1    0    0  501  503 -0.00000000000E+00 -0.00000000000E+00 -0.49022929298E+03  0.49022929298E+03  0.00000000000E+00 0.  1.
          5    1    1    2  501    0  0.13736260503E+01  0.18284648266E+01 -0.29208283339E+03  0.29212959742E+03  0.47000000000E+01 0.  1.
         -5    1    1    2    0  502 -0.13736260503E+01 -0.18284648266E+01 -0.19808860389E+03  0.19815755126E+03  0.47000000000E+01 0.  1.
<mgrwt>
<rscale>  2 0.52268664E+01</rscale>
<asrwt>0</asrwt>
<pdfrwt beam="1">  1       21 0.89004954E-05 0.52268664E+01</pdfrwt>
<pdfrwt beam="2">  1       21 0.75423132E-01 0.52268664E+01</pdfrwt>
<totfact> 0.19422972E+09</totfact>
</mgrwt>
</event>
<event>
 4    1  0.3964155E+006  0.5001488E+01  0.7546771E-02  0.2566890E+00
         21   -1    0    0  503  502  0.00000000000E+00  0.00000000000E+00  0.80050576083E+01  0.80050576083E+01  0.00000000000E+00 0.  1.
         21   -1    0    0  501  503 -0.00000000000E+00 -0.00000000000E+00 -0.18951594222E+02  0.18951594222E+02  0.00000000000E+00 0.  1.
          5    1    1    2  501    0 -0.11085072722E+01 -0.13023402326E+01 -0.17790366427E+02  0.18480043725E+02  0.47000000000E+01 0.  1.
         -5    1    1    2    0  502  0.11085072722E+01  0.13023402326E+01  0.68438298136E+01  0.84766081054E+01  0.47000000000E+01 0.  1.
<mgrwt>
<rscale>  2 0.50014876E+01</rscale>
<asrwt>0</asrwt>
<pdfrwt beam="1">  1       21 0.12315473E-02 0.50014876E+01</pdfrwt>
<pdfrwt beam="2">  1       21 0.29156299E-02 0.50014876E+01</pdfrwt>
<totfact> 0.43722182E+08</totfact>
</mgrwt>
</event>
<event>
 4    1  0.3964155E+006  0.6882316E+01  0.7546771E-02  0.2313024E+00
         21   -1    0    0  501  502  0.00000000000E+00  0.00000000000E+00  0.84880080483E+02  0.84880080483E+02  0.00000000000E+00 0. -1.
         21   -1    0    0  502  503 -0.00000000000E+00 -0.00000000000E+00 -0.19493321247E+01  0.19493321247E+01  0.00000000000E+00 0. -1.
          5    1    1    2  501    0  0.18146106906E+01  0.46886528125E+01  0.78143191579E+02  0.78445679724E+02  0.47000000000E+01 0. -1.
         -5    1    1    2    0  503 -0.18146106906E+01 -0.46886528125E+01  0.47875567792E+01  0.83837328839E+01  0.47000000000E+01 0. -1.
<mgrwt>
<rscale>  2 0.68823163E+01</rscale>
<asrwt>0</asrwt>
<pdfrwt beam="1">  1       21 0.13058471E-01 0.68823163E+01</pdfrwt>
<pdfrwt beam="2">  1       21 0.29989732E-03 0.68823163E+01</pdfrwt>
<totfact> 0.42397217E+08</totfact>
</mgrwt>
</event>
<event>
 4    1  0.3964155E+006  0.4922437E+01  0.7546771E-02  0.2581100E+00
         21   -1    0    0  501  502  0.00000000000E+00  0.00000000000E+00  0.60459741426E-01  0.60459741426E-01  0.00000000000E+00 0. -1.
         21   -1    0    0  502  503 -0.00000000000E+00 -0.00000000000E+00 -0.40420577953E+03  0.40420577953E+03  0.00000000000E+00 0. -1.
          5    1    1    2  501    0  0.14487191224E+01 -0.20396428207E+00 -0.18343404160E+03  0.18350007631E+03  0.47000000000E+01 0. -1.
         -5    1    1    2    0  503 -0.14487191224E+01  0.20396428207E+00 -0.22071127819E+03  0.22076616296E+03  0.47000000000E+01 0. -1.
<mgrwt>
<rscale>  2 0.49224373E+01</rscale>
<asrwt>0</asrwt>
<pdfrwt beam="1">  1       21 0.93017747E-05 0.49224373E+01</pdfrwt>
<pdfrwt beam="2">  1       21 0.62183659E-01 0.49224373E+01</pdfrwt>
<totfact> 0.24994077E+09</totfact>
</mgrwt>
</event>
<event>
 4    1  0.3964155E+006  0.5256697E+01  0.7546771E-02  0.2523536E+00
         21   -1    0    0  501  502  0.00000000000E+00  0.00000000000E+00  0.67932392283E-01  0.67932392283E-01  0.00000000000E+00 0. -1.
         21   -1    0    0  502  503 -0.00000000000E+00 -0.00000000000E+00 -0.41907887809E+03  0.41907887809E+03  0.00000000000E+00 0. -1.
          5    1    1    2  501    0 -0.70807039888E+00  0.22453276490E+01 -0.17358869828E+03  0.17366827295E+03  0.47000000000E+01 0. -1.
         -5    1    1    2    0  503  0.70807039888E+00 -0.22453276490E+01 -0.24542224742E+03  0.24547853753E+03  0.47000000000E+01 0. -1.
<mgrwt>
<rscale>  2 0.52566967E+01</rscale>
<asrwt>0</asrwt>
<pdfrwt beam="1">  1       21 0.10451286E-04 0.52566967E+01</pdfrwt>
<pdfrwt beam="2">  1       21 0.64472758E-01 0.52566967E+01</pdfrwt>
<totfact> 0.21173622E+09</totfact>
</mgrwt>
</event>
<event>
 4    1  0.3964155E+006  0.4864844E+01  0.7546771E-02  0.2591704E+00
         21   -1    0    0  501  502  0.00000000000E+00  0.00000000000E+00  0.57638639561E+02  0.57638639561E+02  0.00000000000E+00 0.  1.
         21   -1    0    0  502  503 -0.00000000000E+00 -0.00000000000E+00 -0.73098593099E+00  0.73098593099E+00  0.00000000000E+00 0.  1.
          5    1    1    2  501    0  0.10972837966E+01  0.61047215356E+00  0.47775102513E+02  0.48022152472E+02  0.47000000000E+01 0.  1.
         -5    1    1    2    0  503 -0.10972837966E+01 -0.61047215356E+00  0.91325511169E+01  0.10347473019E+02  0.47000000000E+01 0.  1.
<mgrwt>
<rscale>  2 0.48648441E+01</rscale>
<asrwt>0</asrwt>
<pdfrwt beam="1">  1       21 0.88674795E-02 0.48648441E+01</pdfrwt>
<pdfrwt beam="2">  1       21 0.11245942E-03 0.48648441E+01</pdfrwt>
<totfact> 0.21869486E+09</totfact>
</mgrwt>
</event>
<event>
 4    1  0.3964155E+006  0.5528520E+01  0.7546771E-02  0.2481149E+00
         21   -1    0    0  501  502  0.00000000000E+00  0.00000000000E+00  0.33531079501E+02  0.33531079501E+02  0.00000000000E+00 0. -1.
         21   -1    0    0  502  503 -0.00000000000E+00 -0.00000000000E+00 -0.39892162689E+01  0.39892162689E+01  0.00000000000E+00 0. -1.
          5    1    1    2  501    0 -0.13744757372E+01  0.25661943893E+01  0.31248940803E+02  0.31734221882E+02  0.47000000000E+01 0. -1.
         -5    1    1    2    0  503  0.13744757372E+01 -0.25661943893E+01 -0.17070775708E+01  0.57860738873E+01  0.47000000000E+01 0. -1.
<mgrwt>
<rscale>  2 0.55285203E+01</rscale>
<asrwt>0</asrwt>
<pdfrwt beam="1">  1       21 0.51586274E-02 0.55285203E+01</pdfrwt>
<pdfrwt beam="2">  1       21 0.61372560E-03 0.55285203E+01</pdfrwt>
<totfact> 0.54958492E+08</totfact>
</mgrwt>
</event>
<event>
 4    1  0.3964155E+006  0.5558303E+01  0.7546771E-02  0.2476720E+00
         21   -1    0    0  501  502  0.00000000000E+00  0.00000000000E+00  0.51853001486E+01  0.51853001486E+01  0.00000000000E+00 0.  1.
         21   -1    0    0  502  503 -0.00000000000E+00 -0.00000000000E+00 -0.76952292025E+02  0.76952292025E+02  0.00000000000E+00 0.  1.
          5    1    1    2  501    0  0.29105179155E+01 -0.57759415720E+00  0.35633686029E+01  0.66024484358E+01  0.47000000000E+01 0.  1.
         -5    1    1    2    0  503 -0.29105179155E+01  0.57759415720E+00 -0.75330360479E+02  0.75535143738E+02  0.47000000000E+01 0.  1.
<mgrwt>
<rscale>  2 0.55583028E+01</rscale>
<asrwt>0</asrwt>
<pdfrwt beam="1">  1       21 0.79773847E-03 0.55583028E+01</pdfrwt>
<pdfrwt beam="2">  1       21 0.11838814E-01 0.55583028E+01</pdfrwt>
<totfact> 0.10959928E+08</totfact>
</mgrwt>
</event>
<event>
 4    1  0.3964155E+006  0.4919201E+01  0.7546771E-02  0.2581690E+00
         21   -1    0    0  503  502  0.00000000000E+00  0.00000000000E+00  0.51983619983E+00  0.51983619983E+00  0.00000000000E+00 0. -1.
         21   -1    0    0  501  503 -0.00000000000E+00 -0.00000000000E+00 -0.69054322920E+02  0.69054322920E+02  0.00000000000E+00 0. -1.
          5    1    1    2  501    0  0.90823419442E+00  0.11329826669E+01 -0.54126018878E+02  0.54349098048E+02  0.47000000000E+01 0. -1.
         -5    1    1    2    0  502 -0.90823419442E+00 -0.11329826669E+01 -0.14408467843E+02  0.15225061072E+02  0.47000000000E+01 0. -1.
<mgrwt>
<rscale>  2 0.49192011E+01</rscale>
<asrwt>0</asrwt>
<pdfrwt beam="1">  1       21 0.79974872E-04 0.49192011E+01</pdfrwt>
<pdfrwt beam="2">  1       21 0.10623732E-01 0.49192011E+01</pdfrwt>
<totfact> 0.26469005E+09</totfact>
</mgrwt>
</event>
<event>
 4    1  0.3964155E+006  0.6930476E+01  0.7546771E-02  0.2308060E+00
         21   -1    0    0  503  502  0.00000000000E+00  0.00000000000E+00  0.44860489968E+01  0.44860489968E+01  0.00000000000E+00 0. -1.
         21   -1    0    0  501  503 -0.00000000000E+00 -0.00000000000E+00 -0.10721054489E+02  0.10721054489E+02  0.00000000000E+00 0. -1.
          5    1    1    2  501    0 -0.26270988225E+01 -0.43634672798E+01 -0.33941778232E+01  0.77169902177E+01  0.47000000000E+01 0. -1.
         -5    1    1    2    0  502  0.26270988225E+01  0.43634672798E+01 -0.28408276689E+01  0.74901132681E+01  0.47000000000E+01 0. -1.
<mgrwt>
<rscale>  2 0.69304758E+01</rscale>
<asrwt>0</asrwt>
<pdfrwt beam="1">  1       21 0.69016138E-03 0.69304758E+01</pdfrwt>
<pdfrwt beam="2">  1       21 0.16493930E-02 0.69304758E+01</pdfrwt>
<totfact> 0.29484857E+09</totfact>
</mgrwt>
</event>
<event>
 4    1  0.3964155E+006  0.5667705E+01  0.7546771E-02  0.2460789E+00
         21   -1    0    0  503  502  0.00000000000E+00  0.00000000000E+00  0.40106357443E+01  0.40106357443E+01  0.00000000000E+00 0.  1.
         21   -1    0    0  501  503 -0.00000000000E+00 -0.00000000000E+00 -0.99910431346E+01  0.99910431346E+01  0.00000000000E+00 0.  1.
          5    1    1    2  501    0  0.29227449752E+01 -0.12208358213E+01 -0.61080514195E+01  0.83325368547E+01  0.47000000000E+01 0.  1.
         -5    1    1    2    0  502 -0.29227449752E+01  0.12208358213E+01  0.12764402922E+00  0.56691420242E+01  0.47000000000E+01 0.  1.
<mgrwt>
<rscale>  2 0.56677049E+01</rscale>
<asrwt>0</asrwt>
<pdfrwt beam="1">  1       21 0.61702088E-03 0.56677049E+01</pdfrwt>
<pdfrwt beam="2">  1       21 0.15370836E-02 0.56677049E+01</pdfrwt>
<totfact> 0.32074502E+09</totfact>
</mgrwt>
</event>
<event>
 4    1  0.3964155E+006  0.5096459E+01  0.7546771E-02  0.2550321E+00
         21   -1    0    0  503  502  0.00000000000E+00  0.00000000000E+00  0.10334187799E+02  0.10334187799E+02  0.00000000000E+00 0. -1.
         21   -1    0    0  501  503 -0.00000000000E+00 -0.00000000000E+00 -0.21768424462E+02  0.21768424462E+02  0.00000000000E+00 0. -1.
          5    1    1    2  501    0 -0.68754144258E-01  0.19695611736E+01 -0.20813364539E+02  0.21428253354E+02  0.47000000000E+01 0. -1.
         -5    1    1    2    0  502  0.68754144258E-01 -0.19695611736E+01  0.93791278764E+01  0.10674358907E+02  0.47000000000E+01 0. -1.
<mgrwt>
<rscale>  2 0.50964594E+01</rscale>
<asrwt>0</asrwt>
<pdfrwt beam="1">  1       21 0.15898751E-02 0.50964594E+01</pdfrwt>
<pdfrwt beam="2">  1       21 0.33489883E-02 0.50964594E+01</pdfrwt>
<totfact> 0.25426426E+08</totfact>
</mgrwt>
</event>
<event>
 4    1  0.3964155E+006  0.5044256E+01  0.7546771E-02  0.2559362E+00
         21   -1    0    0  503  502  0.00000000000E+00  0.00000000000E+00  0.35882875686E+02  0.35882875686E+02  0.00000000000E+00 0. -1.
         21   -1    0    0  501  503 -0.00000000000E+00 -0.00000000000E+00 -0.23297671891E+01  0.23297671891E+01  0.00000000000E+00 0. -1.
          5    1    1    2  501    0  0.17387273666E+01  0.57562877410E+00  0.84097575682E+00  0.51138793068E+01  0.47000000000E+01 0. -1.
         -5    1    1    2    0  502 -0.17387273666E+01 -0.57562877410E+00  0.32712132740E+02  0.33098763568E+02  0.47000000000E+01 0. -1.
<mgrwt>
<rscale>  2 0.50442563E+01</rscale>
<asrwt>0</asrwt>
<pdfrwt beam="1">  1       21 0.55204420E-02 0.50442563E+01</pdfrwt>
<pdfrwt beam="2">  1       21 0.35842575E-03 0.50442563E+01</pdfrwt>
<totfact> 0.96173521E+08</totfact>
</mgrwt>
</event>
<event>
 4    1  0.3964155E+006  0.5668230E+01  0.7546771E-02  0.2460714E+00
         21   -1    0    0  503  502  0.00000000000E+00  0.00000000000E+00  0.11997323394E+01  0.11997323394E+01  0.00000000000E+00 0. -1.
         21   -1    0    0  501  503 -0.00000000000E+00 -0.00000000000E+00 -0.27985072990E+02  0.27985072990E+02  0.00000000000E+00 0. -1.
          5    1    1    2  501    0 -0.11868528602E+01 -0.29377213740E+01 -0.16420776370E+02  0.17371549245E+02  0.47000000000E+01 0. -1.
         -5    1    1    2    0  502  0.11868528602E+01  0.29377213740E+01 -0.10364564280E+02  0.11813256084E+02  0.47000000000E+01 0. -1.
<mgrwt>
<rscale>  2 0.56682296E+01</rscale>
<asrwt>0</asrwt>
<pdfrwt beam="1">  1       21 0.18457422E-03 0.56682296E+01</pdfrwt>
<pdfrwt beam="2">  1       21 0.43053956E-02 0.56682296E+01</pdfrwt>
<totfact> 0.38049556E+09</totfact>
</mgrwt>
</event>
<event>
 4    1  0.3964155E+006  0.5272421E+01  0.7546771E-02  0.2520983E+00
         21   -1    0    0  501  502  0.00000000000E+00  0.00000000000E+00  0.69746040460E+01  0.69746040460E+01  0.00000000000E+00 0. -1.
         21   -1    0    0  502  503 -0.00000000000E+00 -0.00000000000E+00 -0.49379630376E+01  0.49379630376E+01  0.00000000000E+00 0.  1.
          5    1    1    2  501    0  0.11967525088E+01  0.20678978350E+01  0.36340236437E+01  0.64034792001E+01  0.47000000000E+01 0. -1.
         -5    1    1    2    0  503 -0.11967525088E+01 -0.20678978350E+01 -0.15973826354E+01  0.55090878834E+01  0.47000000000E+01 0.  1.
<mgrwt>
<rscale>  2 0.52724205E+01</rscale>
<asrwt>0</asrwt>
<pdfrwt beam="1">  1       21 0.10730160E-02 0.52724205E+01</pdfrwt>
<pdfrwt beam="2">  1       21 0.75968662E-03 0.52724205E+01</pdfrwt>
<totfact> 0.37202440E+09</totfact>
</mgrwt>
</event>
<event>
 4    1  0.3964155E+006  0.6381046E+01  0.7546771E-02  0.2368320E+00
         21   -1    0    0  501  502  0.00000000000E+00  0.00000000000E+00  0.10206195689E+02  0.10206195689E+02  0.00000000000E+00 0.  1.
         21   -1    0    0  502  503 -0.00000000000E+00 -0.00000000000E+00 -0.71364633130E+01  0.71364633130E+01  0.00000000000E+00 0. -1.
          5    1    1    2  501    0 -0.39596454250E+01 -0.17172531485E+01  0.72930975985E+01  0.96905635981E+01  0.47000000000E+01 0.  1.
         -5    1    1    2    0  503  0.39596454250E+01  0.17172531485E+01 -0.42233652226E+01  0.76520954039E+01  0.47000000000E+01 0. -1.
<mgrwt>
<rscale>  2 0.63810462E+01</rscale>
<asrwt>0</asrwt>
<pdfrwt beam="1">  1       21 0.15701839E-02 0.63810462E+01</pdfrwt>
<pdfrwt beam="2">  1       21 0.10979174E-02 0.63810462E+01</pdfrwt>
<totfact> 0.15350460E+09</totfact>
</mgrwt>
</event>
<event>
 4    1  0.3964155E+006  0.5946691E+01  0.7546771E-02  0.2422414E+00
         21   -1    0    0  501  502  0.00000000000E+00  0.00000000000E+00  0.90793321376E-01  0.90793321376E-01  0.00000000000E+00 0.  1.
         21   -1    0    0  502  503 -0.00000000000E+00 -0.00000000000E+00 -0.43492516316E+03  0.43492516316E+03  0.00000000000E+00 0.  1.
          5    1    1    2  501    0 -0.34985089386E+01 -0.10166469128E+01 -0.14711616893E+03  0.14723630767E+03  0.47000000000E+01 0.  1.
         -5    1    1    2    0  503  0.34985089386E+01  0.10166469128E+01 -0.28771820091E+03  0.28777964881E+03  0.47000000000E+01 0.  1.
<mgrwt>
<rscale>  2 0.59466912E+01</rscale>
<asrwt>0</asrwt>
<pdfrwt beam="1">  1       21 0.13968047E-04 0.59466912E+01</pdfrwt>
<pdfrwt beam="2">  1       21 0.66912314E-01 0.59466912E+01</pdfrwt>
<totfact> 0.14784026E+09</totfact>
</mgrwt>
</event>
<event>
 4    1  0.3964155E+006  0.5827492E+01  0.7546771E-02  0.2438431E+00
         21   -1    0    0  503  502  0.00000000000E+00  0.00000000000E+00  0.41309969096E+00  0.41309969096E+00  0.00000000000E+00 0.  1.
         21   -1    0    0  501  503 -0.00000000000E+00 -0.00000000000E+00 -0.31031668652E+03  0.31031668652E+03  0.00000000000E+00 0. -1.
          5    1    1    2  501    0  0.18267534366E+01 -0.29210674241E+01 -0.28815731990E+03  0.28821623944E+03  0.47000000000E+01 0. -1.
         -5    1    1    2    0  502 -0.18267534366E+01  0.29210674241E+01 -0.21746266929E+02  0.22513546775E+02  0.47000000000E+01 0.  1.
<mgrwt>
<rscale>  2 0.58274920E+01</rscale>
<asrwt>0</asrwt>
<pdfrwt beam="1">  1       21 0.63553831E-04 0.58274920E+01</pdfrwt>
<pdfrwt beam="2">  1       21 0.47741004E-01 0.58274920E+01</pdfrwt>
<totfact> 0.35865757E+08</totfact>
</mgrwt>
</event>
<event>
 4    1  0.3964155E+006  0.8414559E+01  0.7546771E-02  0.2178315E+00
         21   -1    0    0  501  502  0.00000000000E+00  0.00000000000E+00  0.13033278917E+02  0.13033278917E+02  0.00000000000E+00 0.  1.
         21   -1    0    0  502  503 -0.00000000000E+00 -0.00000000000E+00 -0.55682272913E+01  0.55682272913E+01  0.00000000000E+00 0.  1.
          5    1    1    2  501    0  0.18748418187E+01 -0.67230777345E+01  0.22810601497E+01  0.87182590852E+01  0.47000000000E+01 0.  1.
         -5    1    1    2    0  503 -0.18748418187E+01  0.67230777345E+01  0.51839914756E+01  0.98832471227E+01  0.47000000000E+01 0.  1.
<mgrwt>
<rscale>  2 0.84145592E+01</rscale>
<asrwt>0</asrwt>
<pdfrwt beam="1">  1       21 0.20051198E-02 0.84145592E+01</pdfrwt>
<pdfrwt beam="2">  1       21 0.85665036E-03 0.84145592E+01</pdfrwt>
<totfact> 0.18856481E+09</totfact>
</mgrwt>
</event>
<event>
 4    1  0.3964155E+006  0.1344093E+02  0.7546771E-02  0.1919741E+00
         21   -1    0    0  501  502  0.00000000000E+00  0.00000000000E+00  0.79883066893E+03  0.79883066893E+03  0.00000000000E+00 0. -1.
         21   -1    0    0  502  503 -0.00000000000E+00 -0.00000000000E+00 -0.31741156543E+00  0.31741156543E+00  0.00000000000E+00 0.  1.
          5    1    1    2  501    0  0.39679797585E+00 -0.12586148699E+02  0.61350662219E+03  0.61365383895E+03  0.47000000000E+01 0. -1.
         -5    1    1    2    0  503 -0.39679797585E+00  0.12586148699E+02  0.18500663518E+03  0.18549424155E+03  0.47000000000E+01 0.  1.
<mgrwt>
<rscale>  2 0.13440930E+02</rscale>
<asrwt>0</asrwt>
<pdfrwt beam="1">  1       21 0.12289542E+00 0.13440930E+02</pdfrwt>
<pdfrwt beam="2">  1       21 0.48833188E-04 0.13440930E+02</pdfrwt>
<totfact> 0.11882201E+08</totfact>
</mgrwt>
</event>
<event>
 4    1  0.3964155E+006  0.7147577E+01  0.7546771E-02  0.2286368E+00
         21   -1    0    0  503  502  0.00000000000E+00  0.00000000000E+00  0.75350941324E+01  0.75350941324E+01  0.00000000000E+00 0. -1.
         21   -1    0    0  501  503 -0.00000000000E+00 -0.00000000000E+00 -0.12437793686E+02  0.12437793686E+02  0.00000000000E+00 0.  1.
          5    1    1    2  501    0  0.23026012793E+01 -0.48678425210E+01 -0.91867456553E+01  0.11639766286E+02  0.47000000000E+01 0.  1.
         -5    1    1    2    0  502 -0.23026012793E+01  0.48678425210E+01  0.42840461022E+01  0.83331215319E+01  0.47000000000E+01 0. -1.
<mgrwt>
<rscale>  2 0.71475775E+01</rscale>
<asrwt>0</asrwt>
<pdfrwt beam="1">  1       21 0.11592453E-02 0.71475775E+01</pdfrwt>
<pdfrwt beam="2">  1       21 0.19135067E-02 0.71475775E+01</pdfrwt>
<totfact> 0.11656692E+09</totfact>
</mgrwt>
</event>
<event>
 4    1  0.3964155E+006  0.4834542E+01  0.7546771E-02  0.2597370E+00
         21   -1    0    0  501  502  0.00000000000E+00  0.00000000000E+00  0.29061274038E+03  0.29061274038E+03  0.00000000000E+00 0. -1.
         21   -1    0    0  502  503 -0.00000000000E+00 -0.00000000000E+00 -0.14464320744E+00  0.14464320744E+00  0.00000000000E+00 0. -1.
          5    1    1    2  501    0  0.11223837107E+01 -0.15183371561E+00  0.48366637282E+02  0.48607657839E+02  0.47000000000E+01 0. -1.
         -5    1    1    2    0  503 -0.11223837107E+01  0.15183371561E+00  0.24210145989E+03  0.24214972575E+03  0.47000000000E+01 0. -1.
<mgrwt>
<rscale>  2 0.48345422E+01</rscale>
<asrwt>0</asrwt>
<pdfrwt beam="1">  1       21 0.44709185E-01 0.48345422E+01</pdfrwt>
<pdfrwt beam="2">  1       21 0.22253034E-04 0.48345422E+01</pdfrwt>
<totfact> 0.13992921E+09</totfact>
</mgrwt>
</event>
<event>
 4    1  0.3964155E+006  0.5552574E+01  0.7546771E-02  0.2477569E+00
         21   -1    0    0  503  502  0.00000000000E+00  0.00000000000E+00  0.13003540411E+02  0.13003540411E+02  0.00000000000E+00 0.  1.
         21   -1    0    0  501  503 -0.00000000000E+00 -0.00000000000E+00 -0.10771909333E+02  0.10771909333E+02  0.00000000000E+00 0.  1.
          5    1    1    2  501    0 -0.29559397503E+01  0.59140389428E-01 -0.93824167849E+01  0.10902331041E+02  0.47000000000E+01 0.  1.
         -5    1    1    2    0  502  0.29559397503E+01 -0.59140389428E-01  0.11614047863E+02  0.12873118703E+02  0.47000000000E+01 0.  1.
<mgrwt>
<rscale>  2 0.55525739E+01</rscale>
<asrwt>0</asrwt>
<pdfrwt beam="1">  1       21 0.20005447E-02 0.55525739E+01</pdfrwt>
<pdfrwt beam="2">  1       21 0.16572168E-02 0.55525739E+01</pdfrwt>
<totfact> 0.53979926E+08</totfact>
</mgrwt>
</event>
<event>
 4    1  0.3964155E+006  0.5188762E+01  0.7546771E-02  0.2534719E+00
         21   -1    0    0  501  502  0.00000000000E+00  0.00000000000E+00  0.57046428537E+01  0.57046428537E+01  0.00000000000E+00 0. -1.
         21   -1    0    0  502  503 -0.00000000000E+00 -0.00000000000E+00 -0.62978415365E+01  0.62978415365E+01  0.00000000000E+00 0. -1.
          5    1    1    2  501    0 -0.14226783595E+00  0.21938571105E+01  0.27076866144E+01  0.58527613961E+01  0.47000000000E+01 0.  1.
         -5    1    1    2    0  503  0.14226783595E+00 -0.21938571105E+01 -0.33008852972E+01  0.61497229941E+01  0.47000000000E+01 0.  1.
<mgrwt>
<rscale>  2 0.51887618E+01</rscale>
<asrwt>0</asrwt>
<pdfrwt beam="1">  1       21 0.87763736E-03 0.51887618E+01</pdfrwt>
<pdfrwt beam="2">  1       21 0.96889870E-03 0.51887618E+01</pdfrwt>
<totfact> 0.34535372E+09</totfact>
</mgrwt>
</event>
<event>
 4    1  0.3964155E+006  0.9635548E+01  0.7546771E-02  0.2096342E+00
         21   -1    0    0  501  502  0.00000000000E+00  0.00000000000E+00  0.57953516393E+01  0.57953516393E+01  0.00000000000E+00 0. -1.
         21   -1    0    0  502  503 -0.00000000000E+00 -0.00000000000E+00 -0.23677835482E+02  0.23677835482E+02  0.00000000000E+00 0. -1.
          5    1    1    2  501    0  0.52884480713E+01 -0.65411090160E+01 -0.56077764370E+00  0.96518527614E+01  0.47000000000E+01 0. -1.
         -5    1    1    2    0  503 -0.52884480713E+01  0.65411090160E+01 -0.17321706199E+02  0.19821334360E+02  0.47000000000E+01 0. -1.
<mgrwt>
<rscale>  2 0.96355483E+01</rscale>
<asrwt>0</asrwt>
<pdfrwt beam="1">  1       21 0.89159258E-03 0.96355483E+01</pdfrwt>
<pdfrwt beam="2">  1       21 0.36427438E-02 0.96355483E+01</pdfrwt>
<totfact> 0.79930453E+08</totfact>
</mgrwt>
</event>
<event>
 4    1  0.3964155E+006  0.4992162E+01  0.7546771E-02  0.2568546E+00
         21   -1    0    0  503  502  0.00000000000E+00  0.00000000000E+00  0.13731054633E-01  0.13731054633E-01  0.00000000000E+00 0. -1.
         21   -1    0    0  501  503 -0.00000000000E+00 -0.00000000000E+00 -0.19665267646E+04  0.19665267646E+04  0.00000000000E+00 0.  1.
          5    1    1    2  501    0  0.72223400722E+00  0.15198875035E+01 -0.12562088829E+04  0.12562188023E+04  0.47000000000E+01 0.  1.
         -5    1    1    2    0  502 -0.72223400722E+00 -0.15198875035E+01 -0.71030415060E+03  0.71032169334E+03  0.47000000000E+01 0.  1.
<mgrwt>
<rscale>  2 0.49921619E+01</rscale>
<asrwt>0</asrwt>
<pdfrwt beam="1">  1       21 0.21140773E-05 0.49921619E+01</pdfrwt>
<pdfrwt beam="2">  1       21 0.30231255E+00 0.49921619E+01</pdfrwt>
<totfact> 0.69156288E+08</totfact>
</mgrwt>
</event>
<event>
 4    1  0.3964155E+006  0.4869930E+01  0.7546771E-02  0.2590758E+00
         21   -1    0    0  503  502  0.00000000000E+00  0.00000000000E+00  0.82516375489E+01  0.82516375489E+01  0.00000000000E+00 0. -1.
         21   -1    0    0  501  503 -0.00000000000E+00 -0.00000000000E+00 -0.15301925523E+02  0.15301925523E+02  0.00000000000E+00 0. -1.
          5    1    1    2  501    0  0.20609949012E+00 -0.12584679889E+01 -0.14138451657E+02  0.14953662893E+02  0.47000000000E+01 0. -1.
         -5    1    1    2    0  502 -0.20609949012E+00  0.12584679889E+01  0.70881636830E+01  0.85999001783E+01  0.47000000000E+01 0. -1.
<mgrwt>
<rscale>  2 0.48699300E+01</rscale>
<asrwt>0</asrwt>
<pdfrwt beam="1">  1       21 0.12694827E-02 0.48699300E+01</pdfrwt>
<pdfrwt beam="2">  1       21 0.23541424E-02 0.48699300E+01</pdfrwt>
<totfact> 0.55506262E+08</totfact>
</mgrwt>
</event>
<event>
 4    1  0.3964155E+006  0.8295566E+01  0.7546771E-02  0.2187321E+00
         21   -1    0    0  503  502  0.00000000000E+00  0.00000000000E+00  0.23685444483E+01  0.23685444483E+01  0.00000000000E+00 0. -1.
         21   -1    0    0  501  503 -0.00000000000E+00 -0.00000000000E+00 -0.38634929542E+02  0.38634929542E+02  0.00000000000E+00 0.  1.
          5    1    1    2  501    0 -0.37212491338E+01 -0.57339962017E+01 -0.28342529937E+02  0.29531600207E+02  0.47000000000E+01 0.  1.
         -5    1    1    2    0  502  0.37212491338E+01  0.57339962017E+01 -0.79238551568E+01  0.11471873783E+02  0.47000000000E+01 0. -1.
<mgrwt>
<rscale>  2 0.82955655E+01</rscale>
<asrwt>0</asrwt>
<pdfrwt beam="1">  1       21 0.36439146E-03 0.82955655E+01</pdfrwt>
<pdfrwt beam="2">  1       21 0.59438351E-02 0.82955655E+01</pdfrwt>
<totfact> 0.12385714E+09</totfact>
</mgrwt>
</event>
<event>
 4    1  0.3964155E+006  0.1210755E+02  0.7546771E-02  0.1971764E+00
         21   -1    0    0  503  502  0.00000000000E+00  0.00000000000E+00  0.18407747905E+03  0.18407747905E+03  0.00000000000E+00 0. -1.
         21   -1    0    0  501  503 -0.00000000000E+00 -0.00000000000E+00 -0.84647927335E+00  0.84647927335E+00  0.00000000000E+00 0.  1.
          5    1    1    2  501    0  0.31263226431E+01  0.10711155121E+02  0.69117771676E+02  0.70170215182E+02  0.47000000000E+01 0. -1.
         -5    1    1    2    0  502 -0.31263226431E+01 -0.10711155121E+02  0.11411322810E+03  0.11475374314E+03  0.47000000000E+01 0.  1.
<mgrwt>
<rscale>  2 0.12107549E+02</rscale>
<asrwt>0</asrwt>
<pdfrwt beam="1">  1       21 0.28319580E-01 0.12107549E+02</pdfrwt>
<pdfrwt beam="2">  1       21 0.13022773E-03 0.12107549E+02</pdfrwt>
<totfact> 0.51208309E+08</totfact>
</mgrwt>
</event>
<event>
 4    1  0.3964155E+006  0.5643811E+01  0.7546771E-02  0.2464224E+00
         21   -1    0    0  503  502  0.00000000000E+00  0.00000000000E+00  0.89648056356E+01  0.89648056356E+01  0.00000000000E+00 0.  1.
         21   -1    0    0  501  503 -0.00000000000E+00 -0.00000000000E+00 -0.36169848312E+01  0.36169848312E+01  0.00000000000E+00 0.  1.
          5    1    1    2  501    0  0.31192501533E+01 -0.18133928918E+00  0.18376702293E+01  0.59354559495E+01  0.47000000000E+01 0.  1.
         -5    1    1    2    0  502 -0.31192501533E+01  0.18133928918E+00  0.35101505751E+01  0.66463345174E+01  0.47000000000E+01 0.  1.
<mgrwt>
<rscale>  2 0.56438113E+01</rscale>
<asrwt>0</asrwt>
<pdfrwt beam="1">  1       21 0.13792009E-02 0.56438113E+01</pdfrwt>
<pdfrwt beam="2">  1       21 0.55645921E-03 0.56438113E+01</pdfrwt>
<totfact> 0.43007872E+09</totfact>
</mgrwt>
</event>
<event>
 4    1  0.3964155E+006  0.7604431E+01  0.7546771E-02  0.2244054E+00
         21   -1    0    0  503  502  0.00000000000E+00  0.00000000000E+00  0.97220133462E+01  0.97220133462E+01  0.00000000000E+00 0.  1.
         21   -1    0    0  501  503 -0.00000000000E+00 -0.00000000000E+00 -0.70170821947E+01  0.70170821947E+01  0.00000000000E+00 0. -1.
          5    1    1    2  501    0  0.59070585522E+01 -0.91871380097E+00 -0.19142528354E+01  0.78416668959E+01  0.47000000000E+01 0. -1.
         -5    1    1    2    0  502 -0.59070585522E+01  0.91871380097E+00  0.46191839869E+01  0.88974286450E+01  0.47000000000E+01 0.  1.
<mgrwt>
<rscale>  2 0.76044313E+01</rscale>
<asrwt>0</asrwt>
<pdfrwt beam="1">  1       21 0.14956944E-02 0.76044313E+01</pdfrwt>
<pdfrwt beam="2">  1       21 0.10795511E-02 0.76044313E+01</pdfrwt>
<totfact> 0.19304754E+09</totfact>
</mgrwt>
</event>
<event>
 4    1  0.3964155E+006  0.5896611E+01  0.7546771E-02  0.2429077E+00
         21   -1    0    0  503  502  0.00000000000E+00  0.00000000000E+00  0.26737924628E+00  0.26737924628E+00  0.00000000000E+00 0.  1.
         21   -1    0    0  501  503 -0.00000000000E+00 -0.00000000000E+00 -0.37467829208E+03  0.37467829208E+03  0.00000000000E+00 0. -1.
          5    1    1    2  501    0  0.52095408985E+00 -0.35225885971E+01 -0.33869100811E+03  0.33874233423E+03  0.47000000000E+01 0. -1.
         -5    1    1    2    0  502 -0.52095408985E+00  0.35225885971E+01 -0.35719904724E+02  0.36203337098E+02  0.47000000000E+01 0.  1.
<mgrwt>
<rscale>  2 0.58966112E+01</rscale>
<asrwt>0</asrwt>
<pdfrwt beam="1">  1       21 0.41135510E-04 0.58966112E+01</pdfrwt>
<pdfrwt beam="2">  1       21 0.57642476E-01 0.58966112E+01</pdfrwt>
<totfact> 0.45956440E+08</totfact>
</mgrwt>
</event>
<event>
 4    1  0.3964155E+006  0.5055360E+01  0.7546771E-02  0.2557426E+00
         21   -1    0    0  501  502  0.00000000000E+00  0.00000000000E+00  0.36891582914E+01  0.36891582914E+01  0.00000000000E+00 0.  1.
         21   -1    0    0  502  503 -0.00000000000E+00 -0.00000000000E+00 -0.90342794179E+01  0.90342794179E+01  0.00000000000E+00 0.  1.
          5    1    1    2  501    0 -0.72424095372E+00 -0.17152671732E+01  0.39954844237E+00  0.50711246674E+01  0.47000000000E+01 0.  1.
         -5    1    1    2    0  503  0.72424095372E+00  0.17152671732E+01 -0.57446695689E+01  0.76523130418E+01  0.47000000000E+01 0.  1.
<mgrwt>
<rscale>  2 0.50553602E+01</rscale>
<asrwt>0</asrwt>
<pdfrwt beam="1">  1       21 0.56756282E-03 0.50553602E+01</pdfrwt>
<pdfrwt beam="2">  1       21 0.13898891E-02 0.50553602E+01</pdfrwt>
<totfact> 0.37100123E+09</totfact>
</mgrwt>
</event>
<event>
 4    1  0.3964155E+006  0.5449895E+01  0.7546771E-02  0.2493040E+00
         21   -1    0    0  503  502  0.00000000000E+00  0.00000000000E+00  0.19715525983E+03  0.19715525983E+03  0.00000000000E+00 0.  1.
         21   -1    0    0  501  503 -0.00000000000E+00 -0.00000000000E+00 -0.18897398990E+00  0.18897398990E+00  0.00000000000E+00 0. -1.
          5    1    1    2  501    0 -0.26538566736E+01 -0.75392203864E+00  0.54047520743E+02  0.54321596554E+02  0.47000000000E+01 0. -1.
         -5    1    1    2    0  502  0.26538566736E+01  0.75392203864E+00  0.14291876509E+03  0.14302263726E+03  0.47000000000E+01 0.  1.
<mgrwt>
<rscale>  2 0.54498948E+01</rscale>
<asrwt>0</asrwt>
<pdfrwt beam="1">  1       21 0.30331414E-01 0.54498948E+01</pdfrwt>
<pdfrwt beam="2">  1       21 0.29073079E-04 0.54498948E+01</pdfrwt>
<totfact> 0.21127135E+09</totfact>
</mgrwt>
</event>
<event>
 4    1  0.3964155E+006  0.4871150E+01  0.7546771E-02  0.2590532E+00
         21   -1    0    0  501  502  0.00000000000E+00  0.00000000000E+00  0.48737871737E+01  0.48737871737E+01  0.00000000000E+00 0.  1.
         21   -1    0    0  502  503 -0.00000000000E+00 -0.00000000000E+00 -0.35690775963E+02  0.35690775963E+02  0.00000000000E+00 0.  1.
          5    1    1    2  501    0 -0.12169575018E+01 -0.39638556179E+00  0.34397566400E+01  0.59632233580E+01  0.47000000000E+01 0.  1.
         -5    1    1    2    0  503  0.12169575018E+01  0.39638556179E+00 -0.34256745429E+02  0.34601339779E+02  0.47000000000E+01 0.  1.
<mgrwt>
<rscale>  2 0.48711505E+01</rscale>
<asrwt>0</asrwt>
<pdfrwt beam="1">  1       21 0.74981341E-03 0.48711505E+01</pdfrwt>
<pdfrwt beam="2">  1       21 0.54908886E-02 0.48711505E+01</pdfrwt>
<totfact> 0.34071420E+08</totfact>
</mgrwt>
</event>
<event>
 4    1  0.3964155E+006  0.5016062E+01  0.7546771E-02  0.2564312E+00
         21   -1    0    0  501  502  0.00000000000E+00  0.00000000000E+00  0.29947213825E+01  0.29947213825E+01  0.00000000000E+00 0.  1.
         21   -1    0    0  502  503 -0.00000000000E+00 -0.00000000000E+00 -0.13119237597E+02  0.13119237597E+02  0.00000000000E+00 0.  1.
          5    1    1    2  501    0 -0.92030646573E-01 -0.17499741721E+01 -0.23085062356E+00  0.50213714514E+01  0.47000000000E+01 0.  1.
         -5    1    1    2    0  503  0.92030646573E-01  0.17499741721E+01 -0.98936655909E+01  0.11092587528E+02  0.47000000000E+01 0.  1.
<mgrwt>
<rscale>  2 0.50160621E+01</rscale>
<asrwt>0</asrwt>
<pdfrwt beam="1">  1       21 0.46072636E-03 0.50160621E+01</pdfrwt>
<pdfrwt beam="2">  1       21 0.20183443E-02 0.50160621E+01</pdfrwt>
<totfact> 0.28944254E+09</totfact>
</mgrwt>
</event>
<event>
 4    1  0.3964155E+006  0.5256278E+01  0.7546771E-02  0.2523604E+00
         21   -1    0    0  503  502  0.00000000000E+00  0.00000000000E+00  0.41729760495E+00  0.41729760495E+00  0.00000000000E+00 0.  1.
         21   -1    0    0  501  503 -0.00000000000E+00 -0.00000000000E+00 -0.80124203422E+02  0.80124203422E+02  0.00000000000E+00 0.  1.
          5    1    1    2  501    0  0.21747625805E+01  0.89937049732E+00 -0.23070533581E+02  0.23661740834E+02  0.47000000000E+01 0.  1.
         -5    1    1    2    0  502 -0.21747625805E+01 -0.89937049732E+00 -0.56636372236E+02  0.56879760193E+02  0.47000000000E+01 0.  1.
<mgrwt>
<rscale>  2 0.52562781E+01</rscale>
<asrwt>0</asrwt>
<pdfrwt beam="1">  1       21 0.64199576E-04 0.52562781E+01</pdfrwt>
<pdfrwt beam="2">  1       21 0.12326811E-01 0.52562781E+01</pdfrwt>
<totfact> 0.30113199E+09</totfact>
</mgrwt>
</event>
<event>
 4    1  0.3964155E+006  0.5960614E+01  0.7546771E-02  0.2420578E+00
         21   -1    0    0  503  502  0.00000000000E+00  0.00000000000E+00  0.30048790014E+01  0.30048790014E+01  0.00000000000E+00 0. -1.
         21   -1    0    0  501  503 -0.00000000000E+00 -0.00000000000E+00 -0.12414741063E+02  0.12414741063E+02  0.00000000000E+00 0.  1.
          5    1    1    2  501    0 -0.25112741849E+01  0.26706582083E+01 -0.63870950263E+01  0.87363548562E+01  0.47000000000E+01 0. -1.
         -5    1    1    2    0  502  0.25112741849E+01 -0.26706582083E+01 -0.30227670356E+01  0.66832652086E+01  0.47000000000E+01 0. -1.
<mgrwt>
<rscale>  2 0.59606135E+01</rscale>
<asrwt>0</asrwt>
<pdfrwt beam="1">  1       21 0.46228908E-03 0.59606135E+01</pdfrwt>
<pdfrwt beam="2">  1       21 0.19099602E-02 0.59606135E+01</pdfrwt>
<totfact> 0.36777004E+09</totfact>
</mgrwt>
</event>
<event>
 4    1  0.3964155E+006  0.7845267E+01  0.7546771E-02  0.2223370E+00
         21   -1    0    0  501  502  0.00000000000E+00  0.00000000000E+00  0.41074890322E+00  0.41074890322E+00  0.00000000000E+00 0. -1.
         21   -1    0    0  502  503 -0.00000000000E+00 -0.00000000000E+00 -0.21817451459E+03  0.21817451459E+03  0.00000000000E+00 0.  1.
          5    1    1    2  501    0 -0.28800925703E+01  0.55824076779E+01 -0.47717780429E+02  0.48358399247E+02  0.47000000000E+01 0.  1.
         -5    1    1    2    0  503  0.28800925703E+01 -0.55824076779E+01 -0.17004598526E+03  0.17022686425E+03  0.47000000000E+01 0.  1.
<mgrwt>
<rscale>  2 0.78452666E+01</rscale>
<asrwt>0</asrwt>
<pdfrwt beam="1">  1       21 0.63192055E-04 0.78452666E+01</pdfrwt>
<pdfrwt beam="2">  1       21 0.33565355E-01 0.78452666E+01</pdfrwt>
<totfact> 0.81703023E+08</totfact>
</mgrwt>
</event>
<event>
 4    1  0.3964155E+006  0.1176074E+02  0.7546771E-02  0.1986759E+00
         21   -1    0    0  503  502  0.00000000000E+00  0.00000000000E+00  0.38647848569E+02  0.38647848569E+02  0.00000000000E+00 0. -1.
         21   -1    0    0  501  503 -0.00000000000E+00 -0.00000000000E+00 -0.48998271678E+01  0.48998271678E+01  0.00000000000E+00 0.  1.
          5    1    1    2  501    0  0.71128113410E+01 -0.81014214882E+01  0.55684750618E+01  0.13012418292E+02  0.47000000000E+01 0.  1.
         -5    1    1    2    0  502 -0.71128113410E+01  0.81014214882E+01  0.28179546339E+02  0.30535257444E+02  0.47000000000E+01 0. -1.
<mgrwt>
<rscale>  2 0.11760745E+02</rscale>
<asrwt>0</asrwt>
<pdfrwt beam="1">  1       21 0.59458227E-02 0.11760745E+02</pdfrwt>
<pdfrwt beam="2">  1       21 0.75381959E-03 0.11760745E+02</pdfrwt>
<totfact> 0.53588165E+08</totfact>
</mgrwt>
</event>
<event>
 4    1  0.3964155E+006  0.6076214E+01  0.7546771E-02  0.2405609E+00
         21   -1    0    0  503  502  0.00000000000E+00  0.00000000000E+00  0.66243662929E+01  0.66243662929E+01  0.00000000000E+00 0.  1.
         21   -1    0    0  501  503 -0.00000000000E+00 -0.00000000000E+00 -0.55734270175E+01  0.55734270175E+01  0.00000000000E+00 0. -1.
          5    1    1    2  501    0  0.24439038288E+01  0.29761914910E+01  0.53184593821E+00  0.60994460255E+01  0.47000000000E+01 0. -1.
         -5    1    1    2    0  502 -0.24439038288E+01 -0.29761914910E+01  0.51909333715E+00  0.60983472850E+01  0.47000000000E+01 0.  1.
<mgrwt>
<rscale>  2 0.60762144E+01</rscale>
<asrwt>0</asrwt>
<pdfrwt beam="1">  1       21 0.10191333E-02 0.60762144E+01</pdfrwt>
<pdfrwt beam="2">  1       21 0.85745032E-03 0.60762144E+01</pdfrwt>
<totfact> 0.38599304E+09</totfact>
</mgrwt>
</event>
<event>
 4    1  0.3964155E+006  0.8345705E+01  0.7546771E-02  0.2183501E+00
         21   -1    0    0  503  502  0.00000000000E+00  0.00000000000E+00  0.32106946168E+01  0.32106946168E+01  0.00000000000E+00 0.  1.
         21   -1    0    0  501  503 -0.00000000000E+00 -0.00000000000E+00 -0.22970006899E+02  0.22970006899E+02  0.00000000000E+00 0.  1.
          5    1    1    2  501    0 -0.46376937655E+01  0.51041743438E+01 -0.67936006353E+01  0.10761217812E+02  0.47000000000E+01 0.  1.
         -5    1    1    2    0  502  0.46376937655E+01 -0.51041743438E+01 -0.12965711647E+02  0.15419483704E+02  0.47000000000E+01 0.  1.
<mgrwt>
<rscale>  2 0.83457054E+01</rscale>
<asrwt>0</asrwt>
<pdfrwt beam="1">  1       21 0.49395304E-03 0.83457054E+01</pdfrwt>
<pdfrwt beam="2">  1       21 0.35338471E-02 0.83457054E+01</pdfrwt>
<totfact> 0.17755845E+09</totfact>
</mgrwt>
</event>
<event>
 4    1  0.3964155E+006  0.6750505E+01  0.7546771E-02  0.2326906E+00
         21   -1    0    0  503  502  0.00000000000E+00  0.00000000000E+00  0.19642581400E+02  0.19642581400E+02  0.00000000000E+00 0. -1.
         21   -1    0    0  501  503 -0.00000000000E+00 -0.00000000000E+00 -0.33879028739E+01  0.33879028739E+01  0.00000000000E+00 0.  1.
          5    1    1    2  501    0 -0.39559186969E+01 -0.27982185604E+01  0.14592639285E+02  0.16078384283E+02  0.47000000000E+01 0. -1.
         -5    1    1    2    0  502  0.39559186969E+01  0.27982185604E+01  0.16620392415E+01  0.69520999912E+01  0.47000000000E+01 0.  1.
<mgrwt>
<rscale>  2 0.67505052E+01</rscale>
<asrwt>0</asrwt>
<pdfrwt beam="1">  1       21 0.30219355E-02 0.67505052E+01</pdfrwt>
<pdfrwt beam="2">  1       21 0.52121584E-03 0.67505052E+01</pdfrwt>
<totfact> 0.17775928E+09</totfact>
</mgrwt>
</event>
<event>
 4    1  0.3964155E+006  0.5314778E+01  0.7546771E-02  0.2514169E+00
         21   -1    0    0  501  502  0.00000000000E+00  0.00000000000E+00  0.60507501034E-01  0.60507501034E-01  0.00000000000E+00 0. -1.
         21   -1    0    0  502  503 -0.00000000000E+00 -0.00000000000E+00 -0.62001739548E+03  0.62001739548E+03  0.00000000000E+00 0.  1.
          5    1    1    2  501    0 -0.19445990367E+01  0.15412336599E+01 -0.15587145800E+03  0.15596204117E+03  0.47000000000E+01 0. -1.
         -5    1    1    2    0  503  0.19445990367E+01 -0.15412336599E+01 -0.46408542998E+03  0.46411586181E+03  0.47000000000E+01 0.  1.
<mgrwt>
<rscale>  2 0.53147781E+01</rscale>
<asrwt>0</asrwt>
<pdfrwt beam="1">  1       21 0.93088301E-05 0.53147781E+01</pdfrwt>
<pdfrwt beam="2">  1       21 0.95387458E-01 0.53147781E+01</pdfrwt>
<totfact> 0.11739436E+09</totfact>
</mgrwt>
</event>
<event>
 4    1  0.3964155E+006  0.1025867E+02  0.7546771E-02  0.2060558E+00
         21   -1    0    0  501  502  0.00000000000E+00  0.00000000000E+00  0.38996044900E+02  0.38996044900E+02  0.00000000000E+00 0. -1.
         21   -1    0    0  502  503 -0.00000000000E+00 -0.00000000000E+00 -0.15453939327E+02  0.15453939327E+02  0.00000000000E+00 0. -1.
          5    1    1    2  501    0 -0.25984713617E+01  0.87406154314E+01  0.36504900797E+02  0.37918968785E+02  0.47000000000E+01 0. -1.
         -5    1    1    2    0  503  0.25984713617E+01 -0.87406154314E+01 -0.12962795223E+02  0.16531015442E+02  0.47000000000E+01 0. -1.
<mgrwt>
<rscale>  2 0.10258675E+02</rscale>
<asrwt>0</asrwt>
<pdfrwt beam="1">  1       21 0.59993915E-02 0.10258675E+02</pdfrwt>
<pdfrwt beam="2">  1       21 0.23775291E-02 0.10258675E+02</pdfrwt>
<totfact> 0.91518428E+07</totfact>
</mgrwt>
</event>
<event>
 4    1  0.3964155E+006  0.6317179E+01  0.7546771E-02  0.2375884E+00
         21   -1    0    0  503  502  0.00000000000E+00  0.00000000000E+00  0.21348128041E+03  0.21348128041E+03  0.00000000000E+00 0.  1.
         21   -1    0    0  501  503 -0.00000000000E+00 -0.00000000000E+00 -0.80637984187E+00  0.80637984187E+00  0.00000000000E+00 0.  1.
          5    1    1    2  501    0 -0.42209875666E+01 -0.29875044740E-02  0.12430166840E+02  0.13943306373E+02  0.47000000000E+01 0.  1.
         -5    1    1    2    0  502  0.42209875666E+01  0.29875044740E-02  0.20024473373E+03  0.20034435388E+03  0.47000000000E+01 0.  1.
<mgrwt>
<rscale>  2 0.63171786E+01</rscale>
<asrwt>0</asrwt>
<pdfrwt beam="1">  1       21 0.32843229E-01 0.63171786E+01</pdfrwt>
<pdfrwt beam="2">  1       21 0.12405861E-03 0.63171786E+01</pdfrwt>
<totfact> 0.29631214E+08</totfact>
</mgrwt>
</event>
<event>
 4    1  0.3964155E+006  0.5912512E+01  0.7546771E-02  0.2426951E+00
         21   -1    0    0  501  502  0.00000000000E+00  0.00000000000E+00  0.16217352070E+03  0.16217352070E+03  0.00000000000E+00 0. -1.
         21   -1    0    0  502  503 -0.00000000000E+00 -0.00000000000E+00 -0.38680545234E+00  0.38680545234E+00  0.00000000000E+00 0. -1.
          5    1    1    2  501    0  0.30226472354E+01  0.19316847727E+01  0.13497505479E+03  0.13510449000E+03  0.47000000000E+01 0. -1.
         -5    1    1    2    0  503 -0.30226472354E+01 -0.19316847727E+01  0.26811660455E+02  0.27455836151E+02  0.47000000000E+01 0. -1.
<mgrwt>
<rscale>  2 0.59125124E+01</rscale>
<asrwt>0</asrwt>
<pdfrwt beam="1">  1       21 0.24949718E-01 0.59125124E+01</pdfrwt>
<pdfrwt beam="2">  1       21 0.59508661E-04 0.59125124E+01</pdfrwt>
<totfact> 0.12018653E+09</totfact>
</mgrwt>
</event>
<event>
 4    1  0.3964155E+006  0.4875169E+01  0.7546771E-02  0.2589787E+00
         21   -1    0    0  503  502  0.00000000000E+00  0.00000000000E+00  0.23480323248E+03  0.23480323248E+03  0.00000000000E+00 0.  1.
         21   -1    0    0  501  503 -0.00000000000E+00 -0.00000000000E+00 -0.64874933531E+00  0.64874933531E+00  0.00000000000E+00 0.  1.
          5    1    1    2  501    0 -0.12892524882E+01 -0.12289792488E+00  0.89246935185E+01  0.10169436085E+02  0.47000000000E+01 0.  1.
         -5    1    1    2    0  502  0.12892524882E+01  0.12289792488E+00  0.22522978963E+03  0.22528254573E+03  0.47000000000E+01 0.  1.
<mgrwt>
<rscale>  2 0.48751693E+01</rscale>
<asrwt>0</asrwt>
<pdfrwt beam="1">  1       21 0.36123506E-01 0.48751693E+01</pdfrwt>
<pdfrwt beam="2">  1       21 0.99807777E-04 0.48751693E+01</pdfrwt>
<totfact> 0.27900141E+08</totfact>
</mgrwt>
</event>
<event>
 4    1  0.3964155E+006  0.5171648E+01  0.7546771E-02  0.2537576E+00
         21   -1    0    0  501  502  0.00000000000E+00  0.00000000000E+00  0.16553928619E+01  0.16553928619E+01  0.00000000000E+00 0. -1.
         21   -1    0    0  502  503 -0.00000000000E+00 -0.00000000000E+00 -0.27572996410E+02  0.27572996410E+02  0.00000000000E+00 0. -1.
          5    1    1    2  501    0  0.51023030899E+00 -0.20965703243E+01 -0.35552357369E+01  0.62757982152E+01  0.47000000000E+01 0. -1.
         -5    1    1    2    0  503 -0.51023030899E+00  0.20965703243E+01 -0.22362367811E+02  0.22952591057E+02  0.47000000000E+01 0. -1.
<mgrwt>
<rscale>  2 0.51716479E+01</rscale>
<asrwt>0</asrwt>
<pdfrwt beam="1">  1       21 0.25467585E-03 0.51716479E+01</pdfrwt>
<pdfrwt beam="2">  1       21 0.42419991E-02 0.51716479E+01</pdfrwt>
<totfact> 0.23044073E+09</totfact>
</mgrwt>
</event>
<event>
 4    1  0.3964155E+006  0.9524589E+01  0.7546771E-02  0.2103098E+00
         21   -1    0    0  501  502  0.00000000000E+00  0.00000000000E+00  0.37377951908E+02  0.37377951908E+02  0.00000000000E+00 0.  1.
         21   -1    0    0  502  503 -0.00000000000E+00 -0.00000000000E+00 -0.25264927516E+01  0.25264927516E+01  0.00000000000E+00 0. -1.
          5    1    1    2  501    0 -0.81610829437E+01 -0.14228598047E+01  0.13467149314E+02  0.16494905744E+02  0.47000000000E+01 0.  1.
         -5    1    1    2    0  503  0.81610829437E+01  0.14228598047E+01  0.21384309842E+02  0.23409538916E+02  0.47000000000E+01 0. -1.
<mgrwt>
<rscale>  2 0.95245895E+01</rscale>
<asrwt>0</asrwt>
<pdfrwt beam="1">  1       21 0.57504537E-02 0.95245895E+01</pdfrwt>
<pdfrwt beam="2">  1       21 0.38869122E-03 0.95245895E+01</pdfrwt>
<totfact> 0.12986702E+09</totfact>
</mgrwt>
</event>
<event>
 4    1  0.3964155E+006  0.5113591E+01  0.7546771E-02  0.2547389E+00
         21   -1    0    0  503  502  0.00000000000E+00  0.00000000000E+00  0.41443052133E+02  0.41443052133E+02  0.00000000000E+00 0.  1.
         21   -1    0    0  501  503 -0.00000000000E+00 -0.00000000000E+00 -0.10354047337E+01  0.10354047337E+01  0.00000000000E+00 0.  1.
          5    1    1    2  501    0  0.10205091728E+01  0.17370577567E+01  0.69294345582E+01  0.86119609799E+01  0.47000000000E+01 0.  1.
         -5    1    1    2    0  502 -0.10205091728E+01 -0.17370577567E+01  0.33478212841E+02  0.33866495887E+02  0.47000000000E+01 0.  1.
<mgrwt>
<rscale>  2 0.51135906E+01</rscale>
<asrwt>0</asrwt>
<pdfrwt beam="1">  1       21 0.63758529E-02 0.51135906E+01</pdfrwt>
<pdfrwt beam="2">  1       21 0.15929307E-03 0.51135906E+01</pdfrwt>
<totfact> 0.23591410E+09</totfact>
</mgrwt>
</event>
<event>
 4    1  0.3964155E+006  0.5401139E+01  0.7546771E-02  0.2500560E+00
         21   -1    0    0  501  502  0.00000000000E+00  0.00000000000E+00  0.15009109438E+00  0.15009109438E+00  0.00000000000E+00 0.  1.
         21   -1    0    0  502  503 -0.00000000000E+00 -0.00000000000E+00 -0.45666815269E+03  0.45666815269E+03  0.00000000000E+00 0.  1.
          5    1    1    2  501    0  0.10462741313E+01 -0.24469603242E+01 -0.55151616079E+02  0.55415458678E+02  0.47000000000E+01 0.  1.
         -5    1    1    2    0  503 -0.10462741313E+01  0.24469603242E+01 -0.40136644551E+03  0.40140278510E+03  0.47000000000E+01 0.  1.
<mgrwt>
<rscale>  2 0.54011392E+01</rscale>
<asrwt>0</asrwt>
<pdfrwt beam="1">  1       21 0.23091128E-04 0.54011392E+01</pdfrwt>
<pdfrwt beam="2">  1       21 0.70256059E-01 0.54011392E+01</pdfrwt>
<totfact> 0.64351969E+08</totfact>
</mgrwt>
</event>
<event>
 4    1  0.3964155E+006  0.6835277E+01  0.7546771E-02  0.2317928E+00
         21   -1    0    0  501  502  0.00000000000E+00  0.00000000000E+00  0.24292525248E+02  0.24292525248E+02  0.00000000000E+00 0. -1.
         21   -1    0    0  502  503 -0.00000000000E+00 -0.00000000000E+00 -0.36049851216E+01  0.36049851216E+01  0.00000000000E+00 0. -1.
          5    1    1    2  501    0 -0.44521093733E+01 -0.21931097411E+01  0.19870861572E+02  0.21013618152E+02  0.47000000000E+01 0. -1.
         -5    1    1    2    0  503  0.44521093733E+01  0.21931097411E+01  0.81667855449E+00  0.68838922180E+01  0.47000000000E+01 0. -1.
<mgrwt>
<rscale>  2 0.68352767E+01</rscale>
<asrwt>0</asrwt>
<pdfrwt beam="1">  1       21 0.37373115E-02 0.68352767E+01</pdfrwt>
<pdfrwt beam="2">  1       21 0.55461311E-03 0.68352767E+01</pdfrwt>
<totfact> 0.12031274E+09</totfact>
</mgrwt>
</event>
<event>
 4    1  0.3964155E+006  0.5283973E+01  0.7546771E-02  0.2519115E+00
         21   -1    0    0  503  502  0.00000000000E+00  0.00000000000E+00  0.13610517059E+01  0.13610517059E+01  0.00000000000E+00 0. -1.
         21   -1    0    0  501  503 -0.00000000000E+00 -0.00000000000E+00 -0.33775256061E+02  0.33775256061E+02  0.00000000000E+00 0. -1.
          5    1    1    2  501    0 -0.16556801871E+01 -0.17575805582E+01 -0.27215449427E+02  0.27723655131E+02  0.47000000000E+01 0. -1.
         -5    1    1    2    0  502  0.16556801871E+01  0.17575805582E+01 -0.51987549281E+01  0.74126526360E+01  0.47000000000E+01 0. -1.
<mgrwt>
<rscale>  2 0.52839726E+01</rscale>
<asrwt>0</asrwt>
<pdfrwt beam="1">  1       21 0.20939259E-03 0.52839726E+01</pdfrwt>
<pdfrwt beam="2">  1       21 0.51961928E-02 0.52839726E+01</pdfrwt>
<totfact> 0.22791348E+09</totfact>
</mgrwt>
</event>
<event>
 4    1  0.3964155E+006  0.4938136E+01  0.7546771E-02  0.2578247E+00
         21   -1    0    0  501  502  0.00000000000E+00  0.00000000000E+00  0.36288234637E+03  0.36288234637E+03  0.00000000000E+00 0.  1.
         21   -1    0    0  502  503 -0.00000000000E+00 -0.00000000000E+00 -0.92864825908E-01  0.92864825908E-01  0.00000000000E+00 0.  1.
          5    1    1    2  501    0 -0.23016719752E-01  0.15148129832E+01  0.27680658587E+03  0.27685062970E+03  0.47000000000E+01 0.  1.
         -5    1    1    2    0  503  0.23016719752E-01 -0.15148129832E+01  0.85982895680E+02  0.86124581495E+02  0.47000000000E+01 0.  1.
<mgrwt>
<rscale>  2 0.49381361E+01</rscale>
<asrwt>0</asrwt>
<pdfrwt beam="1">  1       21 0.55826918E-01 0.49381361E+01</pdfrwt>
<pdfrwt beam="2">  1       21 0.14287187E-04 0.49381361E+01</pdfrwt>
<totfact> 0.17280298E+09</totfact>
</mgrwt>
</event>
<event>
 4    1  0.3964155E+006  0.9716293E+01  0.7546771E-02  0.2091503E+00
         21   -1    0    0  501  502  0.00000000000E+00  0.00000000000E+00  0.28261446775E+00  0.28261446775E+00  0.00000000000E+00 0.  1.
         21   -1    0    0  502  503 -0.00000000000E+00 -0.00000000000E+00 -0.45299165462E+03  0.45299165462E+03  0.00000000000E+00 0. -1.
          5    1    1    2  501    0 -0.80338419233E+01 -0.27881429272E+01 -0.11022050102E+03  0.11064793357E+03  0.47000000000E+01 0.  1.
         -5    1    1    2    0  503  0.80338419233E+01  0.27881429272E+01 -0.34248853913E+03  0.34262633552E+03  0.47000000000E+01 0. -1.
<mgrwt>
<rscale>  2 0.97162934E+01</rscale>
<asrwt>0</asrwt>
<pdfrwt beam="1">  1       21 0.43479131E-04 0.97162934E+01</pdfrwt>
<pdfrwt beam="2">  1       21 0.69691053E-01 0.97162934E+01</pdfrwt>
<totfact> 0.39765016E+08</totfact>
</mgrwt>
</event>
<event>
 4    1  0.3964155E+006  0.6816868E+01  0.7546771E-02  0.2319862E+00
         21   -1    0    0  501  502  0.00000000000E+00  0.00000000000E+00  0.69304210441E+01  0.69304210441E+01  0.00000000000E+00 0.  1.
         21   -1    0    0  502  503 -0.00000000000E+00 -0.00000000000E+00 -0.12799756908E+02  0.12799756908E+02  0.00000000000E+00 0.  1.
          5    1    1    2  501    0  0.46253567177E+01 -0.17279352082E+01 -0.97419243551E+01  0.11890112489E+02  0.47000000000E+01 0.  1.
         -5    1    1    2    0  503 -0.46253567177E+01  0.17279352082E+01  0.38725884913E+01  0.78400654635E+01  0.47000000000E+01 0.  1.
<mgrwt>
<rscale>  2 0.68168677E+01</rscale>
<asrwt>0</asrwt>
<pdfrwt beam="1">  1       21 0.10662186E-02 0.68168677E+01</pdfrwt>
<pdfrwt beam="2">  1       21 0.19691934E-02 0.68168677E+01</pdfrwt>
<totfact> 0.12165037E+09</totfact>
</mgrwt>
</event>
<event>
 4    1  0.3964155E+006  0.6471083E+01  0.7546771E-02  0.2357867E+00
         21   -1    0    0  503  502  0.00000000000E+00  0.00000000000E+00  0.14499265509E+04  0.14499265509E+04  0.00000000000E+00 0.  1.
         21   -1    0    0  501  503 -0.00000000000E+00 -0.00000000000E+00 -0.40625831857E-01  0.40625831857E-01  0.00000000000E+00 0. -1.
          5    1    1    2  501    0  0.44155658440E+01 -0.53636574103E+00  0.33513044225E+03  0.33519291197E+03  0.47000000000E+01 0. -1.
         -5    1    1    2    0  502 -0.44155658440E+01  0.53636574103E+00  0.11147554828E+04  0.11147742647E+04  0.47000000000E+01 0.  1.
<mgrwt>
<rscale>  2 0.64710826E+01</rscale>
<asrwt>0</asrwt>
<pdfrwt beam="1">  1       21 0.22302418E+00 0.64710826E+01</pdfrwt>
<pdfrwt beam="2">  1       21 0.62512893E-05 0.64710826E+01</pdfrwt>
<totfact> 0.36806605E+08</totfact>
</mgrwt>
</event>
<event>
 4    1  0.3964155E+006  0.9031483E+01  0.7546771E-02  0.2134696E+00
         21   -1    0    0  503  502  0.00000000000E+00  0.00000000000E+00  0.64766124910E+02  0.64766124910E+02  0.00000000000E+00 0.  1.
         21   -1    0    0  501  503 -0.00000000000E+00 -0.00000000000E+00 -0.18517706001E+01  0.18517706001E+01  0.00000000000E+00 0. -1.
          5    1    1    2  501    0  0.69481853101E+01  0.33467011743E+01  0.12618209246E+02  0.15517309446E+02  0.47000000000E+01 0. -1.
         -5    1    1    2    0  502 -0.69481853101E+01 -0.33467011743E+01  0.50296145063E+02  0.51100586064E+02  0.47000000000E+01 0.  1.
<mgrwt>
<rscale>  2 0.90314831E+01</rscale>
<asrwt>0</asrwt>
<pdfrwt beam="1">  1       21 0.99640175E-02 0.90314831E+01</pdfrwt>
<pdfrwt beam="2">  1       21 0.28488783E-03 0.90314831E+01</pdfrwt>
<totfact> 0.82792979E+08</totfact>
</mgrwt>
</event>
<event>
 4    1  0.3964155E+006  0.5285981E+01  0.7546771E-02  0.2518791E+00
         21   -1    0    0  501  502  0.00000000000E+00  0.00000000000E+00  0.49225663878E+01  0.49225663878E+01  0.00000000000E+00 0. -1.
         21   -1    0    0  502  503 -0.00000000000E+00 -0.00000000000E+00 -0.81688199482E+01  0.81688199482E+01  0.00000000000E+00 0. -1.
          5    1    1    2  501    0  0.14178263450E+00  0.24148486423E+01  0.19926516006E+01  0.56490934389E+01  0.47000000000E+01 0. -1.
         -5    1    1    2    0  503 -0.14178263450E+00 -0.24148486423E+01 -0.52389051610E+01  0.74422928971E+01  0.47000000000E+01 0. -1.
<mgrwt>
<rscale>  2 0.52859811E+01</rscale>
<asrwt>0</asrwt>
<pdfrwt beam="1">  1       21 0.75731792E-03 0.52859811E+01</pdfrwt>
<pdfrwt beam="2">  1       21 0.12567415E-02 0.52859811E+01</pdfrwt>
<totfact> 0.30004242E+09</totfact>
</mgrwt>
</event>
<event>
 4    1  0.3964155E+006  0.4904261E+01  0.7546771E-02  0.2584423E+00
         21   -1    0    0  503  502  0.00000000000E+00  0.00000000000E+00  0.22622262908E+03  0.22622262908E+03  0.00000000000E+00 0.  1.
         21   -1    0    0  501  503 -0.00000000000E+00 -0.00000000000E+00 -0.27004330793E+00  0.27004330793E+00  0.00000000000E+00 0.  1.
          5    1    1    2  501    0  0.12505652723E+01  0.63076687218E+00  0.24797543552E+02  0.25277854864E+02  0.47000000000E+01 0.  1.
         -5    1    1    2    0  502 -0.12505652723E+01 -0.63076687218E+00  0.20115504222E+03  0.20121481752E+03  0.47000000000E+01 0.  1.
<mgrwt>
<rscale>  2 0.49042614E+01</rscale>
<asrwt>0</asrwt>
<pdfrwt beam="1">  1       21 0.34803330E-01 0.49042614E+01</pdfrwt>
<pdfrwt beam="2">  1       21 0.41545305E-04 0.49042614E+01</pdfrwt>
<totfact> 0.95291660E+08</totfact>
</mgrwt>
</event>
<event>
 4    1  0.3964155E+006  0.4873543E+01  0.7546771E-02  0.2590088E+00
         21   -1    0    0  501  502  0.00000000000E+00  0.00000000000E+00  0.12550571655E+04  0.12550571655E+04  0.00000000000E+00 0. -1.
         21   -1    0    0  502  503 -0.00000000000E+00 -0.00000000000E+00 -0.45046598181E-01  0.45046598181E-01  0.00000000000E+00 0. -1.
          5    1    1    2  501    0 -0.11282122446E+01  0.62334496601E+00  0.11053889872E+04  0.11053997306E+04  0.47000000000E+01 0. -1.
         -5    1    1    2    0  503  0.11282122446E+01 -0.62334496601E+00  0.14962313175E+03  0.14970248153E+03  0.47000000000E+01 0. -1.
<mgrwt>
<rscale>  2 0.48735430E+01</rscale>
<asrwt>0</asrwt>
<pdfrwt beam="1">  1       21 0.19305772E+00 0.48735430E+01</pdfrwt>
<pdfrwt beam="2">  1       21 0.69312510E-05 0.48735430E+01</pdfrwt>
<totfact> 0.37471243E+08</totfact>
</mgrwt>
</event>
<event>
 4    1  0.3964155E+006  0.5351807E+01  0.7546771E-02  0.2508288E+00
         21   -1    0    0  503  502  0.00000000000E+00  0.00000000000E+00  0.84798499832E+00  0.84798499832E+00  0.00000000000E+00 0. -1.
         21   -1    0    0  501  503 -0.00000000000E+00 -0.00000000000E+00 -0.34489673578E+02  0.34489673578E+02  0.00000000000E+00 0.  1.
          5    1    1    2  501    0 -0.22879451157E+01  0.11476698731E+01 -0.19361853282E+02  0.20087886935E+02  0.47000000000E+01 0.  1.
         -5    1    1    2    0  502  0.22879451157E+01 -0.11476698731E+01 -0.14279835297E+02  0.15249771641E+02  0.47000000000E+01 0.  1.
<mgrwt>
<rscale>  2 0.53518071E+01</rscale>
<asrwt>0</asrwt>
<pdfrwt beam="1">  1       21 0.13045921E-03 0.53518071E+01</pdfrwt>
<pdfrwt beam="2">  1       21 0.53061046E-02 0.53518071E+01</pdfrwt>
<totfact> 0.42290743E+09</totfact>
</mgrwt>
</event>
<event>
 4    1  0.3964155E+006  0.5623267E+01  0.7546771E-02  0.2467197E+00
         21   -1    0    0  503  502  0.00000000000E+00  0.00000000000E+00  0.18637189574E+01  0.18637189574E+01  0.00000000000E+00 0. -1.
         21   -1    0    0  501  503 -0.00000000000E+00 -0.00000000000E+00 -0.11380761090E+03  0.11380761090E+03  0.00000000000E+00 0. -1.
          5    1    1    2  501    0 -0.30512492139E+01 -0.47011904783E+00 -0.10932257506E+03  0.10946710260E+03  0.47000000000E+01 0. -1.
         -5    1    1    2    0  502  0.30512492139E+01  0.47011904783E+00 -0.26213168841E+01  0.62042272598E+01  0.47000000000E+01 0. -1.
<mgrwt>
<rscale>  2 0.56232672E+01</rscale>
<asrwt>0</asrwt>
<pdfrwt beam="1">  1       21 0.28672601E-03 0.56232672E+01</pdfrwt>
<pdfrwt beam="2">  1       21 0.17508863E-01 0.56232672E+01</pdfrwt>
<totfact> 0.24633721E+08</totfact>
</mgrwt>
</event>
<event>
 4    1  0.3964155E+006  0.4808765E+01  0.7546771E-02  0.2602239E+00
         21   -1    0    0  503  502  0.00000000000E+00  0.00000000000E+00  0.26909140609E+00  0.26909140609E+00  0.00000000000E+00 0.  1.
         21   -1    0    0  501  503 -0.00000000000E+00 -0.00000000000E+00 -0.10793950467E+03  0.10793950467E+03  0.00000000000E+00 0.  1.
          5    1    1    2  501    0 -0.87014166779E+00  0.52638291121E+00 -0.78264035868E+02  0.78411628830E+02  0.47000000000E+01 0.  1.
         -5    1    1    2    0  502  0.87014166779E+00 -0.52638291121E+00 -0.29406377399E+02  0.29796967249E+02  0.47000000000E+01 0.  1.
<mgrwt>
<rscale>  2 0.48087655E+01</rscale>
<asrwt>0</asrwt>
<pdfrwt beam="1">  1       21 0.41398689E-04 0.48087655E+01</pdfrwt>
<pdfrwt beam="2">  1       21 0.16606073E-01 0.48087655E+01</pdfrwt>
<totfact> 0.31115235E+09</totfact>
</mgrwt>
</event>
<event>
 4    1  0.3964155E+006  0.5164723E+01  0.7546771E-02  0.2538736E+00
         21   -1    0    0  503  502  0.00000000000E+00  0.00000000000E+00  0.85653612803E+01  0.85653612803E+01  0.00000000000E+00 0. -1.
         21   -1    0    0  501  503 -0.00000000000E+00 -0.00000000000E+00 -0.43952707893E+01  0.43952707893E+01  0.00000000000E+00 0. -1.
          5    1    1    2  501    0 -0.16919105933E+01 -0.13121750211E+01 -0.14135010390E+01  0.53546568451E+01  0.47000000000E+01 0. -1.
         -5    1    1    2    0  502  0.16919105933E+01  0.13121750211E+01  0.55835915300E+01  0.76059752245E+01  0.47000000000E+01 0. -1.
<mgrwt>
<rscale>  2 0.51647231E+01</rscale>
<asrwt>0</asrwt>
<pdfrwt beam="1">  1       21 0.13177479E-02 0.51647231E+01</pdfrwt>
<pdfrwt beam="2">  1       21 0.67619551E-03 0.51647231E+01</pdfrwt>
<totfact> 0.32090409E+09</totfact>
</mgrwt>
</event>
<event>
 4    1  0.3964155E+006  0.6319596E+01  0.7546771E-02  0.2375595E+00
         21   -1    0    0  503  502  0.00000000000E+00  0.00000000000E+00  0.25198301022E+00  0.25198301022E+00  0.00000000000E+00 0.  1.
         21   -1    0    0  501  503 -0.00000000000E+00 -0.00000000000E+00 -0.19332517437E+04  0.19332517437E+04  0.00000000000E+00 0. -1.
          5    1    1    2  501    0 -0.35569930584E+01  0.22792744087E+01 -0.18927762760E+04  0.18927868259E+04  0.47000000000E+01 0. -1.
         -5    1    1    2    0  502  0.35569930584E+01 -0.22792744087E+01 -0.40223484692E+02  0.40716900818E+02  0.47000000000E+01 0.  1.
<mgrwt>
<rscale>  2 0.63195958E+01</rscale>
<asrwt>0</asrwt>
<pdfrwt beam="1">  1       21 0.38769845E-04 0.63195958E+01</pdfrwt>
<pdfrwt beam="2">  1       21 0.29739858E+00 0.63195958E+01</pdfrwt>
<totfact> 0.15758027E+07</totfact>
</mgrwt>
</event>
<event>
 4    1  0.3964155E+006  0.6707707E+01  0.7546771E-02  0.2331510E+00
         21   -1    0    0  501  502  0.00000000000E+00  0.00000000000E+00  0.32448545557E+02  0.32448545557E+02  0.00000000000E+00 0.  1.
         21   -1    0    0  502  503 -0.00000000000E+00 -0.00000000000E+00 -0.15088326151E+01  0.15088326151E+01  0.00000000000E+00 0. -1.
          5    1    1    2  501    0 -0.38465197065E+01 -0.28473875237E+01  0.20302308190E+02  0.21381698890E+02  0.47000000000E+01 0.  1.
         -5    1    1    2    0  503  0.38465197065E+01  0.28473875237E+01  0.10637404752E+02  0.12575679283E+02  0.47000000000E+01 0. -1.
<mgrwt>
<rscale>  2 0.67077067E+01</rscale>
<asrwt>0</asrwt>
<pdfrwt beam="1">  1       21 0.49920834E-02 0.67077067E+01</pdfrwt>
<pdfrwt beam="2">  1       21 0.23212812E-03 0.67077067E+01</pdfrwt>
<totfact> 0.25848998E+09</totfact>
</mgrwt>
</event>
<event>
 4    1  0.3964155E+006  0.1005340E+02  0.7546771E-02  0.2071961E+00
         21   -1    0    0  501  502  0.00000000000E+00  0.00000000000E+00  0.25453745482E+02  0.25453745482E+02  0.00000000000E+00 0. -1.
         21   -1    0    0  502  503 -0.00000000000E+00 -0.00000000000E+00 -0.49359774573E+01  0.49359774573E+01  0.00000000000E+00 0.  1.
          5    1    1    2  501    0 -0.46391962206E+01 -0.75801498647E+01  0.16978150553E+02  0.19731406685E+02  0.47000000000E+01 0.  1.
         -5    1    1    2    0  503  0.46391962206E+01  0.75801498647E+01  0.35396174716E+01  0.10658316255E+02  0.47000000000E+01 0. -1.
<mgrwt>
<rscale>  2 0.10053398E+02</rscale>
<asrwt>0</asrwt>
<pdfrwt beam="1">  1       21 0.39159608E-02 0.10053398E+02</pdfrwt>
<pdfrwt beam="2">  1       21 0.75938116E-03 0.10053398E+02</pdfrwt>
<totfact> 0.92544839E+08</totfact>
</mgrwt>
</event>
<event>
 4    1  0.3964155E+006  0.7039268E+01  0.7546771E-02  0.2297053E+00
         21   -1    0    0  503  502  0.00000000000E+00  0.00000000000E+00  0.85937340398E+02  0.85937340398E+02  0.00000000000E+00 0. -1.
         21   -1    0    0  501  503 -0.00000000000E+00 -0.00000000000E+00 -0.40929758675E+01  0.40929758675E+01  0.00000000000E+00 0.  1.
          5    1    1    2  501    0 -0.50368411112E+01 -0.14462108027E+01 -0.80191607216E+00  0.70847980530E+01  0.47000000000E+01 0.  1.
         -5    1    1    2    0  502  0.50368411112E+01  0.14462108027E+01  0.82646280602E+02  0.82945518212E+02  0.47000000000E+01 0. -1.
<mgrwt>
<rscale>  2 0.70392680E+01</rscale>
<asrwt>0</asrwt>
<pdfrwt beam="1">  1       21 0.13221128E-01 0.70392680E+01</pdfrwt>
<pdfrwt beam="2">  1       21 0.62968866E-03 0.70392680E+01</pdfrwt>
<totfact> 0.14964483E+08</totfact>
</mgrwt>
</event>
<event>
 4    1  0.3964155E+006  0.5510299E+01  0.7546771E-02  0.2483879E+00
         21   -1    0    0  503  502  0.00000000000E+00  0.00000000000E+00  0.25912990307E+04  0.25912990307E+04  0.00000000000E+00 0. -1.
         21   -1    0    0  501  503 -0.00000000000E+00 -0.00000000000E+00 -0.11855387972E-01  0.11855387972E-01  0.00000000000E+00 0. -1.
          5    1    1    2  501    0  0.19821352216E+01 -0.20843547052E+01  0.14354049338E+04  0.14354155103E+04  0.47000000000E+01 0. -1.
         -5    1    1    2    0  502 -0.19821352216E+01  0.20843547052E+01  0.11558822416E+04  0.11558953758E+04  0.47000000000E+01 0. -1.
<mgrwt>
<rscale>  2 0.55102990E+01</rscale>
<asrwt>0</asrwt>
<pdfrwt beam="1">  1       21 0.39820825E+00 0.55102990E+01</pdfrwt>
<pdfrwt beam="2">  1       21 0.18259813E-05 0.55102990E+01</pdfrwt>
<totfact> 0.36591846E+08</totfact>
</mgrwt>
</event>
<event>
 4    1  0.3964155E+006  0.6166387E+01  0.7546771E-02  0.2394258E+00
         21   -1    0    0  501  502  0.00000000000E+00  0.00000000000E+00  0.29035576348E+00  0.29035576348E+00  0.00000000000E+00 0. -1.
         21   -1    0    0  502  503 -0.00000000000E+00 -0.00000000000E+00 -0.16923759782E+03  0.16923759782E+03  0.00000000000E+00 0. -1.
          5    1    1    2  501    0  0.13996668640E+01  0.37383499294E+01 -0.44160335583E+02  0.44588782966E+02  0.47000000000E+01 0. -1.
         -5    1    1    2    0  503 -0.13996668640E+01 -0.37383499294E+01 -0.12478690648E+03  0.12493917062E+03  0.47000000000E+01 0. -1.
<mgrwt>
<rscale>  2 0.61663869E+01</rscale>
<asrwt>0</asrwt>
<pdfrwt beam="1">  1       21 0.44669961E-04 0.61663869E+01</pdfrwt>
<pdfrwt beam="2">  1       21 0.26036645E-01 0.61663869E+01</pdfrwt>
<totfact> 0.16984893E+09</totfact>
</mgrwt>
</event>
<event>
 4    1  0.3964155E+006  0.5612199E+01  0.7546771E-02  0.2468806E+00
         21   -1    0    0  501  502  0.00000000000E+00  0.00000000000E+00  0.41030945367E+01  0.41030945367E+01  0.00000000000E+00 0. -1.
         21   -1    0    0  502  503 -0.00000000000E+00 -0.00000000000E+00 -0.80172753233E+01  0.80172753233E+01  0.00000000000E+00 0.  1.
          5    1    1    2  501    0 -0.12779406685E+01  0.27881262463E+01 -0.70739671685E+00  0.56566059110E+01  0.47000000000E+01 0. -1.
         -5    1    1    2    0  503  0.12779406685E+01 -0.27881262463E+01 -0.32067840697E+01  0.64637639489E+01  0.47000000000E+01 0.  1.
<mgrwt>
<rscale>  2 0.56121992E+01</rscale>
<asrwt>0</asrwt>
<pdfrwt beam="1">  1       21 0.63124532E-03 0.56121992E+01</pdfrwt>
<pdfrwt beam="2">  1       21 0.12334270E-02 0.56121992E+01</pdfrwt>
<totfact> 0.42053148E+09</totfact>
</mgrwt>
</event>
<event>
 4    1  0.3964155E+006  0.6653677E+01  0.7546771E-02  0.2337392E+00
         21   -1    0    0  503  502  0.00000000000E+00  0.00000000000E+00  0.89153300313E+01  0.89153300313E+01  0.00000000000E+00 0.  1.
         21   -1    0    0  501  503 -0.00000000000E+00 -0.00000000000E+00 -0.13866019547E+02  0.13866019547E+02  0.00000000000E+00 0.  1.
          5    1    1    2  501    0 -0.45021180348E+01  0.13828776006E+01 -0.11601225893E+02  0.13373849838E+02  0.47000000000E+01 0.  1.
         -5    1    1    2    0  502  0.45021180348E+01 -0.13828776006E+01  0.66505363776E+01  0.94074997405E+01  0.47000000000E+01 0.  1.
<mgrwt>
<rscale>  2 0.66536770E+01</rscale>
<asrwt>0</asrwt>
<pdfrwt beam="1">  1       21 0.13715892E-02 0.66536770E+01</pdfrwt>
<pdfrwt beam="2">  1       21 0.21332338E-02 0.66536770E+01</pdfrwt>
<totfact> 0.74279276E+08</totfact>
</mgrwt>
</event>
<event>
 4    1  0.3964155E+006  0.4984830E+01  0.7546771E-02  0.2569852E+00
         21   -1    0    0  501  502  0.00000000000E+00  0.00000000000E+00  0.13812870250E+04  0.13812870250E+04  0.00000000000E+00 0.  1.
         21   -1    0    0  502  503 -0.00000000000E+00 -0.00000000000E+00 -0.32096076641E+00  0.32096076641E+00  0.00000000000E+00 0.  1.
          5    1    1    2  501    0 -0.16516719581E+01 -0.17468351912E+00  0.13616485760E+04  0.13616577004E+04  0.47000000000E+01 0.  1.
         -5    1    1    2    0  503  0.16516719581E+01  0.17468351912E+00  0.19317488253E+02  0.19950285387E+02  0.47000000000E+01 0.  1.
<mgrwt>
<rscale>  2 0.49848304E+01</rscale>
<asrwt>0</asrwt>
<pdfrwt beam="1">  1       21 0.21250094E+00 0.49848304E+01</pdfrwt>
<pdfrwt beam="2">  1       21 0.49379685E-04 0.49848304E+01</pdfrwt>
<totfact> 0.22855237E+07</totfact>
</mgrwt>
</event>
<event>
 4    1  0.3964155E+006  0.5982173E+01  0.7546771E-02  0.2417750E+00
         21   -1    0    0  501  502  0.00000000000E+00  0.00000000000E+00  0.55106117283E+02  0.55106117283E+02  0.00000000000E+00 0. -1.
         21   -1    0    0  502  503 -0.00000000000E+00 -0.00000000000E+00 -0.96573504918E+00  0.96573504918E+00  0.00000000000E+00 0. -1.
          5    1    1    2  501    0  0.31389119914E+01  0.19605155855E+01  0.43115704681E+02  0.43528730512E+02  0.47000000000E+01 0. -1.
         -5    1    1    2    0  503 -0.31389119914E+01 -0.19605155855E+01  0.11024677553E+02  0.12543121820E+02  0.47000000000E+01 0. -1.
<mgrwt>
<rscale>  2 0.59821727E+01</rscale>
<asrwt>0</asrwt>
<pdfrwt beam="1">  1       21 0.84778617E-02 0.59821727E+01</pdfrwt>
<pdfrwt beam="2">  1       21 0.14857467E-03 0.59821727E+01</pdfrwt>
<totfact> 0.19467528E+09</totfact>
</mgrwt>
</event>
<event>
 4    1  0.3964155E+006  0.1149511E+02  0.7546771E-02  0.1998713E+00
         21   -1    0    0  501  502  0.00000000000E+00  0.00000000000E+00  0.22073828195E+03  0.22073828195E+03  0.00000000000E+00 0. -1.
         21   -1    0    0  502  503 -0.00000000000E+00 -0.00000000000E+00 -0.64163962871E+00  0.64163962871E+00  0.00000000000E+00 0.  1.
          5    1    1    2  501    0 -0.64327010976E+01 -0.82866117499E+01  0.13871079296E+03  0.13918628402E+03  0.47000000000E+01 0.  1.
         -5    1    1    2    0  503  0.64327010976E+01  0.82866117499E+01  0.81385849370E+02  0.82193637560E+02  0.47000000000E+01 0. -1.
<mgrwt>
<rscale>  2 0.11495111E+02</rscale>
<asrwt>0</asrwt>
<pdfrwt beam="1">  1       21 0.33959675E-01 0.11495111E+02</pdfrwt>
<pdfrwt beam="2">  1       21 0.98713965E-04 0.11495111E+02</pdfrwt>
<totfact> 0.53349714E+08</totfact>
</mgrwt>
</event>
<event>
 4    1  0.3964155E+006  0.7069246E+01  0.7546771E-02  0.2294069E+00
         21   -1    0    0  501  502  0.00000000000E+00  0.00000000000E+00  0.24468540079E+03  0.24468540079E+03  0.00000000000E+00 0. -1.
         21   -1    0    0  502  503 -0.00000000000E+00 -0.00000000000E+00 -0.20854459646E+00  0.20854459646E+00  0.00000000000E+00 0.  1.
          5    1    1    2  501    0  0.45310884078E+01 -0.27117286759E+01  0.13983301412E+03  0.14001159264E+03  0.47000000000E+01 0. -1.
         -5    1    1    2    0  503 -0.45310884078E+01  0.27117286759E+01  0.10464384207E+03  0.10488235275E+03  0.47000000000E+01 0.  1.
<mgrwt>
<rscale>  2 0.70692457E+01</rscale>
<asrwt>0</asrwt>
<pdfrwt beam="1">  1       21 0.37643678E-01 0.70692457E+01</pdfrwt>
<pdfrwt beam="2">  1       21 0.32083980E-04 0.70692457E+01</pdfrwt>
<totfact> 0.15603551E+09</totfact>
</mgrwt>
</event>
<event>
 4    1  0.3964155E+006  0.9197088E+01  0.7546771E-02  0.2123785E+00
         21   -1    0    0  501  502  0.00000000000E+00  0.00000000000E+00  0.20310597662E+02  0.20310597662E+02  0.00000000000E+00 0. -1.
         21   -1    0    0  502  503 -0.00000000000E+00 -0.00000000000E+00 -0.75865412830E+01  0.75865412830E+01  0.00000000000E+00 0.  1.
          5    1    1    2  501    0 -0.34587935851E+01 -0.71086683355E+01  0.15729905856E+02  0.18221316001E+02  0.47000000000E+01 0. -1.
         -5    1    1    2    0  503  0.34587935851E+01  0.71086683355E+01 -0.30058494769E+01  0.96758229441E+01  0.47000000000E+01 0.  1.
<mgrwt>
<rscale>  2 0.91970875E+01</rscale>
<asrwt>0</asrwt>
<pdfrwt beam="1">  1       21 0.31247073E-02 0.91970875E+01</pdfrwt>
<pdfrwt beam="2">  1       21 0.11671602E-02 0.91970875E+01</pdfrwt>
<totfact> 0.66277598E+08</totfact>
</mgrwt>
</event>
<event>
 4    1  0.3964155E+006  0.1216849E+02  0.7546771E-02  0.1969197E+00
         21   -1    0    0  501  502  0.00000000000E+00  0.00000000000E+00  0.45229200961E+03  0.45229200961E+03  0.00000000000E+00 0. -1.
         21   -1    0    0  502  503 -0.00000000000E+00 -0.00000000000E+00 -0.74667626283E+00  0.74667626283E+00  0.00000000000E+00 0.  1.
          5    1    1    2  501    0 -0.62341553503E+01  0.93336698438E+01  0.39551836737E+03  0.39570551047E+03  0.47000000000E+01 0. -1.
         -5    1    1    2    0  503  0.62341553503E+01 -0.93336698438E+01  0.56026965976E+02  0.57333175407E+02  0.47000000000E+01 0.  1.
<mgrwt>
<rscale>  2 0.12168487E+02</rscale>
<asrwt>0</asrwt>
<pdfrwt beam="1">  1       21 0.69583167E-01 0.12168487E+02</pdfrwt>
<pdfrwt beam="2">  1       21 0.11487363E-03 0.12168487E+02</pdfrwt>
<totfact> 0.11509280E+08</totfact>
</mgrwt>
</event>
<event>
 4    1  0.3964155E+006  0.5413543E+01  0.7546771E-02  0.2498636E+00
         21   -1    0    0  503  502  0.00000000000E+00  0.00000000000E+00  0.35144578660E+02  0.35144578660E+02  0.00000000000E+00 0. -1.
         21   -1    0    0  501  503 -0.00000000000E+00 -0.00000000000E+00 -0.13422222873E+01  0.13422222873E+01  0.00000000000E+00 0. -1.
          5    1    1    2  501    0  0.25801431665E+01  0.74786719152E+00  0.56739982981E+01  0.78422382508E+01  0.47000000000E+01 0. -1.
         -5    1    1    2    0  502 -0.25801431665E+01 -0.74786719152E+00  0.28128358074E+02  0.28644562696E+02  0.47000000000E+01 0. -1.
<mgrwt>
<rscale>  2 0.54135427E+01</rscale>
<asrwt>0</asrwt>
<pdfrwt beam="1">  1       21 0.54068576E-02 0.54135427E+01</pdfrwt>
<pdfrwt beam="2">  1       21 0.20649576E-03 0.54135427E+01</pdfrwt>
<totfact> 0.22415737E+09</totfact>
</mgrwt>
</event>
<event>
 4    1  0.3964155E+006  0.6721623E+01  0.7546771E-02  0.2330008E+00
         21   -1    0    0  501  502  0.00000000000E+00  0.00000000000E+00  0.18320308298E+00  0.18320308298E+00  0.00000000000E+00 0.  1.
         21   -1    0    0  502  503 -0.00000000000E+00 -0.00000000000E+00 -0.37089133787E+03  0.37089133787E+03  0.00000000000E+00 0. -1.
          5    1    1    2  501    0  0.32954668025E+01 -0.34971578484E+01 -0.77953645218E+02  0.78242897552E+02  0.47000000000E+01 0.  1.
         -5    1    1    2    0  503 -0.32954668025E+01  0.34971578484E+01 -0.29275448957E+03  0.29283164340E+03  0.47000000000E+01 0. -1.
<mgrwt>
<rscale>  2 0.67216229E+01</rscale>
<asrwt>0</asrwt>
<pdfrwt beam="1">  1       21 0.28185054E-04 0.67216229E+01</pdfrwt>
<pdfrwt beam="2">  1       21 0.57060278E-01 0.67216229E+01</pdfrwt>
<totfact> 0.84874999E+08</totfact>
</mgrwt>
</event>
<event>
 4    1  0.3964155E+006  0.1441536E+02  0.7546771E-02  0.1886451E+00
         21   -1    0    0  503  502  0.00000000000E+00  0.00000000000E+00  0.55033308658E+01  0.55033308658E+01  0.00000000000E+00 0. -1.
         21   -1    0    0  501  503 -0.00000000000E+00 -0.00000000000E+00 -0.62541512307E+02  0.62541512307E+02  0.00000000000E+00 0.  1.
          5    1    1    2  501    0 -0.11643281064E+02 -0.70814299256E+01 -0.49935660800E+02  0.51974732931E+02  0.47000000000E+01 0. -1.
         -5    1    1    2    0  502  0.11643281064E+02  0.70814299256E+01 -0.71025206408E+01  0.16070110241E+02  0.47000000000E+01 0.  1.
<mgrwt>
<rscale>  2 0.14415361E+02</rscale>
<asrwt>0</asrwt>
<pdfrwt beam="1">  1       21 0.84666626E-03 0.14415361E+02</pdfrwt>
<pdfrwt beam="2">  1       21 0.96217715E-02 0.14415361E+02</pdfrwt>
<totfact> 0.23100402E+08</totfact>
</mgrwt>
</event>
<event>
 4    1  0.3964155E+006  0.2541558E+02  0.7546771E-02  0.1655104E+00
         21   -1    0    0  503  502  0.00000000000E+00  0.00000000000E+00  0.20432569660E+02  0.20432569660E+02  0.00000000000E+00 0.  1.
         21   -1    0    0  501  503 -0.00000000000E+00 -0.00000000000E+00 -0.10870377954E+03  0.10870377954E+03  0.00000000000E+00 0. -1.
          5    1    1    2  501    0  0.22140845176E+02 -0.11560476749E+02 -0.98510081093E+02  0.10173587236E+03  0.47000000000E+01 0. -1.
         -5    1    1    2    0  502 -0.22140845176E+02  0.11560476749E+02  0.10238871208E+02  0.27400476846E+02  0.47000000000E+01 0.  1.
<mgrwt>
<rscale>  2 0.25415579E+02</rscale>
<asrwt>0</asrwt>
<pdfrwt beam="1">  1       21 0.31434723E-02 0.25415579E+02</pdfrwt>
<pdfrwt beam="2">  1       21 0.16723658E-01 0.25415579E+02</pdfrwt>
<totfact> 0.14863473E+07</totfact>
</mgrwt>
</event>
<event>
 4    1  0.3964155E+006  0.1144310E+02  0.7546771E-02  0.2001104E+00
         21   -1    0    0  503  502  0.00000000000E+00  0.00000000000E+00  0.43968311620E+01  0.43968311620E+01  0.00000000000E+00 0. -1.
         21   -1    0    0  501  503 -0.00000000000E+00 -0.00000000000E+00 -0.53716923665E+02  0.53716923665E+02  0.00000000000E+00 0.  1.
          5    1    1    2  501    0  0.95537717746E+01  0.41928576079E+01 -0.44056089526E+02  0.45517948486E+02  0.47000000000E+01 0.  1.
         -5    1    1    2    0  502 -0.95537717746E+01 -0.41928576079E+01 -0.52640029772E+01  0.12595806341E+02  0.47000000000E+01 0. -1.
<mgrwt>
<rscale>  2 0.11443103E+02</rscale>
<asrwt>0</asrwt>
<pdfrwt beam="1">  1       21 0.67643557E-03 0.11443103E+02</pdfrwt>
<pdfrwt beam="2">  1       21 0.82641421E-02 0.11443103E+02</pdfrwt>
<totfact> 0.36906483E+08</totfact>
</mgrwt>
</event>
<event>
 4    1  0.3964155E+006  0.2221751E+02  0.7546771E-02  0.1704517E+00
         21   -1    0    0  503  502  0.00000000000E+00  0.00000000000E+00  0.11146049960E+02  0.11146049960E+02  0.00000000000E+00 0. -1.
         21   -1    0    0  501  503 -0.00000000000E+00 -0.00000000000E+00 -0.96256080629E+02  0.96256080629E+02  0.00000000000E+00 0.  1.
          5    1    1    2  501    0 -0.11425951402E+02 -0.18465517074E+02 -0.82013837335E+02  0.84969919387E+02  0.47000000000E+01 0.  1.
         -5    1    1    2    0  502  0.11425951402E+02  0.18465517074E+02 -0.30961933336E+01  0.22432211202E+02  0.47000000000E+01 0. -1.
<mgrwt>
<rscale>  2 0.22217509E+02</rscale>
<asrwt>0</asrwt>
<pdfrwt beam="1">  1       21 0.17147769E-02 0.22217509E+02</pdfrwt>
<pdfrwt beam="2">  1       21 0.14808628E-01 0.22217509E+02</pdfrwt>
<totfact> 0.45282432E+07</totfact>
</mgrwt>
</event>
<event>
 4    1  0.3964155E+006  0.7798130E+01  0.7546771E-02  0.2227337E+00
         21   -1    0    0  503  502  0.00000000000E+00  0.00000000000E+00  0.62589634776E+03  0.62589634776E+03  0.00000000000E+00 0.  1.
         21   -1    0    0  501  503 -0.00000000000E+00 -0.00000000000E+00 -0.13080894114E+00  0.13080894114E+00  0.00000000000E+00 0.  1.
          5    1    1    2  501    0 -0.13348523568E+01  0.60777469464E+01  0.15412205106E+03  0.15431920640E+03  0.47000000000E+01 0.  1.
         -5    1    1    2    0  502  0.13348523568E+01 -0.60777469464E+01  0.47164348776E+03  0.47170795031E+03  0.47000000000E+01 0.  1.
<mgrwt>
<rscale>  2 0.77981305E+01</rscale>
<asrwt>0</asrwt>
<pdfrwt beam="1">  1       21 0.96289348E-01 0.77981305E+01</pdfrwt>
<pdfrwt beam="2">  1       21 0.20124954E-04 0.77981305E+01</pdfrwt>
<totfact> 0.52759956E+08</totfact>
</mgrwt>
</event>
<event>
 4    1  0.3964155E+006  0.5411677E+01  0.7546771E-02  0.2498925E+00
         21   -1    0    0  501  502  0.00000000000E+00  0.00000000000E+00  0.25238674844E+02  0.25238674844E+02  0.00000000000E+00 0.  1.
         21   -1    0    0  502  503 -0.00000000000E+00 -0.00000000000E+00 -0.12540245875E+01  0.12540245875E+01  0.00000000000E+00 0.  1.
          5    1    1    2  501    0 -0.45853677847E+00 -0.26431030398E+01  0.83723693897E+01  0.99690931811E+01  0.47000000000E+01 0.  1.
         -5    1    1    2    0  503  0.45853677847E+00  0.26431030398E+01  0.15612280867E+02  0.16523606250E+02  0.47000000000E+01 0.  1.
<mgrwt>
<rscale>  2 0.54116772E+01</rscale>
<asrwt>0</asrwt>
<pdfrwt beam="1">  1       21 0.38828727E-02 0.54116772E+01</pdfrwt>
<pdfrwt beam="2">  1       21 0.19292688E-03 0.54116772E+01</pdfrwt>
<totfact> 0.39911025E+09</totfact>
</mgrwt>
</event>
<event>
 4    1  0.3964155E+006  0.4936856E+01  0.7546771E-02  0.2578479E+00
         21   -1    0    0  501  502  0.00000000000E+00  0.00000000000E+00  0.14264563295E+00  0.14264563295E+00  0.00000000000E+00 0. -1.
         21   -1    0    0  502  503 -0.00000000000E+00 -0.00000000000E+00 -0.31576399767E+03  0.31576399767E+03  0.00000000000E+00 0. -1.
          5    1    1    2  501    0  0.37509350811E+00  0.14635069696E+01 -0.50810021707E+02  0.51049298268E+02  0.47000000000E+01 0. -1.
         -5    1    1    2    0  503 -0.37509350811E+00 -0.14635069696E+01 -0.26481133033E+03  0.26485734503E+03  0.47000000000E+01 0. -1.
<mgrwt>
<rscale>  2 0.49368561E+01</rscale>
<asrwt>0</asrwt>
<pdfrwt beam="1">  1       21 0.21945665E-04 0.49368561E+01</pdfrwt>
<pdfrwt beam="2">  1       21 0.48578672E-01 0.49368561E+01</pdfrwt>
<totfact> 0.12551087E+09</totfact>
</mgrwt>
</event>
<event>
 4    1  0.3964155E+006  0.9123134E+01  0.7546771E-02  0.2128619E+00
         21   -1    0    0  501  502  0.00000000000E+00  0.00000000000E+00  0.87154645787E+03  0.87154645787E+03  0.00000000000E+00 0.  1.
         21   -1    0    0  502  503 -0.00000000000E+00 -0.00000000000E+00 -0.12646870271E+00  0.12646870271E+00  0.00000000000E+00 0.  1.
          5    1    1    2  501    0 -0.40225128114E+01 -0.67052939645E+01  0.65138631646E+03  0.65145020135E+03  0.47000000000E+01 0.  1.
         -5    1    1    2    0  503  0.40225128114E+01  0.67052939645E+01  0.22003367271E+03  0.22022272522E+03  0.47000000000E+01 0.  1.
<mgrwt>
<rscale>  2 0.91231341E+01</rscale>
<asrwt>0</asrwt>
<pdfrwt beam="1">  1       21 0.13407926E+00 0.91231341E+01</pdfrwt>
<pdfrwt beam="2">  1       21 0.19457421E-04 0.91231341E+01</pdfrwt>
<totfact> 0.29666396E+08</totfact>
</mgrwt>
</event>
<event>
 4    1  0.3964155E+006  0.9209251E+01  0.7546771E-02  0.2122996E+00
         21   -1    0    0  503  502  0.00000000000E+00  0.00000000000E+00  0.31852412761E+02  0.31852412761E+02  0.00000000000E+00 0.  1.
         21   -1    0    0  501  503 -0.00000000000E+00 -0.00000000000E+00 -0.76944770075E+01  0.76944770075E+01  0.00000000000E+00 0.  1.
          5    1    1    2  501    0  0.50460794922E+01  0.61038835134E+01 -0.39113717327E+01  0.10005455563E+02  0.47000000000E+01 0.  1.
         -5    1    1    2    0  502 -0.50460794922E+01 -0.61038835134E+01  0.28069307486E+02  0.29541434206E+02  0.47000000000E+01 0.  1.
<mgrwt>
<rscale>  2 0.92092514E+01</rscale>
<asrwt>0</asrwt>
<pdfrwt beam="1">  1       21 0.49003711E-02 0.92092514E+01</pdfrwt>
<pdfrwt beam="2">  1       21 0.11837657E-02 0.92092514E+01</pdfrwt>
<totfact> 0.32964227E+08</totfact>
</mgrwt>
</event>
<event>
 4    1  0.3964155E+006  0.5302406E+01  0.7546771E-02  0.2516150E+00
         21   -1    0    0  503  502  0.00000000000E+00  0.00000000000E+00  0.12633374045E-01  0.12633374045E-01  0.00000000000E+00 0. -1.
         21   -1    0    0  501  503 -0.00000000000E+00 -0.00000000000E+00 -0.22546213924E+04  0.22546213924E+04  0.00000000000E+00 0. -1.
          5    1    1    2  501    0 -0.24394291236E+01 -0.27330699023E+00 -0.12554348342E+04  0.12554460317E+04  0.47000000000E+01 0.  1.
         -5    1    1    2    0  502  0.24394291236E+01  0.27330699023E+00 -0.99917392484E+03  0.99918799411E+03  0.47000000000E+01 0.  1.
<mgrwt>
<rscale>  2 0.53024062E+01</rscale>
<asrwt>0</asrwt>
<pdfrwt beam="1">  1       21 0.19434878E-05 0.53024062E+01</pdfrwt>
<pdfrwt beam="2">  1       21 0.34688413E+00 0.53024062E+01</pdfrwt>
<totfact> 0.54038793E+08</totfact>
</mgrwt>
</event>
<event>
 4    1  0.3964155E+006  0.5226983E+01  0.7546771E-02  0.2528397E+00
         21   -1    0    0  503  502  0.00000000000E+00  0.00000000000E+00  0.30071583672E+03  0.30071583672E+03  0.00000000000E+00 0.  1.
         21   -1    0    0  501  503 -0.00000000000E+00 -0.00000000000E+00 -0.10058464286E+00  0.10058464286E+00  0.00000000000E+00 0.  1.
          5    1    1    2  501    0  0.59772200290E+00  0.22077321569E+01  0.19708844774E+03  0.19715774797E+03  0.47000000000E+01 0.  1.
         -5    1    1    2    0  502 -0.59772200290E+00 -0.22077321569E+01  0.10352680434E+03  0.10365867339E+03  0.47000000000E+01 0.  1.
<mgrwt>
<rscale>  2 0.52269832E+01</rscale>
<asrwt>0</asrwt>
<pdfrwt beam="1">  1       21 0.46263255E-01 0.52269832E+01</pdfrwt>
<pdfrwt beam="2">  1       21 0.15474801E-04 0.52269832E+01</pdfrwt>
<totfact> 0.22821451E+09</totfact>
</mgrwt>
</event>
<event>
 4    1  0.3964155E+006  0.8667791E+01  0.7546771E-02  0.2159812E+00
         21   -1    0    0  503  502  0.00000000000E+00  0.00000000000E+00  0.21541198047E+02  0.21541198047E+02  0.00000000000E+00 0. -1.
         21   -1    0    0  501  503 -0.00000000000E+00 -0.00000000000E+00 -0.59334325738E+01  0.59334325738E+01  0.00000000000E+00 0.  1.
          5    1    1    2  501    0  0.17980636820E+01 -0.70574473156E+01 -0.10156939861E+01  0.87270974494E+01  0.47000000000E+01 0. -1.
         -5    1    1    2    0  502 -0.17980636820E+01  0.70574473156E+01  0.16623459459E+02  0.18747533171E+02  0.47000000000E+01 0. -1.
<mgrwt>
<rscale>  2 0.86677907E+01</rscale>
<asrwt>0</asrwt>
<pdfrwt beam="1">  1       21 0.33140304E-02 0.86677907E+01</pdfrwt>
<pdfrwt beam="2">  1       21 0.91283579E-03 0.86677907E+01</pdfrwt>
<totfact> 0.83462461E+08</totfact>
</mgrwt>
</event>
<event>
 4    1  0.3964155E+006  0.5566877E+01  0.7546771E-02  0.2475452E+00
         21   -1    0    0  503  502  0.00000000000E+00  0.00000000000E+00  0.94512164172E+03  0.94512164172E+03  0.00000000000E+00 0.  1.
         21   -1    0    0  501  503 -0.00000000000E+00 -0.00000000000E+00 -0.34807327972E-01  0.34807327972E-01  0.00000000000E+00 0. -1.
          5    1    1    2  501    0  0.76573964109E+00  0.28833602589E+01  0.35876133309E+03  0.35880452093E+03  0.47000000000E+01 0.  1.
         -5    1    1    2    0  502 -0.76573964109E+00 -0.28833602589E+01  0.58632550131E+03  0.58635192812E+03  0.47000000000E+01 0.  1.
<mgrwt>
<rscale>  2 0.55668774E+01</rscale>
<asrwt>0</asrwt>
<pdfrwt beam="1">  1       21 0.14538278E+00 0.55668774E+01</pdfrwt>
<pdfrwt beam="2">  1       21 0.53557305E-05 0.55668774E+01</pdfrwt>
<totfact> 0.10656891E+09</totfact>
</mgrwt>
</event>
<event>
 4    1  0.3964155E+006  0.8609975E+01  0.7546771E-02  0.2163960E+00
         21   -1    0    0  501  502  0.00000000000E+00  0.00000000000E+00  0.74724590988E+03  0.74724590988E+03  0.00000000000E+00 0.  1.
         21   -1    0    0  502  503 -0.00000000000E+00 -0.00000000000E+00 -0.99714431125E-01  0.99714431125E-01  0.00000000000E+00 0.  1.
          5    1    1    2  501    0 -0.71197284882E+01 -0.11623807383E+01  0.34690399517E+03  0.34701082624E+03  0.47000000000E+01 0.  1.
         -5    1    1    2    0  503  0.71197284882E+01  0.11623807383E+01  0.40024220028E+03  0.40033479807E+03  0.47000000000E+01 0.  1.
<mgrwt>
<rscale>  2 0.86099746E+01</rscale>
<asrwt>0</asrwt>
<pdfrwt beam="1">  1       21 0.11495642E+00 0.86099746E+01</pdfrwt>
<pdfrwt beam="2">  1       21 0.15341280E-04 0.86099746E+01</pdfrwt>
<totfact> 0.55417857E+08</totfact>
</mgrwt>
</event>
<event>
 4    1  0.3964155E+006  0.5156320E+01  0.7546771E-02  0.2540148E+00
         21   -1    0    0  501  502  0.00000000000E+00  0.00000000000E+00  0.20143157030E+02  0.20143157030E+02  0.00000000000E+00 0. -1.
         21   -1    0    0  502  503 -0.00000000000E+00 -0.00000000000E+00 -0.19164257372E+01  0.19164257372E+01  0.00000000000E+00 0.  1.
          5    1    1    2  501    0 -0.17356436090E+01  0.12186784424E+01  0.15266884735E+02  0.16114136819E+02  0.47000000000E+01 0. -1.
         -5    1    1    2    0  503  0.17356436090E+01 -0.12186784424E+01  0.29598465570E+01  0.59454459483E+01  0.47000000000E+01 0.  1.
<mgrwt>
<rscale>  2 0.51563200E+01</rscale>
<asrwt>0</asrwt>
<pdfrwt beam="1">  1       21 0.30989471E-02 0.51563200E+01</pdfrwt>
<pdfrwt beam="2">  1       21 0.29483474E-03 0.51563200E+01</pdfrwt>
<totfact> 0.29671897E+09</totfact>
</mgrwt>
</event>
<event>
 4    1  0.3964155E+006  0.1758369E+02  0.7546771E-02  0.1798141E+00
         21   -1    0    0  503  502  0.00000000000E+00  0.00000000000E+00  0.12176280146E+01  0.12176280146E+01  0.00000000000E+00 0. -1.
         21   -1    0    0  501  503 -0.00000000000E+00 -0.00000000000E+00 -0.29649945605E+03  0.29649945605E+03  0.00000000000E+00 0.  1.
          5    1    1    2  501    0 -0.11142379622E+02  0.12764939988E+02 -0.20404828382E+03  0.20480451276E+03  0.47000000000E+01 0.  1.
         -5    1    1    2    0  502  0.11142379622E+02 -0.12764939988E+02 -0.91233544217E+02  0.92912571307E+02  0.47000000000E+01 0. -1.
<mgrwt>
<rscale>  2 0.17583695E+02</rscale>
<asrwt>0</asrwt>
<pdfrwt beam="1">  1       21 0.18732699E-03 0.17583695E+02</pdfrwt>
<pdfrwt beam="2">  1       21 0.45615396E-01 0.17583695E+02</pdfrwt>
<totfact> 0.14846073E+08</totfact>
</mgrwt>
</event>
<event>
 4    1  0.3964155E+006  0.6097136E+01  0.7546771E-02  0.2402950E+00
         21   -1    0    0  503  502  0.00000000000E+00  0.00000000000E+00  0.16199506322E+03  0.16199506322E+03  0.00000000000E+00 0. -1.
         21   -1    0    0  501  503 -0.00000000000E+00 -0.00000000000E+00 -0.55519725653E+00  0.55519725653E+00  0.00000000000E+00 0. -1.
          5    1    1    2  501    0  0.14033091282E+01  0.36215726295E+01  0.18468034422E+02  0.19448479638E+02  0.47000000000E+01 0. -1.
         -5    1    1    2    0  502 -0.14033091282E+01 -0.36215726295E+01  0.14297183154E+03  0.14310178084E+03  0.47000000000E+01 0. -1.
<mgrwt>
<rscale>  2 0.60971358E+01</rscale>
<asrwt>0</asrwt>
<pdfrwt beam="1">  1       21 0.24922280E-01 0.60971358E+01</pdfrwt>
<pdfrwt beam="2">  1       21 0.85415092E-04 0.60971358E+01</pdfrwt>
<totfact> 0.75957913E+08</totfact>
</mgrwt>
</event>
<event>
 4    1  0.3964155E+006  0.1399943E+02  0.7546771E-02  0.1900230E+00
         21   -1    0    0  503  502  0.00000000000E+00  0.00000000000E+00  0.16414042390E+01  0.16414042390E+01  0.00000000000E+00 0.  1.
         21   -1    0    0  501  503 -0.00000000000E+00 -0.00000000000E+00 -0.12459286697E+03  0.12459286697E+03  0.00000000000E+00 0. -1.
          5    1    1    2  501    0 -0.80445297444E+01 -0.10448904362E+02 -0.74361022226E+02  0.75667335672E+02  0.47000000000E+01 0.  1.
         -5    1    1    2    0  502  0.80445297444E+01  0.10448904362E+02 -0.48590440509E+02  0.50566935542E+02  0.47000000000E+01 0. -1.
<mgrwt>
<rscale>  2 0.13999431E+02</rscale>
<asrwt>0</asrwt>
<pdfrwt beam="1">  1       21 0.25252375E-03 0.13999431E+02</pdfrwt>
<pdfrwt beam="2">  1       21 0.19168132E-01 0.13999431E+02</pdfrwt>
<totfact> 0.42016073E+08</totfact>
</mgrwt>
</event>
<event>
 4    1  0.3964155E+006  0.7900627E+01  0.7546771E-02  0.2218760E+00
         21   -1    0    0  501  502  0.00000000000E+00  0.00000000000E+00  0.11215284332E+02  0.11215284332E+02  0.00000000000E+00 0. -1.
         21   -1    0    0  502  503 -0.00000000000E+00 -0.00000000000E+00 -0.58716693901E+01  0.58716693901E+01  0.00000000000E+00 0. -1.
          5    1    1    2  501    0 -0.32427161791E+01 -0.54602834363E+01  0.72126055164E+00  0.79334809640E+01  0.47000000000E+01 0. -1.
         -5    1    1    2    0  503  0.32427161791E+01  0.54602834363E+01  0.46223543903E+01  0.91534727581E+01  0.47000000000E+01 0. -1.
<mgrwt>
<rscale>  2 0.79006268E+01</rscale>
<asrwt>0</asrwt>
<pdfrwt beam="1">  1       21 0.17254284E-02 0.79006268E+01</pdfrwt>
<pdfrwt beam="2">  1       21 0.90333375E-03 0.79006268E+01</pdfrwt>
<totfact> 0.20833469E+09</totfact>
</mgrwt>
</event>
<event>
 4    1  0.3964155E+006  0.5797497E+01  0.7546771E-02  0.2442549E+00
         21   -1    0    0  501  502  0.00000000000E+00  0.00000000000E+00  0.75067611403E+02  0.75067611403E+02  0.00000000000E+00 0.  1.
         21   -1    0    0  502  503 -0.00000000000E+00 -0.00000000000E+00 -0.45282435485E+00  0.45282435485E+00  0.00000000000E+00 0.  1.
          5    1    1    2  501    0  0.23699090535E+01  0.24299188370E+01  0.41307508641E+02  0.41712363211E+02  0.47000000000E+01 0.  1.
         -5    1    1    2    0  503 -0.23699090535E+01 -0.24299188370E+01  0.33307278407E+02  0.33808072547E+02  0.47000000000E+01 0.  1.
<mgrwt>
<rscale>  2 0.57974973E+01</rscale>
<asrwt>0</asrwt>
<pdfrwt beam="1">  1       21 0.11548853E-01 0.57974973E+01</pdfrwt>
<pdfrwt beam="2">  1       21 0.69665345E-04 0.57974973E+01</pdfrwt>
<totfact> 0.32647337E+09</totfact>
</mgrwt>
</event>
<event>
 4    1  0.3964155E+006  0.6358045E+01  0.7546771E-02  0.2371029E+00
         21   -1    0    0  501  502  0.00000000000E+00  0.00000000000E+00  0.36833163942E+00  0.36833163942E+00  0.00000000000E+00 0. -1.
         21   -1    0    0  502  503 -0.00000000000E+00 -0.00000000000E+00 -0.11253693328E+03  0.11253693328E+03  0.00000000000E+00 0. -1.
          5    1    1    2  501    0  0.14877468586E+01  0.40151400291E+01 -0.47201960040E+02  0.47628245525E+02  0.47000000000E+01 0. -1.
         -5    1    1    2    0  503 -0.14877468586E+01 -0.40151400291E+01 -0.64966641604E+02  0.65277019398E+02  0.47000000000E+01 0. -1.
<mgrwt>
<rscale>  2 0.63580453E+01</rscale>
<asrwt>0</asrwt>
<pdfrwt beam="1">  1       21 0.56666400E-04 0.63580453E+01</pdfrwt>
<pdfrwt beam="2">  1       21 0.17313376E-01 0.63580453E+01</pdfrwt>
<totfact> 0.24602885E+09</totfact>
</mgrwt>
</event>
<event>
 4    1  0.3964155E+006  0.7736538E+01  0.7546771E-02  0.2232579E+00
         21   -1    0    0  503  502  0.00000000000E+00  0.00000000000E+00  0.32847010827E+01  0.32847010827E+01  0.00000000000E+00 0.  1.
         21   -1    0    0  501  503 -0.00000000000E+00 -0.00000000000E+00 -0.40208155076E+02  0.40208155076E+02  0.00000000000E+00 0.  1.
          5    1    1    2  501    0 -0.75983709308E+00  0.60980876341E+01 -0.34542424988E+02  0.35398208277E+02  0.47000000000E+01 0.  1.
         -5    1    1    2    0  502  0.75983709308E+00 -0.60980876341E+01 -0.23810290055E+01  0.80946478815E+01  0.47000000000E+01 0.  1.
<mgrwt>
<rscale>  2 0.77365383E+01</rscale>
<asrwt>0</asrwt>
<pdfrwt beam="1">  1       21 0.50533864E-03 0.77365383E+01</pdfrwt>
<pdfrwt beam="2">  1       21 0.61858698E-02 0.77365383E+01</pdfrwt>
<totfact> 0.70291694E+08</totfact>
</mgrwt>
</event>
<event>
 4    1  0.3964155E+006  0.8200970E+01  0.7546771E-02  0.2194629E+00
         21   -1    0    0  503  502  0.00000000000E+00  0.00000000000E+00  0.10546064922E+03  0.10546064922E+03  0.00000000000E+00 0. -1.
         21   -1    0    0  501  503 -0.00000000000E+00 -0.00000000000E+00 -0.65751733099E+00  0.65751733099E+00  0.00000000000E+00 0.  1.
          5    1    1    2  501    0 -0.41191745963E+01 -0.53102084959E+01  0.61604967246E+02  0.62148434437E+02  0.47000000000E+01 0. -1.
         -5    1    1    2    0  502  0.41191745963E+01  0.53102084959E+01  0.43198164641E+02  0.43969732112E+02  0.47000000000E+01 0. -1.
<mgrwt>
<rscale>  2 0.82009703E+01</rscale>
<asrwt>0</asrwt>
<pdfrwt beam="1">  1       21 0.16224702E-01 0.82009703E+01</pdfrwt>
<pdfrwt beam="2">  1       21 0.10115660E-03 0.82009703E+01</pdfrwt>
<totfact> 0.14979205E+09</totfact>
</mgrwt>
</event>
<event>
 4    1  0.3964155E+006  0.5553371E+01  0.7546771E-02  0.2477451E+00
         21   -1    0    0  503  502  0.00000000000E+00  0.00000000000E+00  0.46039863724E+03  0.46039863724E+03  0.00000000000E+00 0.  1.
         21   -1    0    0  501  503 -0.00000000000E+00 -0.00000000000E+00 -0.75170160882E+00  0.75170160882E+00  0.00000000000E+00 0.  1.
          5    1    1    2  501    0 -0.13613066713E+01 -0.26261713387E+01  0.97614256385E+01  0.11230554851E+02  0.47000000000E+01 0.  1.
         -5    1    1    2    0  502  0.13613066713E+01  0.26261713387E+01  0.44988550999E+03  0.44991978400E+03  0.47000000000E+01 0.  1.
<mgrwt>
<rscale>  2 0.55533712E+01</rscale>
<asrwt>0</asrwt>
<pdfrwt beam="1">  1       21 0.70830334E-01 0.55533712E+01</pdfrwt>
<pdfrwt beam="2">  1       21 0.11564677E-03 0.55533712E+01</pdfrwt>
<totfact> 0.75562496E+07</totfact>
</mgrwt>
</event>
<event>
 4    1  0.3964155E+006  0.5479156E+01  0.7546771E-02  0.2488581E+00
         21   -1    0    0  501  502  0.00000000000E+00  0.00000000000E+00  0.15374521208E+01  0.15374521208E+01  0.00000000000E+00 0.  1.
         21   -1    0    0  502  503 -0.00000000000E+00 -0.00000000000E+00 -0.10866371484E+03  0.10866371484E+03  0.00000000000E+00 0.  1.
          5    1    1    2  501    0 -0.33596504419E+00  0.27961176654E+01 -0.36582169686E+01  0.65881482906E+01  0.47000000000E+01 0.  1.
         -5    1    1    2    0  503  0.33596504419E+00 -0.27961176654E+01 -0.10346804575E+03  0.10361301867E+03  0.47000000000E+01 0.  1.
<mgrwt>
<rscale>  2 0.54791556E+01</rscale>
<asrwt>0</asrwt>
<pdfrwt beam="1">  1       21 0.23653104E-03 0.54791556E+01</pdfrwt>
<pdfrwt beam="2">  1       21 0.16717498E-01 0.54791556E+01</pdfrwt>
<totfact> 0.33802066E+08</totfact>
</mgrwt>
</event>
<event>
 4    1  0.3964155E+006  0.5006547E+01  0.7546771E-02  0.2565994E+00
         21   -1    0    0  503  502  0.00000000000E+00  0.00000000000E+00  0.56614107393E+02  0.56614107393E+02  0.00000000000E+00 0.  1.
         21   -1    0    0  501  503 -0.00000000000E+00 -0.00000000000E+00 -0.77984468969E+00  0.77984468969E+00  0.00000000000E+00 0.  1.
          5    1    1    2  501    0  0.62793051895E+00 -0.16066162403E+01  0.90497166442E+01  0.10342286199E+02  0.47000000000E+01 0.  1.
         -5    1    1    2    0  502 -0.62793051895E+00  0.16066162403E+01  0.46784546059E+02  0.47051665884E+02  0.47000000000E+01 0.  1.
<mgrwt>
<rscale>  2 0.50065470E+01</rscale>
<asrwt>0</asrwt>
<pdfrwt beam="1">  1       21 0.87098595E-02 0.50065470E+01</pdfrwt>
<pdfrwt beam="2">  1       21 0.11997615E-03 0.50065470E+01</pdfrwt>
<totfact> 0.21204073E+09</totfact>
</mgrwt>
</event>
<event>
 4    1  0.3964155E+006  0.5169921E+01  0.7546771E-02  0.2537865E+00
         21   -1    0    0  503  502  0.00000000000E+00  0.00000000000E+00  0.26585779470E+00  0.26585779470E+00  0.00000000000E+00 0. -1.
         21   -1    0    0  501  503 -0.00000000000E+00 -0.00000000000E+00 -0.13157857137E+03  0.13157857137E+03  0.00000000000E+00 0. -1.
          5    1    1    2  501    0 -0.17848681231E+01  0.12051281043E+01 -0.97676486165E+02  0.97813209934E+02  0.47000000000E+01 0. -1.
         -5    1    1    2    0  502  0.17848681231E+01 -0.12051281043E+01 -0.33636227415E+02  0.34031219236E+02  0.47000000000E+01 0. -1.
<mgrwt>
<rscale>  2 0.51699215E+01</rscale>
<asrwt>0</asrwt>
<pdfrwt beam="1">  1       21 0.40901175E-04 0.51699215E+01</pdfrwt>
<pdfrwt beam="2">  1       21 0.20242869E-01 0.51699215E+01</pdfrwt>
<totfact> 0.24798072E+09</totfact>
</mgrwt>
</event>
<event>
 4    1  0.3964155E+006  0.4886814E+01  0.7546771E-02  0.2587633E+00
         21   -1    0    0  503  502  0.00000000000E+00  0.00000000000E+00  0.10926795523E+02  0.10926795523E+02  0.00000000000E+00 0.  1.
         21   -1    0    0  501  503 -0.00000000000E+00 -0.00000000000E+00 -0.22881338197E+01  0.22881338197E+01  0.00000000000E+00 0.  1.
          5    1    1    2  501    0 -0.86044269409E+00 -0.10249806220E+01  0.29202104658E+01  0.56928530694E+01  0.47000000000E+01 0.  1.
         -5    1    1    2    0  502  0.86044269409E+00  0.10249806220E+01  0.57184512376E+01  0.75220762734E+01  0.47000000000E+01 0.  1.
<mgrwt>
<rscale>  2 0.48868136E+01</rscale>
<asrwt>0</asrwt>
<pdfrwt beam="1">  1       21 0.16810454E-02 0.48868136E+01</pdfrwt>
<pdfrwt beam="2">  1       21 0.35202059E-03 0.48868136E+01</pdfrwt>
<totfact> 0.52673014E+09</totfact>
</mgrwt>
</event>
<event>
 4    1  0.3964155E+006  0.6562752E+01  0.7546771E-02  0.2347470E+00
         21   -1    0    0  501  502  0.00000000000E+00  0.00000000000E+00  0.10554797621E+03  0.10554797621E+03  0.00000000000E+00 0. -1.
         21   -1    0    0  502  503 -0.00000000000E+00 -0.00000000000E+00 -0.73508105553E+00  0.73508105553E+00  0.00000000000E+00 0.  1.
          5    1    1    2  501    0  0.91970021666E+00  0.44870781355E+01  0.87851487636E+02  0.88096274601E+02  0.47000000000E+01 0. -1.
         -5    1    1    2    0  503 -0.91970021666E+00 -0.44870781355E+01  0.16961407517E+02  0.18186782663E+02  0.47000000000E+01 0.  1.
<mgrwt>
<rscale>  2 0.65627524E+01</rscale>
<asrwt>0</asrwt>
<pdfrwt beam="1">  1       21 0.16238138E-01 0.65627524E+01</pdfrwt>
<pdfrwt beam="2">  1       21 0.11308948E-03 0.65627524E+01</pdfrwt>
<totfact> 0.11018357E+09</totfact>
</mgrwt>
</event>
<event>
 4    1  0.3964155E+006  0.2662181E+02  0.7546771E-02  0.1638744E+00
         21   -1    0    0  503  502  0.00000000000E+00  0.00000000000E+00  0.28118334021E+02  0.28118334021E+02  0.00000000000E+00 0. -1.
         21   -1    0    0  501  503 -0.00000000000E+00 -0.00000000000E+00 -0.34103251270E+02  0.34103251270E+02  0.00000000000E+00 0.  1.
          5    1    1    2  501    0  0.18390091042E+02 -0.18666428415E+02  0.12899115367E+02  0.29582227360E+02  0.47000000000E+01 0. -1.
         -5    1    1    2    0  502 -0.18390091042E+02  0.18666428415E+02 -0.18884032617E+02  0.32639357932E+02  0.47000000000E+01 0.  1.
<mgrwt>
<rscale>  2 0.26621814E+02</rscale>
<asrwt>0</asrwt>
<pdfrwt beam="1">  1       21 0.43258975E-02 0.26621814E+02</pdfrwt>
<pdfrwt beam="2">  1       21 0.52466541E-02 0.26621814E+02</pdfrwt>
<totfact> 0.62049359E+07</totfact>
</mgrwt>
</event>
<event>
 4    1  0.3964155E+006  0.5104501E+01  0.7546771E-02  0.2548943E+00
         21   -1    0    0  501  502  0.00000000000E+00  0.00000000000E+00  0.30134325046E+02  0.30134325046E+02  0.00000000000E+00 0. -1.
         21   -1    0    0  502  503 -0.00000000000E+00 -0.00000000000E+00 -0.89078820870E+00  0.89078820870E+00  0.00000000000E+00 0.  1.
          5    1    1    2  501    0 -0.14374278950E+01 -0.13783092366E+01  0.17278537315E+02  0.18016764056E+02  0.47000000000E+01 0. -1.
         -5    1    1    2    0  503  0.14374278950E+01  0.13783092366E+01  0.11964999522E+02  0.13008349198E+02  0.47000000000E+01 0. -1.
<mgrwt>
<rscale>  2 0.51045015E+01</rscale>
<asrwt>0</asrwt>
<pdfrwt beam="1">  1       21 0.46360492E-02 0.51045015E+01</pdfrwt>
<pdfrwt beam="2">  1       21 0.13704436E-03 0.51045015E+01</pdfrwt>
<totfact> 0.46010135E+09</totfact>
</mgrwt>
</event>
<event>
 4    1  0.3964155E+006  0.6127720E+01  0.7546771E-02  0.2399091E+00
         21   -1    0    0  503  502  0.00000000000E+00  0.00000000000E+00  0.87336192924E+00  0.87336192924E+00  0.00000000000E+00 0.  1.
         21   -1    0    0  501  503 -0.00000000000E+00 -0.00000000000E+00 -0.45940195180E+02  0.45940195180E+02  0.00000000000E+00 0.  1.
          5    1    1    2  501    0 -0.17673331536E+01  0.35121904576E+01 -0.28461408341E+02  0.29113582965E+02  0.47000000000E+01 0.  1.
         -5    1    1    2    0  502  0.17673331536E+01 -0.35121904576E+01 -0.16605424910E+02  0.17699974145E+02  0.47000000000E+01 0.  1.
<mgrwt>
<rscale>  2 0.61277197E+01</rscale>
<asrwt>0</asrwt>
<pdfrwt beam="1">  1       21 0.13436337E-03 0.61277197E+01</pdfrwt>
<pdfrwt beam="2">  1       21 0.70677225E-02 0.61277197E+01</pdfrwt>
<totfact> 0.29979302E+09</totfact>
</mgrwt>
</event>
<event>
 4    1  0.3964155E+006  0.2626933E+02  0.7546771E-02  0.1643412E+00
         21   -1    0    0  501  502  0.00000000000E+00  0.00000000000E+00  0.93442014246E+03  0.93442014246E+03  0.00000000000E+00 0.  1.
         21   -1    0    0  502  503 -0.00000000000E+00 -0.00000000000E+00 -0.49274599138E+01  0.49274599138E+01  0.00000000000E+00 0. -1.
          5    1    1    2  501    0 -0.17916292095E+02 -0.18627774157E+02  0.89779573203E+03  0.89817996746E+03  0.47000000000E+01 0.  1.
         -5    1    1    2    0  503  0.17916292095E+02  0.18627774157E+02  0.31696950515E+02  0.41167634914E+02  0.47000000000E+01 0. -1.
<mgrwt>
<rscale>  2 0.26269326E+02</rscale>
<asrwt>0</asrwt>
<pdfrwt beam="1">  1       21 0.14375680E+00 0.26269326E+02</pdfrwt>
<pdfrwt beam="2">  1       21 0.75807150E-03 0.26269326E+02</pdfrwt>
<totfact> 0.18534057E+06</totfact>
</mgrwt>
</event>
<event>
 4    1  0.3964155E+006  0.4799866E+01  0.7546771E-02  0.2603931E+00
         21   -1    0    0  501  502  0.00000000000E+00  0.00000000000E+00  0.37629623094E+02  0.37629623094E+02  0.00000000000E+00 0.  1.
         21   -1    0    0  502  503 -0.00000000000E+00 -0.00000000000E+00 -0.86139628995E+00  0.86139628995E+00  0.00000000000E+00 0.  1.
          5    1    1    2  501    0 -0.87749605124E+00 -0.42275122320E+00  0.28734476062E+02  0.29132607718E+02  0.47000000000E+01 0.  1.
         -5    1    1    2    0  503  0.87749605124E+00  0.42275122320E+00  0.80337507422E+01  0.93584116656E+01  0.47000000000E+01 0.  1.
<mgrwt>
<rscale>  2 0.47998664E+01</rscale>
<asrwt>0</asrwt>
<pdfrwt beam="1">  1       21 0.57891715E-02 0.47998664E+01</pdfrwt>
<pdfrwt beam="2">  1       21 0.13252254E-03 0.47998664E+01</pdfrwt>
<totfact> 0.32620644E+09</totfact>
</mgrwt>
</event>
<event>
 4    1  0.3964155E+006  0.8582491E+01  0.7546771E-02  0.2165947E+00
         21   -1    0    0  503  502  0.00000000000E+00  0.00000000000E+00  0.26445563955E+03  0.26445563955E+03  0.00000000000E+00 0. -1.
         21   -1    0    0  501  503 -0.00000000000E+00 -0.00000000000E+00 -0.10238889224E+01  0.10238889224E+01  0.00000000000E+00 0.  1.
          5    1    1    2  501    0  0.23813844797E+01 -0.67748177569E+01  0.18460976519E+02  0.20358457744E+02  0.47000000000E+01 0.  1.
         -5    1    1    2    0  502 -0.23813844797E+01  0.67748177569E+01  0.24497077410E+03  0.24512107072E+03  0.47000000000E+01 0. -1.
<mgrwt>
<rscale>  2 0.85824908E+01</rscale>
<asrwt>0</asrwt>
<pdfrwt beam="1">  1       21 0.40685428E-01 0.85824908E+01</pdfrwt>
<pdfrwt beam="2">  1       21 0.15752158E-03 0.85824908E+01</pdfrwt>
<totfact> 0.17544972E+08</totfact>
</mgrwt>
</event>
<event>
 4    1  0.3964155E+006  0.5654424E+01  0.7546771E-02  0.2462695E+00
         21   -1    0    0  503  502  0.00000000000E+00  0.00000000000E+00  0.87243018527E+01  0.87243018527E+01  0.00000000000E+00 0.  1.
         21   -1    0    0  501  503 -0.00000000000E+00 -0.00000000000E+00 -0.79970490303E+01  0.79970490303E+01  0.00000000000E+00 0.  1.
          5    1    1    2  501    0  0.31425616067E+01  0.82565278583E-01 -0.57900545773E+01  0.80930366665E+01  0.47000000000E+01 0.  1.
         -5    1    1    2    0  502 -0.31425616067E+01 -0.82565278583E-01  0.65173073996E+01  0.86283142165E+01  0.47000000000E+01 0.  1.
<mgrwt>
<rscale>  2 0.56544240E+01</rscale>
<asrwt>0</asrwt>
<pdfrwt beam="1">  1       21 0.13422003E-02 0.56544240E+01</pdfrwt>
<pdfrwt beam="2">  1       21 0.12303152E-02 0.56544240E+01</pdfrwt>
<totfact> 0.14745774E+09</totfact>
</mgrwt>
</event>
<event>
 4    1  0.3964155E+006  0.7090338E+01  0.7546771E-02  0.2291982E+00
         21   -1    0    0  501  502  0.00000000000E+00  0.00000000000E+00  0.90044132864E+00  0.90044132864E+00  0.00000000000E+00 0.  1.
         21   -1    0    0  502  503 -0.00000000000E+00 -0.00000000000E+00 -0.61098081636E+02  0.61098081636E+02  0.00000000000E+00 0. -1.
          5    1    1    2  501    0 -0.29912961067E+01  0.43857766557E+01 -0.39200186264E+02  0.39836258515E+02  0.47000000000E+01 0. -1.
         -5    1    1    2    0  503  0.29912961067E+01 -0.43857766557E+01 -0.20997454043E+02  0.22162264450E+02  0.47000000000E+01 0.  1.
<mgrwt>
<rscale>  2 0.70903377E+01</rscale>
<asrwt>0</asrwt>
<pdfrwt beam="1">  1       21 0.13852937E-03 0.70903377E+01</pdfrwt>
<pdfrwt beam="2">  1       21 0.93997093E-02 0.70903377E+01</pdfrwt>
<totfact> 0.20904916E+09</totfact>
</mgrwt>
</event>
<event>
 4    1  0.3964155E+006  0.5517870E+01  0.7546771E-02  0.2482743E+00
         21   -1    0    0  503  502  0.00000000000E+00  0.00000000000E+00  0.20967004575E+02  0.20967004575E+02  0.00000000000E+00 0. -1.
         21   -1    0    0  501  503 -0.00000000000E+00 -0.00000000000E+00 -0.40055553721E+01  0.40055553721E+01  0.00000000000E+00 0. -1.
          5    1    1    2  501    0  0.21045406829E+01 -0.19818660203E+01 -0.14885373468E+01  0.57151227320E+01  0.47000000000E+01 0. -1.
         -5    1    1    2    0  502 -0.21045406829E+01  0.19818660203E+01  0.18449986550E+02  0.19257437215E+02  0.47000000000E+01 0. -1.
<mgrwt>
<rscale>  2 0.55178696E+01</rscale>
<asrwt>0</asrwt>
<pdfrwt beam="1">  1       21 0.32256930E-02 0.55178696E+01</pdfrwt>
<pdfrwt beam="2">  1       21 0.61623930E-03 0.55178696E+01</pdfrwt>
<totfact> 0.10837130E+09</totfact>
</mgrwt>
</event>
<event>
 4    1  0.3964155E+006  0.6723410E+01  0.7546771E-02  0.2329815E+00
         21   -1    0    0  503  502  0.00000000000E+00  0.00000000000E+00  0.53511892622E+03  0.53511892622E+03  0.00000000000E+00 0.  1.
         21   -1    0    0  501  503 -0.00000000000E+00 -0.00000000000E+00 -0.89779825499E-01  0.89779825499E-01  0.00000000000E+00 0.  1.
          5    1    1    2  501    0  0.30562773498E+01  0.37112554062E+01  0.20246664270E+03  0.20257824576E+03  0.47000000000E+01 0.  1.
         -5    1    1    2    0  502 -0.30562773498E+01 -0.37112554062E+01  0.33256250369E+03  0.33263046028E+03  0.47000000000E+01 0.  1.
<mgrwt>
<rscale>  2 0.67234104E+01</rscale>
<asrwt>0</asrwt>
<pdfrwt beam="1">  1       21 0.82323435E-01 0.67234104E+01</pdfrwt>
<pdfrwt beam="2">  1       21 0.13812709E-04 0.67234104E+01</pdfrwt>
<totfact> 0.10950315E+09</totfact>
</mgrwt>
</event>
<event>
 4    1  0.3964155E+006  0.5341738E+01  0.7546771E-02  0.2509881E+00
         21   -1    0    0  501  502  0.00000000000E+00  0.00000000000E+00  0.41210341601E+00  0.41210341601E+00  0.00000000000E+00 0. -1.
         21   -1    0    0  502  503 -0.00000000000E+00 -0.00000000000E+00 -0.21537823602E+03  0.21537823602E+03  0.00000000000E+00 0. -1.
          5    1    1    2  501    0  0.14099001298E+01  0.21110058101E+01 -0.18607459238E+02  0.19359021236E+02  0.47000000000E+01 0. -1.
         -5    1    1    2    0  503 -0.14099001298E+01 -0.21110058101E+01 -0.19635867337E+03  0.19643131820E+03  0.47000000000E+01 0. -1.
<mgrwt>
<rscale>  2 0.53417379E+01</rscale>
<asrwt>0</asrwt>
<pdfrwt beam="1">  1       21 0.63400479E-04 0.53417379E+01</pdfrwt>
<pdfrwt beam="2">  1       21 0.33135138E-01 0.53417379E+01</pdfrwt>
<totfact> 0.63523333E+08</totfact>
</mgrwt>
</event>
<event>
 4    1  0.3964155E+006  0.4707128E+01  0.7546771E-02  0.2621888E+00
         21   -1    0    0  501  502  0.00000000000E+00  0.00000000000E+00  0.18389577143E+01  0.18389577143E+01  0.00000000000E+00 0.  1.
         21   -1    0    0  502  503 -0.00000000000E+00 -0.00000000000E+00 -0.18570893283E+02  0.18570893283E+02  0.00000000000E+00 0.  1.
          5    1    1    2  501    0  0.22292590661E+00  0.13173960715E+00 -0.23182676798E+01  0.52470388143E+01  0.47000000000E+01 0.  1.
         -5    1    1    2    0  503 -0.22292590661E+00 -0.13173960715E+00 -0.14413667889E+02  0.15162812183E+02  0.47000000000E+01 0.  1.
<mgrwt>
<rscale>  2 0.47071277E+01</rscale>
<asrwt>0</asrwt>
<pdfrwt beam="1">  1       21 0.28291656E-03 0.47071277E+01</pdfrwt>
<pdfrwt beam="2">  1       21 0.28570606E-02 0.47071277E+01</pdfrwt>
<totfact> 0.32085302E+09</totfact>
</mgrwt>
</event>
<event>
 4    1  0.3964155E+006  0.5442860E+01  0.7546771E-02  0.2494118E+00
         21   -1    0    0  501  502  0.00000000000E+00  0.00000000000E+00  0.47606524200E+02  0.47606524200E+02  0.00000000000E+00 0. -1.
         21   -1    0    0  502  503 -0.00000000000E+00 -0.00000000000E+00 -0.72957876618E+00  0.72957876618E+00  0.00000000000E+00 0.  1.
          5    1    1    2  501    0  0.26887762177E+01 -0.55245274382E+00  0.32706711724E+02  0.33156503335E+02  0.47000000000E+01 0. -1.
         -5    1    1    2    0  503 -0.26887762177E+01  0.55245274382E+00  0.14170233710E+02  0.15179599632E+02  0.47000000000E+01 0.  1.
<mgrwt>
<rscale>  2 0.54428597E+01</rscale>
<asrwt>0</asrwt>
<pdfrwt beam="1">  1       21 0.73240782E-02 0.54428597E+01</pdfrwt>
<pdfrwt beam="2">  1       21 0.11224292E-03 0.54428597E+01</pdfrwt>
<totfact> 0.32577056E+09</totfact>
</mgrwt>
</event>
<event>
 4    1  0.3964155E+006  0.4957299E+01  0.7546771E-02  0.2574785E+00
         21   -1    0    0  503  502  0.00000000000E+00  0.00000000000E+00  0.31501037502E+01  0.31501037502E+01  0.00000000000E+00 0. -1.
         21   -1    0    0  501  503 -0.00000000000E+00 -0.00000000000E+00 -0.54972148624E+02  0.54972148624E+02  0.00000000000E+00 0. -1.
          5    1    1    2  501    0 -0.88945682362E+00  0.13014157905E+01 -0.52831208508E+02  0.53063277405E+02  0.47000000000E+01 0. -1.
         -5    1    1    2    0  502  0.88945682362E+00 -0.13014157905E+01  0.10091636344E+01  0.50589749695E+01  0.47000000000E+01 0. -1.
<mgrwt>
<rscale>  2 0.49572993E+01</rscale>
<asrwt>0</asrwt>
<pdfrwt beam="1">  1       21 0.48463134E-03 0.49572993E+01</pdfrwt>
<pdfrwt beam="2">  1       21 0.84572537E-02 0.49572993E+01</pdfrwt>
<totfact> 0.33297177E+08</totfact>
</mgrwt>
</event>
<event>
 4    1  0.3964155E+006  0.5517587E+01  0.7546771E-02  0.2482785E+00
         21   -1    0    0  501  502  0.00000000000E+00  0.00000000000E+00  0.22874280748E+02  0.22874280748E+02  0.00000000000E+00 0. -1.
         21   -1    0    0  502  503 -0.00000000000E+00 -0.00000000000E+00 -0.13405252468E+01  0.13405252468E+01  0.00000000000E+00 0. -1.
          5    1    1    2  501    0  0.19787713668E+01  0.21067119446E+01  0.97418553146E+01  0.11195870503E+02  0.47000000000E+01 0. -1.
         -5    1    1    2    0  503 -0.19787713668E+01 -0.21067119446E+01  0.11791900187E+02  0.13018935492E+02  0.47000000000E+01 0. -1.
<mgrwt>
<rscale>  2 0.55175875E+01</rscale>
<asrwt>0</asrwt>
<pdfrwt beam="1">  1       21 0.35191198E-02 0.55175875E+01</pdfrwt>
<pdfrwt beam="2">  1       21 0.20623467E-03 0.55175875E+01</pdfrwt>
<totfact> 0.42862183E+09</totfact>
</mgrwt>
</event>
<event>
 4    1  0.3964155E+006  0.5122437E+01  0.7546771E-02  0.2545881E+00
         21   -1    0    0  503  502  0.00000000000E+00  0.00000000000E+00  0.64169020014E+03  0.64169020014E+03  0.00000000000E+00 0.  1.
         21   -1    0    0  501  503 -0.00000000000E+00 -0.00000000000E+00 -0.63629770697E-01  0.63629770697E-01  0.00000000000E+00 0.  1.
          5    1    1    2  501    0 -0.96719316410E+00  0.17927358478E+01  0.12899428199E+03  0.12909594940E+03  0.47000000000E+01 0.  1.
         -5    1    1    2    0  502  0.96719316410E+00 -0.17927358478E+01  0.51263228838E+03  0.51265788051E+03  0.47000000000E+01 0.  1.
<mgrwt>
<rscale>  2 0.51224374E+01</rscale>
<asrwt>0</asrwt>
<pdfrwt beam="1">  1       21 0.98716387E-01 0.51224374E+01</pdfrwt>
<pdfrwt beam="2">  1       21 0.97897094E-05 0.51224374E+01</pdfrwt>
<totfact> 0.99714629E+08</totfact>
</mgrwt>
</event>
<event>
 4    1  0.3964155E+006  0.5394956E+01  0.7546771E-02  0.2501522E+00
         21   -1    0    0  503  502  0.00000000000E+00  0.00000000000E+00  0.12851122149E+00  0.12851122149E+00  0.00000000000E+00 0. -1.
         21   -1    0    0  501  503 -0.00000000000E+00 -0.00000000000E+00 -0.42253783152E+03  0.42253783152E+03  0.00000000000E+00 0. -1.
          5    1    1    2  501    0 -0.25716253632E+01  0.63426846774E+00 -0.35515878258E+03  0.35519975563E+03  0.47000000000E+01 0. -1.
         -5    1    1    2    0  502  0.25716253632E+01 -0.63426846774E+00 -0.67250537712E+02  0.67466587109E+02  0.47000000000E+01 0. -1.
<mgrwt>
<rscale>  2 0.53949563E+01</rscale>
<asrwt>0</asrwt>
<pdfrwt beam="1">  1       21 0.19770992E-04 0.53949563E+01</pdfrwt>
<pdfrwt beam="2">  1       21 0.65005705E-01 0.53949563E+01</pdfrwt>
<totfact> 0.91396174E+08</totfact>
</mgrwt>
</event>
<event>
 4    1  0.3964155E+006  0.5559265E+01  0.7546771E-02  0.2476578E+00
         21   -1    0    0  501  502  0.00000000000E+00  0.00000000000E+00  0.10366135485E+01  0.10366135485E+01  0.00000000000E+00 0. -1.
         21   -1    0    0  502  503 -0.00000000000E+00 -0.00000000000E+00 -0.33999670233E+02  0.33999670233E+02  0.00000000000E+00 0.  1.
          5    1    1    2  501    0 -0.14413069403E+01  0.25957778767E+01 -0.10334834355E+02  0.11735170626E+02  0.47000000000E+01 0. -1.
         -5    1    1    2    0  503  0.14413069403E+01 -0.25957778767E+01 -0.22628222329E+02  0.23301113155E+02  0.47000000000E+01 0.  1.
<mgrwt>
<rscale>  2 0.55592651E+01</rscale>
<asrwt>0</asrwt>
<pdfrwt beam="1">  1       21 0.15947901E-03 0.55592651E+01</pdfrwt>
<pdfrwt beam="2">  1       21 0.52307184E-02 0.55592651E+01</pdfrwt>
<totfact> 0.34189357E+09</totfact>
</mgrwt>
</event>
<event>
 4    1  0.3964155E+006  0.5638870E+01  0.7546771E-02  0.2464937E+00
         21   -1    0    0  503  502  0.00000000000E+00  0.00000000000E+00  0.38039922508E-01  0.38039922508E-01  0.00000000000E+00 0. -1.
         21   -1    0    0  501  503 -0.00000000000E+00 -0.00000000000E+00 -0.10556592839E+04  0.10556592839E+04  0.00000000000E+00 0.  1.
          5    1    1    2  501    0  0.30411394884E+01  0.67699673458E+00 -0.76865681465E+03  0.76867749776E+03  0.47000000000E+01 0.  1.
         -5    1    1    2    0  502 -0.30411394884E+01 -0.67699673458E+00 -0.28696442930E+03  0.28701982603E+03  0.47000000000E+01 0. -1.
<mgrwt>
<rscale>  2 0.56388699E+01</rscale>
<asrwt>0</asrwt>
<pdfrwt beam="1">  1       21 0.58524382E-05 0.56388699E+01</pdfrwt>
<pdfrwt beam="2">  1       21 0.16240517E+00 0.56388699E+01</pdfrwt>
<totfact> 0.75289488E+08</totfact>
</mgrwt>
</event>
<event>
 4    1  0.3964155E+006  0.5084644E+01  0.7546771E-02  0.2552354E+00
         21   -1    0    0  501  502  0.00000000000E+00  0.00000000000E+00  0.90936475230E+01  0.90936475230E+01  0.00000000000E+00 0. -1.
         21   -1    0    0  502  503 -0.00000000000E+00 -0.00000000000E+00 -0.28750917560E+01  0.28750917560E+01  0.00000000000E+00 0. -1.
          5    1    1    2  501    0  0.18157272170E+01 -0.68318530842E+00  0.24774255252E+01  0.56560803323E+01  0.47000000000E+01 0.  1.
         -5    1    1    2    0  503 -0.18157272170E+01  0.68318530842E+00  0.37411302418E+01  0.63126589468E+01  0.47000000000E+01 0.  1.
<mgrwt>
<rscale>  2 0.50846443E+01</rscale>
<asrwt>0</asrwt>
<pdfrwt beam="1">  1       21 0.13990227E-02 0.50846443E+01</pdfrwt>
<pdfrwt beam="2">  1       21 0.44232181E-03 0.50846443E+01</pdfrwt>
<totfact> 0.52101177E+09</totfact>
</mgrwt>
</event>
<event>
 4    1  0.3964155E+006  0.6677885E+01  0.7546771E-02  0.2334747E+00
         21   -1    0    0  501  502  0.00000000000E+00  0.00000000000E+00  0.95906181730E+00  0.95906181730E+00  0.00000000000E+00 0.  1.
         21   -1    0    0  502  503 -0.00000000000E+00 -0.00000000000E+00 -0.11822853476E+03  0.11822853476E+03  0.00000000000E+00 0.  1.
          5    1    1    2  501    0  0.29342625477E+01  0.37274985788E+01 -0.12216040208E+02  0.13922132765E+02  0.47000000000E+01 0.  1.
         -5    1    1    2    0  503 -0.29342625477E+01 -0.37274985788E+01 -0.10505343274E+03  0.10526546381E+03  0.47000000000E+01 0.  1.
<mgrwt>
<rscale>  2 0.66778846E+01</rscale>
<asrwt>0</asrwt>
<pdfrwt beam="1">  1       21 0.14754810E-03 0.66778846E+01</pdfrwt>
<pdfrwt beam="2">  1       21 0.18188990E-01 0.66778846E+01</pdfrwt>
<totfact> 0.64802173E+08</totfact>
</mgrwt>
</event>
<event>
 4    1  0.3964155E+006  0.5228769E+01  0.7546771E-02  0.2528103E+00
         21   -1    0    0  501  502  0.00000000000E+00  0.00000000000E+00  0.44786103636E+02  0.44786103636E+02  0.00000000000E+00 0. -1.
         21   -1    0    0  502  503 -0.00000000000E+00 -0.00000000000E+00 -0.75687709338E+00  0.75687709338E+00  0.00000000000E+00 0. -1.
          5    1    1    2  501    0 -0.19695805605E+01  0.11708030152E+01  0.32030234576E+02  0.32454213198E+02  0.47000000000E+01 0. -1.
         -5    1    1    2    0  503  0.19695805605E+01 -0.11708030152E+01  0.11998991967E+02  0.13088767532E+02  0.47000000000E+01 0. -1.
<mgrwt>
<rscale>  2 0.52287692E+01</rscale>
<asrwt>0</asrwt>
<pdfrwt beam="1">  1       21 0.68901677E-02 0.52287692E+01</pdfrwt>
<pdfrwt beam="2">  1       21 0.11644266E-03 0.52287692E+01</pdfrwt>
<totfact> 0.32683309E+09</totfact>
</mgrwt>
</event>
<event>
 4    1  0.3964155E+006  0.5004545E+01  0.7546771E-02  0.2566348E+00
         21   -1    0    0  503  502  0.00000000000E+00  0.00000000000E+00  0.47039755599E+01  0.47039755599E+01  0.00000000000E+00 0. -1.
         21   -1    0    0  501  503 -0.00000000000E+00 -0.00000000000E+00 -0.57509949455E+02  0.57509949455E+02  0.00000000000E+00 0. -1.
          5    1    1    2  501    0 -0.63760383186E+00  0.15965365028E+01 -0.56035028853E+02  0.56258065431E+02  0.47000000000E+01 0. -1.
         -5    1    1    2    0  502  0.63760383186E+00 -0.15965365028E+01  0.32290549587E+01  0.59558595834E+01  0.47000000000E+01 0. -1.
<mgrwt>
<rscale>  2 0.50045447E+01</rscale>
<asrwt>0</asrwt>
<pdfrwt beam="1">  1       21 0.72368857E-03 0.50045447E+01</pdfrwt>
<pdfrwt beam="2">  1       21 0.88476842E-02 0.50045447E+01</pdfrwt>
<totfact> 0.18049326E+08</totfact>
</mgrwt>
</event>
<event>
 4    1  0.3964155E+006  0.5826830E+01  0.7546771E-02  0.2438522E+00
         21   -1    0    0  503  502  0.00000000000E+00  0.00000000000E+00  0.15407570904E+01  0.15407570904E+01  0.00000000000E+00 0. -1.
         21   -1    0    0  501  503 -0.00000000000E+00 -0.00000000000E+00 -0.14760866240E+03  0.14760866240E+03  0.00000000000E+00 0. -1.
          5    1    1    2  501    0  0.22605658425E+01 -0.25984202307E+01 -0.14181731471E+03  0.14193696734E+03  0.47000000000E+01 0. -1.
         -5    1    1    2    0  502 -0.22605658425E+01  0.25984202307E+01 -0.42505906033E+01  0.72124521559E+01  0.47000000000E+01 0. -1.
<mgrwt>
<rscale>  2 0.58268298E+01</rscale>
<asrwt>0</asrwt>
<pdfrwt beam="1">  1       21 0.23703954E-03 0.58268298E+01</pdfrwt>
<pdfrwt beam="2">  1       21 0.22709026E-01 0.58268298E+01</pdfrwt>
<totfact> 0.21552578E+08</totfact>
</mgrwt>
</event>
<event>
 4    1  0.3964155E+006  0.6852031E+01  0.7546771E-02  0.2316175E+00
         21   -1    0    0  503  502  0.00000000000E+00  0.00000000000E+00  0.78787397520E+01  0.78787397520E+01  0.00000000000E+00 0. -1.
         21   -1    0    0  501  503 -0.00000000000E+00 -0.00000000000E+00 -0.21159910888E+02  0.21159910888E+02  0.00000000000E+00 0. -1.
          5    1    1    2  501    0 -0.68683243607E+00 -0.49384804832E+01 -0.18946748502E+02  0.20147694833E+02  0.47000000000E+01 0. -1.
         -5    1    1    2    0  502  0.68683243607E+00  0.49384804832E+01  0.56655773659E+01  0.88909558073E+01  0.47000000000E+01 0. -1.
<mgrwt>
<rscale>  2 0.68520310E+01</rscale>
<asrwt>0</asrwt>
<pdfrwt beam="1">  1       21 0.12121138E-02 0.68520310E+01</pdfrwt>
<pdfrwt beam="2">  1       21 0.32553709E-02 0.68520310E+01</pdfrwt>
<totfact> 0.48841753E+08</totfact>
</mgrwt>
</event>
<event>
 4    1  0.3964155E+006  0.6188992E+01  0.7546771E-02  0.2391456E+00
         21   -1    0    0  503  502  0.00000000000E+00  0.00000000000E+00  0.14716976465E+03  0.14716976465E+03  0.00000000000E+00 0. -1.
         21   -1    0    0  501  503 -0.00000000000E+00 -0.00000000000E+00 -0.29423394498E+00  0.29423394498E+00  0.00000000000E+00 0. -1.
          5    1    1    2  501    0  0.28877109591E+01  0.28061979004E+01  0.48386498358E+02  0.48780701559E+02  0.47000000000E+01 0. -1.
         -5    1    1    2    0  502 -0.28877109591E+01 -0.28061979004E+01  0.98489032345E+02  0.98683297034E+02  0.47000000000E+01 0. -1.
<mgrwt>
<rscale>  2 0.61889919E+01</rscale>
<asrwt>0</asrwt>
<pdfrwt beam="1">  1       21 0.22641443E-01 0.61889919E+01</pdfrwt>
<pdfrwt beam="2">  1       21 0.45266878E-04 0.61889919E+01</pdfrwt>
<totfact> 0.21069860E+09</totfact>
</mgrwt>
</event>
<event>
 4    1  0.3964155E+006  0.5758123E+01  0.7546771E-02  0.2448009E+00
         21   -1    0    0  503  502  0.00000000000E+00  0.00000000000E+00  0.14390475785E+00  0.14390475785E+00  0.00000000000E+00 0. -1.
         21   -1    0    0  501  503 -0.00000000000E+00 -0.00000000000E+00 -0.75893658833E+03  0.75893658833E+03  0.00000000000E+00 0.  1.
          5    1    1    2  501    0 -0.17172326192E+01  0.28490503965E+01 -0.69612816845E+03  0.69615198260E+03  0.47000000000E+01 0.  1.
         -5    1    1    2    0  502  0.17172326192E+01 -0.28490503965E+01 -0.62664515121E+02  0.62928510481E+02  0.47000000000E+01 0. -1.
<mgrwt>
<rscale>  2 0.57581226E+01</rscale>
<asrwt>0</asrwt>
<pdfrwt beam="1">  1       21 0.22139190E-04 0.57581226E+01</pdfrwt>
<pdfrwt beam="2">  1       21 0.11675949E+00 0.57581226E+01</pdfrwt>
<totfact> 0.26066174E+08</totfact>
</mgrwt>
</event>
<event>
 4    1  0.3964155E+006  0.1303229E+02  0.7546771E-02  0.1934817E+00
         21   -1    0    0  503  502  0.00000000000E+00  0.00000000000E+00  0.11222627304E+02  0.11222627304E+02  0.00000000000E+00 0.  1.
         21   -1    0    0  501  503 -0.00000000000E+00 -0.00000000000E+00 -0.16650139928E+02  0.16650139928E+02  0.00000000000E+00 0. -1.
          5    1    1    2  501    0 -0.84655336683E+01 -0.87226867374E+01 -0.69195258205E+01  0.14755350277E+02  0.47000000000E+01 0. -1.
         -5    1    1    2    0  502  0.84655336683E+01  0.87226867374E+01  0.14920131971E+01  0.13117416956E+02  0.47000000000E+01 0.  1.
<mgrwt>
<rscale>  2 0.13032288E+02</rscale>
<asrwt>0</asrwt>
<pdfrwt beam="1">  1       21 0.17265580E-02 0.13032288E+02</pdfrwt>
<pdfrwt beam="2">  1       21 0.25615600E-02 0.13032288E+02</pdfrwt>
<totfact> 0.60501493E+08</totfact>
</mgrwt>
</event>
<event>
 4    1  0.3964155E+006  0.8877177E+01  0.7546771E-02  0.2145152E+00
         21   -1    0    0  503  502  0.00000000000E+00  0.00000000000E+00  0.35682081663E+02  0.35682081663E+02  0.00000000000E+00 0.  1.
         21   -1    0    0  501  503 -0.00000000000E+00 -0.00000000000E+00 -0.22434204924E+01  0.22434204924E+01  0.00000000000E+00 0. -1.
          5    1    1    2  501    0 -0.11177352410E+01  0.74474790856E+01  0.19084795764E+02  0.21048365878E+02  0.47000000000E+01 0. -1.
         -5    1    1    2    0  502  0.11177352410E+01 -0.74474790856E+01  0.14353865407E+02  0.16877136277E+02  0.47000000000E+01 0.  1.
<mgrwt>
<rscale>  2 0.88771773E+01</rscale>
<asrwt>0</asrwt>
<pdfrwt beam="1">  1       21 0.54895506E-02 0.88771773E+01</pdfrwt>
<pdfrwt beam="2">  1       21 0.34514164E-03 0.88771773E+01</pdfrwt>
<totfact> 0.15771315E+09</totfact>
</mgrwt>
</event>
<event>
 4    1  0.3964155E+006  0.5495115E+01  0.7546771E-02  0.2486166E+00
         21   -1    0    0  501  502  0.00000000000E+00  0.00000000000E+00  0.81058243989E+03  0.81058243989E+03  0.00000000000E+00 0.  1.
         21   -1    0    0  502  503 -0.00000000000E+00 -0.00000000000E+00 -0.20155973858E+00  0.20155973858E+00  0.00000000000E+00 0.  1.
          5    1    1    2  501    0 -0.15631000389E+01  0.23797076249E+01  0.77120766046E+03  0.77122723748E+03  0.47000000000E+01 0.  1.
         -5    1    1    2    0  503  0.15631000389E+01 -0.23797076249E+01  0.39173219694E+02  0.39556762144E+02  0.47000000000E+01 0.  1.
<mgrwt>
<rscale>  2 0.54951151E+01</rscale>
<asrwt>0</asrwt>
<pdfrwt beam="1">  1       21 0.12470238E+00 0.54951151E+01</pdfrwt>
<pdfrwt beam="2">  1       21 0.31009839E-04 0.54951151E+01</pdfrwt>
<totfact> 0.14085468E+08</totfact>
</mgrwt>
</event>
<event>
 4    1  0.3964155E+006  0.5120194E+01  0.7546771E-02  0.2546263E+00
         21   -1    0    0  503  502  0.00000000000E+00  0.00000000000E+00  0.23526298782E+01  0.23526298782E+01  0.00000000000E+00 0.  1.
         21   -1    0    0  501  503 -0.00000000000E+00 -0.00000000000E+00 -0.13757264996E+02  0.13757264996E+02  0.00000000000E+00 0.  1.
          5    1    1    2  501    0 -0.52205895279E-01  0.20306805516E+01 -0.92133508356E+01  0.10540503905E+02  0.47000000000E+01 0.  1.
         -5    1    1    2    0  502  0.52205895279E-01 -0.20306805516E+01 -0.21912842821E+01  0.55693909688E+01  0.47000000000E+01 0.  1.
<mgrwt>
<rscale>  2 0.51201942E+01</rscale>
<asrwt>0</asrwt>
<pdfrwt beam="1">  1       21 0.36194306E-03 0.51201942E+01</pdfrwt>
<pdfrwt beam="2">  1       21 0.21165023E-02 0.51201942E+01</pdfrwt>
<totfact> 0.38444818E+09</totfact>
</mgrwt>
</event>
<event>
 4    1  0.3964155E+006  0.4946102E+01  0.7546771E-02  0.2576805E+00
         21   -1    0    0  501  502  0.00000000000E+00  0.00000000000E+00  0.34174947442E+03  0.34174947442E+03  0.00000000000E+00 0.  1.
         21   -1    0    0  502  503 -0.00000000000E+00 -0.00000000000E+00 -0.10274278983E+00  0.10274278983E+00  0.00000000000E+00 0.  1.
          5    1    1    2  501    0 -0.13742400767E+00  0.15346140800E+01  0.26495169299E+03  0.26499785573E+03  0.47000000000E+01 0.  1.
         -5    1    1    2    0  503  0.13742400767E+00 -0.15346140800E+01  0.76695038647E+02  0.76854361482E+02  0.47000000000E+01 0.  1.
<mgrwt>
<rscale>  2 0.49461021E+01</rscale>
<asrwt>0</asrwt>
<pdfrwt beam="1">  1       21 0.52575932E-01 0.49461021E+01</pdfrwt>
<pdfrwt beam="2">  1       21 0.15806857E-04 0.49461021E+01</pdfrwt>
<totfact> 0.16862277E+09</totfact>
</mgrwt>
</event>
<event>
 4    1  0.3964155E+006  0.5613593E+01  0.7546771E-02  0.2468603E+00
         21   -1    0    0  503  502  0.00000000000E+00  0.00000000000E+00  0.42650707096E+03  0.42650707096E+03  0.00000000000E+00 0. -1.
         21   -1    0    0  501  503 -0.00000000000E+00 -0.00000000000E+00 -0.31368966769E+00  0.31368966769E+00  0.00000000000E+00 0. -1.
          5    1    1    2  501    0  0.26111417943E+01 -0.16138058736E+01  0.26504122397E+02  0.27092082513E+02  0.47000000000E+01 0. -1.
         -5    1    1    2    0  502 -0.26111417943E+01  0.16138058736E+01  0.39968925890E+03  0.39972867812E+03  0.47000000000E+01 0. -1.
<mgrwt>
<rscale>  2 0.56135934E+01</rscale>
<asrwt>0</asrwt>
<pdfrwt beam="1">  1       21 0.65616009E-01 0.56135934E+01</pdfrwt>
<pdfrwt beam="2">  1       21 0.48260290E-04 0.56135934E+01</pdfrwt>
<totfact> 0.28222343E+08</totfact>
</mgrwt>
</event>
<event>
 4    1  0.3964155E+006  0.1151701E+02  0.7546771E-02  0.1997712E+00
         21   -1    0    0  501  502  0.00000000000E+00  0.00000000000E+00  0.15544230516E+03  0.15544230516E+03  0.00000000000E+00 0.  1.
         21   -1    0    0  502  503 -0.00000000000E+00 -0.00000000000E+00 -0.87255619571E+00  0.87255619571E+00  0.00000000000E+00 0. -1.
          5    1    1    2  501    0  0.54851383403E+01  0.89702167567E+01  0.88890517900E+02  0.89633507707E+02  0.47000000000E+01 0.  1.
         -5    1    1    2    0  503 -0.54851383403E+01 -0.89702167567E+01  0.65679231067E+02  0.66681353652E+02  0.47000000000E+01 0.  1.
<mgrwt>
<rscale>  2 0.11517011E+02</rscale>
<asrwt>0</asrwt>
<pdfrwt beam="1">  1       21 0.23914179E-01 0.11517011E+02</pdfrwt>
<pdfrwt beam="2">  1       21 0.13423954E-03 0.11517011E+02</pdfrwt>
<totfact> 0.64277963E+08</totfact>
</mgrwt>
</event>
<event>
 4    1  0.3964155E+006  0.1377230E+02  0.7546771E-02  0.1908020E+00
         21   -1    0    0  503  502  0.00000000000E+00  0.00000000000E+00  0.26563198564E+02  0.26563198564E+02  0.00000000000E+00 0. -1.
         21   -1    0    0  501  503 -0.00000000000E+00 -0.00000000000E+00 -0.82871529516E+01  0.82871529516E+01  0.00000000000E+00 0.  1.
          5    1    1    2  501    0  0.59829604317E+01 -0.11480003137E+02  0.26564876601E+01  0.14026161779E+02  0.47000000000E+01 0.  1.
         -5    1    1    2    0  502 -0.59829604317E+01  0.11480003137E+02  0.15619557952E+02  0.20824189736E+02  0.47000000000E+01 0. -1.
<mgrwt>
<rscale>  2 0.13772301E+02</rscale>
<asrwt>0</asrwt>
<pdfrwt beam="1">  1       21 0.40866459E-02 0.13772301E+02</pdfrwt>
<pdfrwt beam="2">  1       21 0.12749466E-02 0.13772301E+02</pdfrwt>
<totfact> 0.47784129E+08</totfact>
</mgrwt>
</event>
<event>
 4    1  0.3964155E+006  0.5218437E+01  0.7546771E-02  0.2529803E+00
         21   -1    0    0  501  502  0.00000000000E+00  0.00000000000E+00  0.17912958989E+02  0.17912958989E+02  0.00000000000E+00 0.  1.
         21   -1    0    0  502  503 -0.00000000000E+00 -0.00000000000E+00 -0.23556741221E+01  0.23556741221E+01  0.00000000000E+00 0.  1.
          5    1    1    2  501    0 -0.22444193559E+01  0.32352113666E+00  0.13813842851E+02  0.14766663079E+02  0.47000000000E+01 0.  1.
         -5    1    1    2    0  503  0.22444193559E+01 -0.32352113666E+00  0.17434420157E+01  0.55019700320E+01  0.47000000000E+01 0.  1.
<mgrwt>
<rscale>  2 0.52184369E+01</rscale>
<asrwt>0</asrwt>
<pdfrwt beam="1">  1       21 0.27558398E-02 0.52184369E+01</pdfrwt>
<pdfrwt beam="2">  1       21 0.36241142E-03 0.52184369E+01</pdfrwt>
<totfact> 0.26827116E+09</totfact>
</mgrwt>
</event>
<event>
 4    1  0.3964155E+006  0.1037332E+02  0.7546771E-02  0.2054344E+00
         21   -1    0    0  503  502  0.00000000000E+00  0.00000000000E+00  0.13447604782E+03  0.13447604782E+03  0.00000000000E+00 0. -1.
         21   -1    0    0  501  503 -0.00000000000E+00 -0.00000000000E+00 -0.13106808895E+01  0.13106808895E+01  0.00000000000E+00 0. -1.
          5    1    1    2  501    0 -0.63906477463E+01 -0.66839634843E+01  0.24211082292E+02  0.26339746624E+02  0.47000000000E+01 0. -1.
         -5    1    1    2    0  502  0.63906477463E+01  0.66839634843E+01  0.10895428464E+03  0.10944698209E+03  0.47000000000E+01 0. -1.
<mgrwt>
<rscale>  2 0.10373319E+02</rscale>
<asrwt>0</asrwt>
<pdfrwt beam="1">  1       21 0.20688612E-01 0.10373319E+02</pdfrwt>
<pdfrwt beam="2">  1       21 0.20164332E-03 0.10373319E+02</pdfrwt>
<totfact> 0.44193228E+08</totfact>
</mgrwt>
</event>
<event>
 4    1  0.3964155E+006  0.1232450E+02  0.7546771E-02  0.1962715E+00
         21   -1    0    0  503  502  0.00000000000E+00  0.00000000000E+00  0.76679810217E+00  0.76679810217E+00  0.00000000000E+00 0. -1.
         21   -1    0    0  501  503 -0.00000000000E+00 -0.00000000000E+00 -0.20298589596E+03  0.20298589596E+03  0.00000000000E+00 0.  1.
          5    1    1    2  501    0 -0.10604944745E+02 -0.41639477079E+01 -0.11693500127E+03  0.11758268510E+03  0.47000000000E+01 0. -1.
         -5    1    1    2    0  502  0.10604944745E+02  0.41639477079E+01 -0.85284096594E+02  0.86170008967E+02  0.47000000000E+01 0.  1.
<mgrwt>
<rscale>  2 0.12324501E+02</rscale>
<asrwt>0</asrwt>
<pdfrwt beam="1">  1       21 0.11796880E-03 0.12324501E+02</pdfrwt>
<pdfrwt beam="2">  1       21 0.31228637E-01 0.12324501E+02</pdfrwt>
<totfact> 0.49884565E+08</totfact>
</mgrwt>
</event>
<event>
 4    1  0.3964155E+006  0.1602657E+02  0.7546771E-02  0.1838268E+00
         21   -1    0    0  503  502  0.00000000000E+00  0.00000000000E+00  0.57566376407E+00  0.57566376407E+00  0.00000000000E+00 0.  1.
         21   -1    0    0  501  503 -0.00000000000E+00 -0.00000000000E+00 -0.45566424566E+03  0.45566424566E+03  0.00000000000E+00 0. -1.
          5    1    1    2  501    0  0.15272293475E+01 -0.15245601684E+02 -0.26045193382E+03  0.26094455471E+03  0.47000000000E+01 0. -1.
         -5    1    1    2    0  502 -0.15272293475E+01  0.15245601684E+02 -0.19463664807E+03  0.19529535471E+03  0.47000000000E+01 0.  1.
<mgrwt>
<rscale>  2 0.16026565E+02</rscale>
<asrwt>0</asrwt>
<pdfrwt beam="1">  1       21 0.88563588E-04 0.16026565E+02</pdfrwt>
<pdfrwt beam="2">  1       21 0.70102246E-01 0.16026565E+02</pdfrwt>
<totfact> 0.17970320E+08</totfact>
</mgrwt>
</event>
<event>
 4    1  0.3964155E+006  0.9723199E+01  0.7546771E-02  0.2091092E+00
         21   -1    0    0  501  502  0.00000000000E+00  0.00000000000E+00  0.50629749116E-01  0.50629749116E-01  0.00000000000E+00 0.  1.
         21   -1    0    0  502  503 -0.00000000000E+00 -0.00000000000E+00 -0.21703216403E+04  0.21703216403E+04  0.00000000000E+00 0. -1.
          5    1    1    2  501    0  0.30300676675E+01  0.79541999999E+01 -0.67964230368E+03  0.67971185186E+03  0.47000000000E+01 0. -1.
         -5    1    1    2    0  503 -0.30300676675E+01 -0.79541999999E+01 -0.14906287068E+04  0.14906604182E+04  0.47000000000E+01 0.  1.
<mgrwt>
<rscale>  2 0.97231995E+01</rscale>
<asrwt>0</asrwt>
<pdfrwt beam="1">  1       21 0.77892145E-05 0.97231995E+01</pdfrwt>
<pdfrwt beam="2">  1       21 0.33389468E+00 0.97231995E+01</pdfrwt>
<totfact> 0.10701815E+08</totfact>
</mgrwt>
</event>
<event>
 4    1  0.3964155E+006  0.7988455E+01  0.7546771E-02  0.2211552E+00
         21   -1    0    0  501  502  0.00000000000E+00  0.00000000000E+00  0.12333481923E+03  0.12333481923E+03  0.00000000000E+00 0.  1.
         21   -1    0    0  502  503 -0.00000000000E+00 -0.00000000000E+00 -0.75514745420E+00  0.75514745420E+00  0.00000000000E+00 0. -1.
          5    1    1    2  501    0  0.61278223642E+01  0.20433324818E+01  0.96102244465E+02  0.96433691237E+02  0.47000000000E+01 0. -1.
         -5    1    1    2    0  503 -0.61278223642E+01 -0.20433324818E+01  0.26477427310E+02  0.27656275445E+02  0.47000000000E+01 0.  1.
<mgrwt>
<rscale>  2 0.79884551E+01</rscale>
<asrwt>0</asrwt>
<pdfrwt beam="1">  1       21 0.18974572E-01 0.79884551E+01</pdfrwt>
<pdfrwt beam="2">  1       21 0.11617663E-03 0.79884551E+01</pdfrwt>
<totfact> 0.94418284E+08</totfact>
</mgrwt>
</event>
<event>
 4    1  0.3964155E+006  0.7025922E+01  0.7546771E-02  0.2298388E+00
         21   -1    0    0  501  502  0.00000000000E+00  0.00000000000E+00  0.49898808714E+00  0.49898808714E+00  0.00000000000E+00 0.  1.
         21   -1    0    0  502  503 -0.00000000000E+00 -0.00000000000E+00 -0.14865290792E+03  0.14865290792E+03  0.00000000000E+00 0. -1.
          5    1    1    2  501    0  0.41553415545E+01  0.31633386155E+01 -0.30944734877E+02  0.31732320924E+02  0.47000000000E+01 0.  1.
         -5    1    1    2    0  503 -0.41553415545E+01 -0.31633386155E+01 -0.11720918496E+03  0.11741957509E+03  0.47000000000E+01 0. -1.
<mgrwt>
<rscale>  2 0.70259216E+01</rscale>
<asrwt>0</asrwt>
<pdfrwt beam="1">  1       21 0.76767401E-04 0.70259216E+01</pdfrwt>
<pdfrwt beam="2">  1       21 0.22869677E-01 0.70259216E+01</pdfrwt>
<totfact> 0.11191733E+09</totfact>
</mgrwt>
</event>
<event>
 4    1  0.3964155E+006  0.5520893E+01  0.7546771E-02  0.2482290E+00
         21   -1    0    0  501  502  0.00000000000E+00  0.00000000000E+00  0.22614437726E+03  0.22614437726E+03  0.00000000000E+00 0. -1.
         21   -1    0    0  502  503 -0.00000000000E+00 -0.00000000000E+00 -0.11689285450E+01  0.11689285450E+01  0.00000000000E+00 0.  1.
          5    1    1    2  501    0  0.26383014001E+00  0.28845551499E+01  0.21939120729E+03  0.21946066185E+03  0.47000000000E+01 0. -1.
         -5    1    1    2    0  503 -0.26383014001E+00 -0.28845551499E+01  0.55842414274E+01  0.78526439545E+01  0.47000000000E+01 0.  1.
<mgrwt>
<rscale>  2 0.55208935E+01</rscale>
<asrwt>0</asrwt>
<pdfrwt beam="1">  1       21 0.34791408E-01 0.55208935E+01</pdfrwt>
<pdfrwt beam="2">  1       21 0.17983534E-03 0.55208935E+01</pdfrwt>
<totfact> 0.14854433E+08</totfact>
</mgrwt>
</event>
<event>
 4    1  0.3964155E+006  0.1149366E+02  0.7546771E-02  0.1998780E+00
         21   -1    0    0  503  502  0.00000000000E+00  0.00000000000E+00  0.12280787226E+02  0.12280787226E+02  0.00000000000E+00 0. -1.
         21   -1    0    0  501  503 -0.00000000000E+00 -0.00000000000E+00 -0.16922797365E+02  0.16922797365E+02  0.00000000000E+00 0.  1.
          5    1    1    2  501    0  0.97051002279E+01 -0.39780941688E+01  0.64928388851E+01  0.13200801507E+02  0.47000000000E+01 0. -1.
         -5    1    1    2    0  502 -0.97051002279E+01  0.39780941688E+01 -0.11134849023E+02  0.16002783084E+02  0.47000000000E+01 0.  1.
<mgrwt>
<rscale>  2 0.11493659E+02</rscale>
<asrwt>0</asrwt>
<pdfrwt beam="1">  1       21 0.18893519E-02 0.11493659E+02</pdfrwt>
<pdfrwt beam="2">  1       21 0.26035073E-02 0.11493659E+02</pdfrwt>
<totfact> 0.48553362E+08</totfact>
</mgrwt>
</event>
<event>
 4    1  0.3964155E+006  0.6298292E+01  0.7546771E-02  0.2378145E+00
         21   -1    0    0  503  502  0.00000000000E+00  0.00000000000E+00  0.12454183311E+02  0.12454183311E+02  0.00000000000E+00 0.  1.
         21   -1    0    0  501  503 -0.00000000000E+00 -0.00000000000E+00 -0.49348715265E+02  0.49348715265E+02  0.00000000000E+00 0.  1.
          5    1    1    2  501    0  0.17924875563E+01  0.37901813337E+01 -0.48334834003E+02  0.48743457656E+02  0.47000000000E+01 0.  1.
         -5    1    1    2    0  502 -0.17924875563E+01 -0.37901813337E+01  0.11440302049E+02  0.13059440920E+02  0.47000000000E+01 0.  1.
<mgrwt>
<rscale>  2 0.62982923E+01</rscale>
<asrwt>0</asrwt>
<pdfrwt beam="1">  1       21 0.19160282E-02 0.62982923E+01</pdfrwt>
<pdfrwt beam="2">  1       21 0.75921099E-02 0.62982923E+01</pdfrwt>
<totfact> 0.67728913E+07</totfact>
</mgrwt>
</event>
<event>
 4    1  0.3964155E+006  0.5407646E+01  0.7546771E-02  0.2499550E+00
         21   -1    0    0  503  502  0.00000000000E+00  0.00000000000E+00  0.30454804920E+00  0.30454804920E+00  0.00000000000E+00 0.  1.
         21   -1    0    0  501  503 -0.00000000000E+00 -0.00000000000E+00 -0.97526693011E+02  0.97526693011E+02  0.00000000000E+00 0.  1.
          5    1    1    2  501    0 -0.18827034941E+01  0.18994911453E+01 -0.42530719580E+02  0.42873123831E+02  0.47000000000E+01 0.  1.
         -5    1    1    2    0  502  0.18827034941E+01 -0.18994911453E+01 -0.54691425382E+02  0.54958117229E+02  0.47000000000E+01 0.  1.
<mgrwt>
<rscale>  2 0.54076464E+01</rscale>
<asrwt>0</asrwt>
<pdfrwt beam="1">  1       21 0.46853537E-04 0.54076464E+01</pdfrwt>
<pdfrwt beam="2">  1       21 0.15004110E-01 0.54076464E+01</pdfrwt>
<totfact> 0.34652836E+09</totfact>
</mgrwt>
</event>
<event>
 4    1  0.3964155E+006  0.7329870E+01  0.7546771E-02  0.2268969E+00
         21   -1    0    0  503  502  0.00000000000E+00  0.00000000000E+00  0.41150180259E+03  0.41150180259E+03  0.00000000000E+00 0.  1.
         21   -1    0    0  501  503 -0.00000000000E+00 -0.00000000000E+00 -0.36952178152E+00  0.36952178152E+00  0.00000000000E+00 0. -1.
          5    1    1    2  501    0 -0.53888410471E+01  0.16116422714E+01  0.39961370916E+02  0.40628046521E+02  0.47000000000E+01 0. -1.
         -5    1    1    2    0  502  0.53888410471E+01 -0.16116422714E+01  0.37117090989E+03  0.37124327785E+03  0.47000000000E+01 0.  1.
<mgrwt>
<rscale>  2 0.73298703E+01</rscale>
<asrwt>0</asrwt>
<pdfrwt beam="1">  1       21 0.63307603E-01 0.73298703E+01</pdfrwt>
<pdfrwt beam="2">  1       21 0.56849834E-04 0.73298703E+01</pdfrwt>
<totfact> 0.28666594E+08</totfact>
</mgrwt>
</event>
<event>
 4    1  0.3964155E+006  0.1039584E+02  0.7546771E-02  0.2053136E+00
         21   -1    0    0  501  502  0.00000000000E+00  0.00000000000E+00  0.18912095857E+03  0.18912095857E+03  0.00000000000E+00 0. -1.
         21   -1    0    0  502  503 -0.00000000000E+00 -0.00000000000E+00 -0.58515144587E+00  0.58515144587E+00  0.00000000000E+00 0.  1.
          5    1    1    2  501    0  0.92179011735E+01  0.10068502557E+01  0.79754238114E+02  0.80428924814E+02  0.47000000000E+01 0.  1.
         -5    1    1    2    0  503 -0.92179011735E+01 -0.10068502557E+01  0.10878156901E+03  0.10927718520E+03  0.47000000000E+01 0. -1.
<mgrwt>
<rscale>  2 0.10395838E+02</rscale>
<asrwt>0</asrwt>
<pdfrwt beam="1">  1       21 0.29095483E-01 0.10395838E+02</pdfrwt>
<pdfrwt beam="2">  1       21 0.90023451E-04 0.10395838E+02</pdfrwt>
<totfact> 0.75711220E+08</totfact>
</mgrwt>
</event>
<event>
 4    1  0.3964155E+006  0.8775499E+01  0.7546771E-02  0.2152201E+00
         21   -1    0    0  501  502  0.00000000000E+00  0.00000000000E+00  0.38569417576E+02  0.38569417576E+02  0.00000000000E+00 0.  1.
         21   -1    0    0  502  503 -0.00000000000E+00 -0.00000000000E+00 -0.37627682758E+01  0.37627682758E+01  0.00000000000E+00 0. -1.
          5    1    1    2  501    0 -0.62481848008E+01  0.39849174609E+01  0.31904314271E+02  0.33089192338E+02  0.47000000000E+01 0.  1.
         -5    1    1    2    0  503  0.62481848008E+01 -0.39849174609E+01  0.29023350290E+01  0.92429935138E+01  0.47000000000E+01 0. -1.
<mgrwt>
<rscale>  2 0.87754989E+01</rscale>
<asrwt>0</asrwt>
<pdfrwt beam="1">  1       21 0.59337563E-02 0.87754989E+01</pdfrwt>
<pdfrwt beam="2">  1       21 0.57888745E-03 0.87754989E+01</pdfrwt>
<totfact> 0.66879146E+08</totfact>
</mgrwt>
</event>
<event>
 4    1  0.3964155E+006  0.5225233E+01  0.7546771E-02  0.2528685E+00
         21   -1    0    0  501  502  0.00000000000E+00  0.00000000000E+00  0.19295711985E+01  0.19295711985E+01  0.00000000000E+00 0. -1.
         21   -1    0    0  502  503 -0.00000000000E+00 -0.00000000000E+00 -0.16124308268E+02  0.16124308268E+02  0.00000000000E+00 0. -1.
          5    1    1    2  501    0 -0.20005578718E+01 -0.11003740059E+01 -0.39385185078E+01  0.65433158863E+01  0.47000000000E+01 0. -1.
         -5    1    1    2    0  503  0.20005578718E+01  0.11003740059E+01 -0.10256218562E+02  0.11510563580E+02  0.47000000000E+01 0. -1.
<mgrwt>
<rscale>  2 0.52252325E+01</rscale>
<asrwt>0</asrwt>
<pdfrwt beam="1">  1       21 0.29685711E-03 0.52252325E+01</pdfrwt>
<pdfrwt beam="2">  1       21 0.24806628E-02 0.52252325E+01</pdfrwt>
<totfact> 0.41007816E+09</totfact>
</mgrwt>
</event>
<event>
 4    1  0.3964155E+006  0.5031695E+01  0.7546771E-02  0.2561562E+00
         21   -1    0    0  501  502  0.00000000000E+00  0.00000000000E+00  0.39254868903E+01  0.39254868903E+01  0.00000000000E+00 0.  1.
         21   -1    0    0  502  503 -0.00000000000E+00 -0.00000000000E+00 -0.23408926911E+02  0.23408926911E+02  0.00000000000E+00 0.  1.
          5    1    1    2  501    0  0.13113677499E+01  0.12281147333E+01  0.18913112477E+01  0.53754078366E+01  0.47000000000E+01 0.  1.
         -5    1    1    2    0  503 -0.13113677499E+01 -0.12281147333E+01 -0.21374751268E+02  0.21959005964E+02  0.47000000000E+01 0.  1.
<mgrwt>
<rscale>  2 0.50316947E+01</rscale>
<asrwt>0</asrwt>
<pdfrwt beam="1">  1       21 0.60392105E-03 0.50316947E+01</pdfrwt>
<pdfrwt beam="2">  1       21 0.36013734E-02 0.50316947E+01</pdfrwt>
<totfact> 0.87366779E+08</totfact>
</mgrwt>
</event>
<event>
 4    1  0.3964155E+006  0.5479422E+01  0.7546771E-02  0.2488540E+00
         21   -1    0    0  501  502  0.00000000000E+00  0.00000000000E+00  0.76215464908E+01  0.76215464908E+01  0.00000000000E+00 0.  1.
         21   -1    0    0  502  503 -0.00000000000E+00 -0.00000000000E+00 -0.12343352300E+02  0.12343352300E+02  0.00000000000E+00 0.  1.
          5    1    1    2  501    0  0.83016027706E-01  0.28155246429E+01  0.58759856576E+01  0.80343810044E+01  0.47000000000E+01 0.  1.
         -5    1    1    2    0  503 -0.83016027706E-01 -0.28155246429E+01 -0.10597791467E+02  0.11930517787E+02  0.47000000000E+01 0.  1.
<mgrwt>
<rscale>  2 0.54794225E+01</rscale>
<asrwt>0</asrwt>
<pdfrwt beam="1">  1       21 0.11725456E-02 0.54794225E+01</pdfrwt>
<pdfrwt beam="2">  1       21 0.18989773E-02 0.54794225E+01</pdfrwt>
<totfact> 0.93819809E+08</totfact>
</mgrwt>
</event>
<event>
 4    1  0.3964155E+006  0.5745977E+01  0.7546771E-02  0.2449706E+00
         21   -1    0    0  503  502  0.00000000000E+00  0.00000000000E+00  0.81020680157E+02  0.81020680157E+02  0.00000000000E+00 0.  1.
         21   -1    0    0  501  503 -0.00000000000E+00 -0.00000000000E+00 -0.10120485239E+01  0.10120485239E+01  0.00000000000E+00 0.  1.
          5    1    1    2  501    0 -0.89223158353E+00  0.31827932222E+01  0.83034848738E+01  0.10097728009E+02  0.47000000000E+01 0.  1.
         -5    1    1    2    0  502  0.89223158353E+00 -0.31827932222E+01  0.71705146759E+02  0.71935000672E+02  0.47000000000E+01 0.  1.
<mgrwt>
<rscale>  2 0.57459768E+01</rscale>
<asrwt>0</asrwt>
<pdfrwt beam="1">  1       21 0.12464715E-01 0.57459768E+01</pdfrwt>
<pdfrwt beam="2">  1       21 0.15569984E-03 0.57459768E+01</pdfrwt>
<totfact> 0.97826455E+08</totfact>
</mgrwt>
</event>
<event>
 4    1  0.3964155E+006  0.6871383E+01  0.7546771E-02  0.2314159E+00
         21   -1    0    0  503  502  0.00000000000E+00  0.00000000000E+00  0.11601649201E+03  0.11601649201E+03  0.00000000000E+00 0.  1.
         21   -1    0    0  501  503 -0.00000000000E+00 -0.00000000000E+00 -0.13415374919E+01  0.13415374919E+01  0.00000000000E+00 0. -1.
          5    1    1    2  501    0 -0.44933567165E+01  0.22216328696E+01  0.83612431168E+01  0.10822490178E+02  0.47000000000E+01 0. -1.
         -5    1    1    2    0  502  0.44933567165E+01 -0.22216328696E+01  0.10631371140E+03  0.10653553932E+03  0.47000000000E+01 0.  1.
<mgrwt>
<rscale>  2 0.68713832E+01</rscale>
<asrwt>0</asrwt>
<pdfrwt beam="1">  1       21 0.17848683E-01 0.68713832E+01</pdfrwt>
<pdfrwt beam="2">  1       21 0.20639047E-03 0.68713832E+01</pdfrwt>
<totfact> 0.43050351E+08</totfact>
</mgrwt>
</event>
<event>
 4    1  0.3964155E+006  0.1120658E+02  0.7546771E-02  0.2012192E+00
         21   -1    0    0  503  502  0.00000000000E+00  0.00000000000E+00  0.27751179098E+03  0.27751179098E+03  0.00000000000E+00 0.  1.
         21   -1    0    0  501  503 -0.00000000000E+00 -0.00000000000E+00 -0.31865792185E+01  0.31865792185E+01  0.00000000000E+00 0. -1.
          5    1    1    2  501    0  0.90751737928E+01  0.45976815624E+01  0.71608386338E+01  0.13299062563E+02  0.47000000000E+01 0. -1.
         -5    1    1    2    0  502 -0.90751737928E+01 -0.45976815624E+01  0.26716437313E+03  0.26739930764E+03  0.47000000000E+01 0.  1.
<mgrwt>
<rscale>  2 0.11206581E+02</rscale>
<asrwt>0</asrwt>
<pdfrwt beam="1">  1       21 0.42694103E-01 0.11206581E+02</pdfrwt>
<pdfrwt beam="2">  1       21 0.49024318E-03 0.11206581E+02</pdfrwt>
<totfact> 0.36469051E+07</totfact>
</mgrwt>
</event>
<event>
 4    1  0.3964155E+006  0.7341499E+01  0.7546771E-02  0.2267883E+00
         21   -1    0    0  501  502  0.00000000000E+00  0.00000000000E+00  0.37519767841E+01  0.37519767841E+01  0.00000000000E+00 0. -1.
         21   -1    0    0  502  503 -0.00000000000E+00 -0.00000000000E+00 -0.18904642206E+02  0.18904642206E+02  0.00000000000E+00 0. -1.
          5    1    1    2  501    0  0.55944396799E+01  0.71404217703E+00 -0.20251469818E+01  0.76156964133E+01  0.47000000000E+01 0. -1.
         -5    1    1    2    0  503 -0.55944396799E+01 -0.71404217703E+00 -0.13127518440E+02  0.15040922577E+02  0.47000000000E+01 0. -1.
<mgrwt>
<rscale>  2 0.73414993E+01</rscale>
<asrwt>0</asrwt>
<pdfrwt beam="1">  1       21 0.57722720E-03 0.73414993E+01</pdfrwt>
<pdfrwt beam="2">  1       21 0.29084065E-02 0.73414993E+01</pdfrwt>
<totfact> 0.17363288E+09</totfact>
</mgrwt>
</event>
<event>
 4    1  0.3964155E+006  0.5862429E+01  0.7546771E-02  0.2433680E+00
         21   -1    0    0  501  502  0.00000000000E+00  0.00000000000E+00  0.10332284196E+03  0.10332284196E+03  0.00000000000E+00 0.  1.
         21   -1    0    0  502  503 -0.00000000000E+00 -0.00000000000E+00 -0.11120627117E+01  0.11120627117E+01  0.00000000000E+00 0. -1.
          5    1    1    2  501    0  0.29641329400E+01 -0.18686866281E+01  0.94821438371E+02  0.95002490749E+02  0.47000000000E+01 0.  1.
         -5    1    1    2    0  503 -0.29641329400E+01  0.18686866281E+01  0.73893408759E+01  0.94324139211E+01  0.47000000000E+01 0. -1.
<mgrwt>
<rscale>  2 0.58624290E+01</rscale>
<asrwt>0</asrwt>
<pdfrwt beam="1">  1       21 0.15895814E-01 0.58624290E+01</pdfrwt>
<pdfrwt beam="2">  1       21 0.17108665E-03 0.58624290E+01</pdfrwt>
<totfact> 0.59776563E+08</totfact>
</mgrwt>
</event>
<event>
 4    1  0.3964155E+006  0.5142382E+01  0.7546771E-02  0.2542499E+00
         21   -1    0    0  503  502  0.00000000000E+00  0.00000000000E+00  0.13289053006E+02  0.13289053006E+02  0.00000000000E+00 0.  1.
         21   -1    0    0  501  503 -0.00000000000E+00 -0.00000000000E+00 -0.24755871638E+02  0.24755871638E+02  0.00000000000E+00 0.  1.
          5    1    1    2  501    0 -0.17656041211E+00 -0.20791628700E+01 -0.23975330265E+02  0.24520614861E+02  0.47000000000E+01 0.  1.
         -5    1    1    2    0  502  0.17656041211E+00  0.20791628700E+01  0.12508511633E+02  0.13524309783E+02  0.47000000000E+01 0.  1.
<mgrwt>
<rscale>  2 0.51423819E+01</rscale>
<asrwt>0</asrwt>
<pdfrwt beam="1">  1       21 0.20444697E-02 0.51423819E+01</pdfrwt>
<pdfrwt beam="2">  1       21 0.38085956E-02 0.51423819E+01</pdfrwt>
<totfact> 0.14894046E+08</totfact>
</mgrwt>
</event>
<event>
 4    1  0.3964155E+006  0.8568119E+01  0.7546771E-02  0.2166990E+00
         21   -1    0    0  501  502  0.00000000000E+00  0.00000000000E+00  0.15760882487E+01  0.15760882487E+01  0.00000000000E+00 0. -1.
         21   -1    0    0  502  503 -0.00000000000E+00 -0.00000000000E+00 -0.61424829432E+02  0.61424829432E+02  0.00000000000E+00 0. -1.
          5    1    1    2  501    0  0.62272024712E+01  0.35418364532E+01 -0.14438103405E+02  0.16789028739E+02  0.47000000000E+01 0. -1.
         -5    1    1    2    0  503 -0.62272024712E+01 -0.35418364532E+01 -0.45410637779E+02  0.46211888942E+02  0.47000000000E+01 0. -1.
<mgrwt>
<rscale>  2 0.85681186E+01</rscale>
<asrwt>0</asrwt>
<pdfrwt beam="1">  1       21 0.24247514E-03 0.85681186E+01</pdfrwt>
<pdfrwt beam="2">  1       21 0.94499728E-02 0.85681186E+01</pdfrwt>
<totfact> 0.10914153E+09</totfact>
</mgrwt>
</event>
<event>
 4    1  0.3964155E+006  0.6622539E+01  0.7546771E-02  0.2340818E+00
         21   -1    0    0  501  502  0.00000000000E+00  0.00000000000E+00  0.15099153694E+00  0.15099153694E+00  0.00000000000E+00 0.  1.
         21   -1    0    0  502  503 -0.00000000000E+00 -0.00000000000E+00 -0.29891181306E+03  0.29891181306E+03  0.00000000000E+00 0.  1.
          5    1    1    2  501    0 -0.37058377431E+01  0.28345699623E+01 -0.17451445904E+03  0.17464007111E+03  0.47000000000E+01 0.  1.
         -5    1    1    2    0  503  0.37058377431E+01 -0.28345699623E+01 -0.12424636248E+03  0.12442273349E+03  0.47000000000E+01 0.  1.
<mgrwt>
<rscale>  2 0.66225388E+01</rscale>
<asrwt>0</asrwt>
<pdfrwt beam="1">  1       21 0.23229525E-04 0.66225388E+01</pdfrwt>
<pdfrwt beam="2">  1       21 0.45986318E-01 0.66225388E+01</pdfrwt>
<totfact> 0.16129261E+09</totfact>
</mgrwt>
</event>
<event>
 4    1  0.3964155E+006  0.6331454E+01  0.7546771E-02  0.2374182E+00
         21   -1    0    0  501  502  0.00000000000E+00  0.00000000000E+00  0.93545513054E+01  0.93545513054E+01  0.00000000000E+00 0.  1.
         21   -1    0    0  502  503 -0.00000000000E+00 -0.00000000000E+00 -0.72731486435E+01  0.72731486435E+01  0.00000000000E+00 0.  1.
          5    1    1    2  501    0  0.32240004638E+01 -0.27573782642E+01  0.63693644627E+01  0.89808750988E+01  0.47000000000E+01 0.  1.
         -5    1    1    2    0  503 -0.32240004638E+01  0.27573782642E+01 -0.42879618008E+01  0.76468248500E+01  0.47000000000E+01 0.  1.
<mgrwt>
<rscale>  2 0.63314543E+01</rscale>
<asrwt>0</asrwt>
<pdfrwt beam="1">  1       21 0.14391617E-02 0.63314543E+01</pdfrwt>
<pdfrwt beam="2">  1       21 0.11189459E-02 0.63314543E+01</pdfrwt>
<totfact> 0.16817054E+09</totfact>
</mgrwt>
</event>
<event>
 4    1  0.3964155E+006  0.6266003E+01  0.7546771E-02  0.2382037E+00
         21   -1    0    0  503  502  0.00000000000E+00  0.00000000000E+00  0.53344764337E+02  0.53344764337E+02  0.00000000000E+00 0.  1.
         21   -1    0    0  501  503 -0.00000000000E+00 -0.00000000000E+00 -0.10219634623E+01  0.10219634623E+01  0.00000000000E+00 0.  1.
          5    1    1    2  501    0 -0.41203982256E+01  0.44171976634E+00  0.11782495195E+02  0.13345036190E+02  0.47000000000E+01 0.  1.
         -5    1    1    2    0  502  0.41203982256E+01 -0.44171976634E+00  0.40540305680E+02  0.41021691610E+02  0.47000000000E+01 0.  1.
<mgrwt>
<rscale>  2 0.62660033E+01</rscale>
<asrwt>0</asrwt>
<pdfrwt beam="1">  1       21 0.82068847E-02 0.62660033E+01</pdfrwt>
<pdfrwt beam="2">  1       21 0.15722519E-03 0.62660033E+01</pdfrwt>
<totfact> 0.19685161E+09</totfact>
</mgrwt>
</event>
<event>
 4    1  0.3964155E+006  0.5182893E+01  0.7546771E-02  0.2535697E+00
         21   -1    0    0  501  502  0.00000000000E+00  0.00000000000E+00  0.40158816918E+02  0.40158816918E+02  0.00000000000E+00 0.  1.
         21   -1    0    0  502  503 -0.00000000000E+00 -0.00000000000E+00 -0.22007458418E+01  0.22007458418E+01  0.00000000000E+00 0.  1.
          5    1    1    2  501    0 -0.15279782814E+01  0.15613022402E+01  0.36649319579E+02  0.37013983951E+02  0.47000000000E+01 0.  1.
         -5    1    1    2    0  503  0.15279782814E+01 -0.15613022402E+01  0.13087514964E+01  0.53455788080E+01  0.47000000000E+01 0.  1.
<mgrwt>
<rscale>  2 0.51828932E+01</rscale>
<asrwt>0</asrwt>
<pdfrwt beam="1">  1       21 0.61782790E-02 0.51828932E+01</pdfrwt>
<pdfrwt beam="2">  1       21 0.33857631E-03 0.51828932E+01</pdfrwt>
<totfact> 0.90275870E+08</totfact>
</mgrwt>
</event>
<event>
 4    1  0.3964155E+006  0.7372548E+01  0.7546771E-02  0.2264997E+00
         21   -1    0    0  501  502  0.00000000000E+00  0.00000000000E+00  0.42702248398E+02  0.42702248398E+02  0.00000000000E+00 0.  1.
         21   -1    0    0  502  503 -0.00000000000E+00 -0.00000000000E+00 -0.27018940980E+01  0.27018940980E+01  0.00000000000E+00 0. -1.
          5    1    1    2  501    0 -0.62410368822E-01 -0.56798390458E+01  0.36510322587E+02  0.37247256570E+02  0.47000000000E+01 0.  1.
         -5    1    1    2    0  503  0.62410368822E-01  0.56798390458E+01  0.34900317130E+01  0.81568859253E+01  0.47000000000E+01 0. -1.
<mgrwt>
<rscale>  2 0.73725482E+01</rscale>
<asrwt>0</asrwt>
<pdfrwt beam="1">  1       21 0.65695762E-02 0.73725482E+01</pdfrwt>
<pdfrwt beam="2">  1       21 0.41567604E-03 0.73725482E+01</pdfrwt>
<totfact> 0.81662972E+08</totfact>
</mgrwt>
</event>
<event>
 4    1  0.3964155E+006  0.6368166E+01  0.7546771E-02  0.2369835E+00
         21   -1    0    0  501  502  0.00000000000E+00  0.00000000000E+00  0.13234075274E+02  0.13234075274E+02  0.00000000000E+00 0. -1.
         21   -1    0    0  502  503 -0.00000000000E+00 -0.00000000000E+00 -0.35950201475E+02  0.35950201475E+02  0.00000000000E+00 0.  1.
          5    1    1    2  501    0  0.22865087446E+01  0.36380510812E+01  0.12162641362E+02  0.13728925042E+02  0.47000000000E+01 0. -1.
         -5    1    1    2    0  503 -0.22865087446E+01 -0.36380510812E+01 -0.34878767564E+02  0.35455351707E+02  0.47000000000E+01 0.  1.
<mgrwt>
<rscale>  2 0.63681660E+01</rscale>
<asrwt>0</asrwt>
<pdfrwt beam="1">  1       21 0.20360116E-02 0.63681660E+01</pdfrwt>
<pdfrwt beam="2">  1       21 0.55308001E-02 0.63681660E+01</pdfrwt>
<totfact> 0.10068650E+08</totfact>
</mgrwt>
</event>
<event>
 4    1  0.3964155E+006  0.7779928E+01  0.7546771E-02  0.2228879E+00
         21   -1    0    0  503  502  0.00000000000E+00  0.00000000000E+00  0.39431042407E+02  0.39431042407E+02  0.00000000000E+00 0.  1.
         21   -1    0    0  501  503 -0.00000000000E+00 -0.00000000000E+00 -0.16529566204E+01  0.16529566204E+01  0.00000000000E+00 0.  1.
          5    1    1    2  501    0 -0.27448330795E+01 -0.55590621321E+01  0.13401932257E+02  0.15496421156E+02  0.47000000000E+01 0.  1.
         -5    1    1    2    0  502  0.27448330795E+01  0.55590621321E+01  0.24376153529E+02  0.25587577871E+02  0.47000000000E+01 0.  1.
<mgrwt>
<rscale>  2 0.77799280E+01</rscale>
<asrwt>0</asrwt>
<pdfrwt beam="1">  1       21 0.60663135E-02 0.77799280E+01</pdfrwt>
<pdfrwt beam="2">  1       21 0.25430105E-03 0.77799280E+01</pdfrwt>
<totfact> 0.18993575E+09</totfact>
</mgrwt>
</event>
<event>
 4    1  0.3964155E+006  0.6725897E+01  0.7546771E-02  0.2329548E+00
         21   -1    0    0  503  502  0.00000000000E+00  0.00000000000E+00  0.18495805440E+02  0.18495805440E+02  0.00000000000E+00 0. -1.
         21   -1    0    0  501  503 -0.00000000000E+00 -0.00000000000E+00 -0.42842897860E+01  0.42842897860E+01  0.00000000000E+00 0. -1.
          5    1    1    2  501    0  0.37310281225E+01  0.30376165082E+01 -0.35550981430E+00  0.67352856012E+01  0.47000000000E+01 0. -1.
         -5    1    1    2    0  502 -0.37310281225E+01 -0.30376165082E+01  0.14567025468E+02  0.16044809625E+02  0.47000000000E+01 0. -1.
<mgrwt>
<rscale>  2 0.67258966E+01</rscale>
<asrwt>0</asrwt>
<pdfrwt beam="1">  1       21 0.28455085E-02 0.67258966E+01</pdfrwt>
<pdfrwt beam="2">  1       21 0.65912152E-03 0.67258966E+01</pdfrwt>
<totfact> 0.13924939E+09</totfact>
</mgrwt>
</event>
<event>
 4    1  0.3964155E+006  0.6217843E+01  0.7546771E-02  0.2387905E+00
         21   -1    0    0  503  502  0.00000000000E+00  0.00000000000E+00  0.65310374969E+01  0.65310374969E+01  0.00000000000E+00 0.  1.
         21   -1    0    0  501  503 -0.00000000000E+00 -0.00000000000E+00 -0.65931861902E+01  0.65931861902E+01  0.00000000000E+00 0. -1.
          5    1    1    2  501    0  0.20817459595E+01 -0.34982716022E+01  0.20662750355E+01  0.65521800162E+01  0.47000000000E+01 0.  1.
         -5    1    1    2    0  502 -0.20817459595E+01  0.34982716022E+01 -0.21284237289E+01  0.65720436709E+01  0.47000000000E+01 0. -1.
<mgrwt>
<rscale>  2 0.62178429E+01</rscale>
<asrwt>0</asrwt>
<pdfrwt beam="1">  1       21 0.10047750E-02 0.62178429E+01</pdfrwt>
<pdfrwt beam="2">  1       21 0.10143363E-02 0.62178429E+01</pdfrwt>
<totfact> 0.31711859E+09</totfact>
</mgrwt>
</event>
<event>
 4    1  0.3964155E+006  0.5907583E+01  0.7546771E-02  0.2427609E+00
         21   -1    0    0  501  502  0.00000000000E+00  0.00000000000E+00  0.95617377774E+02  0.95617377774E+02  0.00000000000E+00 0.  1.
         21   -1    0    0  502  503 -0.00000000000E+00 -0.00000000000E+00 -0.64505275339E+00  0.64505275339E+00  0.00000000000E+00 0.  1.
          5    1    1    2  501    0 -0.27948084556E+01 -0.22357521775E+01  0.79200498849E+02  0.79420517248E+02  0.47000000000E+01 0.  1.
         -5    1    1    2    0  503  0.27948084556E+01  0.22357521775E+01  0.15771826172E+02  0.16841913279E+02  0.47000000000E+01 0.  1.
<mgrwt>
<rscale>  2 0.59075834E+01</rscale>
<asrwt>0</asrwt>
<pdfrwt beam="1">  1       21 0.14710355E-01 0.59075834E+01</pdfrwt>
<pdfrwt beam="2">  1       21 0.99238961E-04 0.59075834E+01</pdfrwt>
<totfact> 0.14162422E+09</totfact>
</mgrwt>
</event>
<event>
 4    1  0.3964155E+006  0.6273201E+01  0.7546771E-02  0.2381167E+00
         21   -1    0    0  503  502  0.00000000000E+00  0.00000000000E+00  0.36056073667E+01  0.36056073667E+01  0.00000000000E+00 0. -1.
         21   -1    0    0  501  503 -0.00000000000E+00 -0.00000000000E+00 -0.12990653638E+02  0.12990653638E+02  0.00000000000E+00 0. -1.
          5    1    1    2  501    0  0.23603126119E+00  0.41481726459E+01 -0.80099762027E+01  0.10174122361E+02  0.47000000000E+01 0. -1.
         -5    1    1    2    0  502 -0.23603126119E+00 -0.41481726459E+01 -0.13750700681E+01  0.64221386429E+01  0.47000000000E+01 0. -1.
<mgrwt>
<rscale>  2 0.62732007E+01</rscale>
<asrwt>0</asrwt>
<pdfrwt beam="1">  1       21 0.55470882E-03 0.62732007E+01</pdfrwt>
<pdfrwt beam="2">  1       21 0.19985621E-02 0.62732007E+01</pdfrwt>
<totfact> 0.27974390E+09</totfact>
</mgrwt>
</event>
<event>
 4    1  0.3964155E+006  0.6024075E+01  0.7546771E-02  0.2412301E+00
         21   -1    0    0  503  502  0.00000000000E+00  0.00000000000E+00  0.30053562878E+01  0.30053562878E+01  0.00000000000E+00 0. -1.
         21   -1    0    0  501  503 -0.00000000000E+00 -0.00000000000E+00 -0.37895599599E+03  0.37895599599E+03  0.00000000000E+00 0. -1.
          5    1    1    2  501    0 -0.37423733958E+01 -0.44058515194E+00 -0.37588869076E+03  0.37593695923E+03  0.47000000000E+01 0. -1.
         -5    1    1    2    0  502  0.37423733958E+01  0.44058515194E+00 -0.61948941187E-01  0.60243930467E+01  0.47000000000E+01 0. -1.
<mgrwt>
<rscale>  2 0.60240745E+01</rscale>
<asrwt>0</asrwt>
<pdfrwt beam="1">  1       21 0.46236259E-03 0.60240745E+01</pdfrwt>
<pdfrwt beam="2">  1       21 0.58300912E-01 0.60240745E+01</pdfrwt>
<totfact> 0.17210795E+07</totfact>
</mgrwt>
</event>
<event>
 4    1  0.3964155E+006  0.5280410E+01  0.7546771E-02  0.2519691E+00
         21   -1    0    0  501  502  0.00000000000E+00  0.00000000000E+00  0.14564238229E+02  0.14564238229E+02  0.00000000000E+00 0.  1.
         21   -1    0    0  502  503 -0.00000000000E+00 -0.00000000000E+00 -0.67646973359E+01  0.67646973359E+01  0.00000000000E+00 0. -1.
          5    1    1    2  501    0  0.23155916043E+01  0.65632430413E+00  0.12929947539E+02  0.13966612669E+02  0.47000000000E+01 0.  1.
         -5    1    1    2    0  503 -0.23155916043E+01 -0.65632430413E+00 -0.51304066462E+01  0.73623228960E+01  0.47000000000E+01 0. -1.
<mgrwt>
<rscale>  2 0.52804096E+01</rscale>
<asrwt>0</asrwt>
<pdfrwt beam="1">  1       21 0.22406520E-02 0.52804096E+01</pdfrwt>
<pdfrwt beam="2">  1       21 0.10407227E-02 0.52804096E+01</pdfrwt>
<totfact> 0.84743755E+08</totfact>
</mgrwt>
</event>
<event>
 4    1  0.3964155E+006  0.5176798E+01  0.7546771E-02  0.2536714E+00
         21   -1    0    0  501  502  0.00000000000E+00  0.00000000000E+00  0.10357749804E+00  0.10357749804E+00  0.00000000000E+00 0.  1.
         21   -1    0    0  502  503 -0.00000000000E+00 -0.00000000000E+00 -0.28367413745E+03  0.28367413745E+03  0.00000000000E+00 0.  1.
          5    1    1    2  501    0  0.17002204954E+01 -0.13485127666E+01 -0.99715554244E+02  0.99849842236E+02  0.47000000000E+01 0.  1.
         -5    1    1    2    0  503 -0.17002204954E+01  0.13485127666E+01 -0.18385500570E+03  0.18392787271E+03  0.47000000000E+01 0.  1.
<mgrwt>
<rscale>  2 0.51767979E+01</rscale>
<asrwt>0</asrwt>
<pdfrwt beam="1">  1       21 0.15935027E-04 0.51767979E+01</pdfrwt>
<pdfrwt beam="2">  1       21 0.43642100E-01 0.51767979E+01</pdfrwt>
<totfact> 0.24116300E+09</totfact>
</mgrwt>
</event>
<event>
 4    1  0.3964155E+006  0.5590539E+01  0.7546771E-02  0.2471971E+00
         21   -1    0    0  503  502  0.00000000000E+00  0.00000000000E+00  0.83193984197E-01  0.83193984197E-01  0.00000000000E+00 0.  1.
         21   -1    0    0  501  503 -0.00000000000E+00 -0.00000000000E+00 -0.42230400345E+03  0.42230400345E+03  0.00000000000E+00 0.  1.
          5    1    1    2  501    0 -0.63256658998E+00  0.29604021690E+01 -0.28128563077E+03  0.28134118113E+03  0.47000000000E+01 0.  1.
         -5    1    1    2    0  502  0.63256658998E+00 -0.29604021690E+01 -0.14093517869E+03  0.14104601630E+03  0.47000000000E+01 0.  1.
<mgrwt>
<rscale>  2 0.55905386E+01</rscale>
<asrwt>0</asrwt>
<pdfrwt beam="1">  1       21 0.12799155E-04 0.55905386E+01</pdfrwt>
<pdfrwt beam="2">  1       21 0.64969438E-01 0.55905386E+01</pdfrwt>
<totfact> 0.16751772E+09</totfact>
</mgrwt>
</event>
<event>
 4    1  0.3964155E+006  0.5725356E+01  0.7546771E-02  0.2452601E+00
         21   -1    0    0  503  502  0.00000000000E+00  0.00000000000E+00  0.54954923556E+02  0.54954923556E+02  0.00000000000E+00 0. -1.
         21   -1    0    0  501  503 -0.00000000000E+00 -0.00000000000E+00 -0.12069766920E+01  0.12069766920E+01  0.00000000000E+00 0.  1.
          5    1    1    2  501    0  0.20778350667E+01  0.25243420297E+01  0.69028362787E+01  0.89682133080E+01  0.47000000000E+01 0.  1.
         -5    1    1    2    0  502 -0.20778350667E+01 -0.25243420297E+01  0.46845110585E+02  0.47193686940E+02  0.47000000000E+01 0. -1.
<mgrwt>
<rscale>  2 0.57253560E+01</rscale>
<asrwt>0</asrwt>
<pdfrwt beam="1">  1       21 0.84546017E-02 0.57253560E+01</pdfrwt>
<pdfrwt beam="2">  1       21 0.18568876E-03 0.57253560E+01</pdfrwt>
<totfact> 0.13933414E+09</totfact>
</mgrwt>
</event>
<event>
 4    1  0.3964155E+006  0.4855702E+01  0.7546771E-02  0.2593407E+00
         21   -1    0    0  503  502  0.00000000000E+00  0.00000000000E+00  0.16035608411E+02  0.16035608411E+02  0.00000000000E+00 0. -1.
         21   -1    0    0  501  503 -0.00000000000E+00 -0.00000000000E+00 -0.17402767140E+01  0.17402767140E+01  0.00000000000E+00 0.  1.
          5    1    1    2  501    0 -0.11552668750E+01 -0.39140313716E+00  0.36472391997E+01  0.60729063675E+01  0.47000000000E+01 0.  1.
         -5    1    1    2    0  502  0.11552668750E+01  0.39140313716E+00  0.10648092498E+02  0.11702978758E+02  0.47000000000E+01 0. -1.
<mgrwt>
<rscale>  2 0.48557016E+01</rscale>
<asrwt>0</asrwt>
<pdfrwt beam="1">  1       21 0.24670166E-02 0.48557016E+01</pdfrwt>
<pdfrwt beam="2">  1       21 0.26773489E-03 0.48557016E+01</pdfrwt>
<totfact> 0.44045100E+09</totfact>
</mgrwt>
</event>
<event>
 4    1  0.3964155E+006  0.5414600E+01  0.7546771E-02  0.2498472E+00
         21   -1    0    0  503  502  0.00000000000E+00  0.00000000000E+00  0.36232519289E+01  0.36232519289E+01  0.00000000000E+00 0. -1.
         21   -1    0    0  501  503 -0.00000000000E+00 -0.00000000000E+00 -0.35022314434E+02  0.35022314434E+02  0.00000000000E+00 0. -1.
          5    1    1    2  501    0 -0.19316990659E+01 -0.18698748888E+01 -0.32643737272E+02  0.33089748812E+02  0.47000000000E+01 0. -1.
         -5    1    1    2    0  502  0.19316990659E+01  0.18698748888E+01  0.12446747669E+01  0.55558175507E+01  0.47000000000E+01 0. -1.
<mgrwt>
<rscale>  2 0.54146000E+01</rscale>
<asrwt>0</asrwt>
<pdfrwt beam="1">  1       21 0.55742336E-03 0.54146000E+01</pdfrwt>
<pdfrwt beam="2">  1       21 0.53880485E-02 0.54146000E+01</pdfrwt>
<totfact> 0.57902877E+08</totfact>
</mgrwt>
</event>
<event>
 4    1  0.3964155E+006  0.5819952E+01  0.7546771E-02  0.2439463E+00
         21   -1    0    0  501  502  0.00000000000E+00  0.00000000000E+00  0.78390003545E+01  0.78390003545E+01  0.00000000000E+00 0. -1.
         21   -1    0    0  502  503 -0.00000000000E+00 -0.00000000000E+00 -0.89714044833E+01  0.89714044833E+01  0.00000000000E+00 0.  1.
          5    1    1    2  501    0 -0.31946524481E+01 -0.12554043938E+01  0.54853414171E+01  0.79975505574E+01  0.47000000000E+01 0. -1.
         -5    1    1    2    0  503  0.31946524481E+01  0.12554043938E+01 -0.66177455459E+01  0.88128542803E+01  0.47000000000E+01 0.  1.
<mgrwt>
<rscale>  2 0.58199523E+01</rscale>
<asrwt>0</asrwt>
<pdfrwt beam="1">  1       21 0.12060001E-02 0.58199523E+01</pdfrwt>
<pdfrwt beam="2">  1       21 0.13802161E-02 0.58199523E+01</pdfrwt>
<totfact> 0.14947496E+09</totfact>
</mgrwt>
</event>
<event>
 4    1  0.3964155E+006  0.5798470E+01  0.7546771E-02  0.2442415E+00
         21   -1    0    0  503  502  0.00000000000E+00  0.00000000000E+00  0.43685866572E+00  0.43685866572E+00  0.00000000000E+00 0.  1.
         21   -1    0    0  501  503 -0.00000000000E+00 -0.00000000000E+00 -0.11516378160E+03  0.11516378160E+03  0.00000000000E+00 0. -1.
          5    1    1    2  501    0 -0.75296666382E-01  0.33950823983E+01 -0.90652748839E+02  0.90838004856E+02  0.47000000000E+01 0. -1.
         -5    1    1    2    0  502  0.75296666382E-01 -0.33950823983E+01 -0.24074174091E+02  0.24762635406E+02  0.47000000000E+01 0.  1.
<mgrwt>
<rscale>  2 0.57984700E+01</rscale>
<asrwt>0</asrwt>
<pdfrwt beam="1">  1       21 0.67208977E-04 0.57984700E+01</pdfrwt>
<pdfrwt beam="2">  1       21 0.17717518E-01 0.57984700E+01</pdfrwt>
<totfact> 0.17509080E+09</totfact>
</mgrwt>
</event>
<event>
 4    1  0.3964155E+006  0.1323680E+02  0.7546771E-02  0.1927183E+00
         21   -1    0    0  503  502  0.00000000000E+00  0.00000000000E+00  0.23479751520E+02  0.23479751520E+02  0.00000000000E+00 0. -1.
         21   -1    0    0  501  503 -0.00000000000E+00 -0.00000000000E+00 -0.16963247479E+02  0.16963247479E+02  0.00000000000E+00 0. -1.
          5    1    1    2  501    0 -0.76622918737E+00 -0.12350537905E+02 -0.11875352174E+02  0.17783050440E+02  0.47000000000E+01 0. -1.
         -5    1    1    2    0  502  0.76622918737E+00  0.12350537905E+02  0.18391856215E+02  0.22659948560E+02  0.47000000000E+01 0. -1.
<mgrwt>
<rscale>  2 0.13236801E+02</rscale>
<asrwt>0</asrwt>
<pdfrwt beam="1">  1       21 0.36122695E-02 0.13236801E+02</pdfrwt>
<pdfrwt beam="2">  1       21 0.26097304E-02 0.13236801E+02</pdfrwt>
<totfact> 0.19418374E+08</totfact>
</mgrwt>
</event>
<event>
 4    1  0.3964155E+006  0.4982201E+01  0.7546771E-02  0.2570321E+00
         21   -1    0    0  501  502  0.00000000000E+00  0.00000000000E+00  0.84466632174E+01  0.84466632174E+01  0.00000000000E+00 0.  1.
         21   -1    0    0  502  503 -0.00000000000E+00 -0.00000000000E+00 -0.33201211067E+01  0.33201211067E+01  0.00000000000E+00 0.  1.
          5    1    1    2  501    0  0.35298529905E+00  0.16148475663E+01  0.45573620255E+01  0.67521759393E+01  0.47000000000E+01 0.  1.
         -5    1    1    2    0  503 -0.35298529905E+00 -0.16148475663E+01  0.56918008526E+00  0.50146083848E+01  0.47000000000E+01 0.  1.
<mgrwt>
<rscale>  2 0.49822014E+01</rscale>
<asrwt>0</asrwt>
<pdfrwt beam="1">  1       21 0.12994866E-02 0.49822014E+01</pdfrwt>
<pdfrwt beam="2">  1       21 0.51078787E-03 0.49822014E+01</pdfrwt>
<totfact> 0.46423021E+09</totfact>
</mgrwt>
</event>
<event>
 4    1  0.3964155E+006  0.9421600E+01  0.7546771E-02  0.2109481E+00
         21   -1    0    0  503  502  0.00000000000E+00  0.00000000000E+00  0.69140443756E+03  0.69140443756E+03  0.00000000000E+00 0. -1.
         21   -1    0    0  501  503 -0.00000000000E+00 -0.00000000000E+00 -0.12841039577E+00  0.12841039577E+00  0.00000000000E+00 0.  1.
          5    1    1    2  501    0  0.63988783875E+01  0.50725643480E+01  0.34085856310E+03  0.34098874849E+03  0.47000000000E+01 0. -1.
         -5    1    1    2    0  502 -0.63988783875E+01 -0.50725643480E+01  0.35041746406E+03  0.35054409947E+03  0.47000000000E+01 0. -1.
<mgrwt>
<rscale>  2 0.94216004E+01</rscale>
<asrwt>0</asrwt>
<pdfrwt beam="1">  1       21 0.10636693E+00 0.94216004E+01</pdfrwt>
<pdfrwt beam="2">  1       21 0.19755999E-04 0.94216004E+01</pdfrwt>
<totfact> 0.48501061E+08</totfact>
</mgrwt>
</event>
<event>
 4    1  0.3964155E+006  0.6914489E+01  0.7546771E-02  0.2309702E+00
         21   -1    0    0  503  502  0.00000000000E+00  0.00000000000E+00  0.31944121681E+02  0.31944121681E+02  0.00000000000E+00 0.  1.
         21   -1    0    0  501  503 -0.00000000000E+00 -0.00000000000E+00 -0.22345963071E+01  0.22345963071E+01  0.00000000000E+00 0. -1.
          5    1    1    2  501    0 -0.41702263224E+01  0.28860653114E+01  0.50343556462E+01  0.85530636227E+01  0.47000000000E+01 0. -1.
         -5    1    1    2    0  502  0.41702263224E+01 -0.28860653114E+01  0.24675169727E+02  0.25625654365E+02  0.47000000000E+01 0.  1.
<mgrwt>
<rscale>  2 0.69144892E+01</rscale>
<asrwt>0</asrwt>
<pdfrwt beam="1">  1       21 0.49144799E-02 0.69144892E+01</pdfrwt>
<pdfrwt beam="2">  1       21 0.34378407E-03 0.69144892E+01</pdfrwt>
<totfact> 0.15744968E+09</totfact>
</mgrwt>
</event>
<event>
 4    1  0.3964155E+006  0.5769211E+01  0.7546771E-02  0.2446465E+00
         21   -1    0    0  503  502  0.00000000000E+00  0.00000000000E+00  0.73574920271E+01  0.73574920271E+01  0.00000000000E+00 0.  1.
         21   -1    0    0  501  503 -0.00000000000E+00 -0.00000000000E+00 -0.62151485511E+01  0.62151485511E+01  0.00000000000E+00 0. -1.
          5    1    1    2  501    0  0.32256437313E+01  0.88826928187E+00 -0.29690099311E+01  0.64883603298E+01  0.47000000000E+01 0. -1.
         -5    1    1    2    0  502 -0.32256437313E+01 -0.88826928187E+00  0.41113534071E+01  0.70842802483E+01  0.47000000000E+01 0.  1.
<mgrwt>
<rscale>  2 0.57692114E+01</rscale>
<asrwt>0</asrwt>
<pdfrwt beam="1">  1       21 0.11319219E-02 0.57692114E+01</pdfrwt>
<pdfrwt beam="2">  1       21 0.95617670E-03 0.57692114E+01</pdfrwt>
<totfact> 0.27247672E+09</totfact>
</mgrwt>
</event>
<event>
 4    1  0.3964155E+006  0.1116947E+02  0.7546771E-02  0.2013965E+00
         21   -1    0    0  501  502  0.00000000000E+00  0.00000000000E+00  0.26358437516E+02  0.26358437516E+02  0.00000000000E+00 0.  1.
         21   -1    0    0  502  503 -0.00000000000E+00 -0.00000000000E+00 -0.17227458854E+02  0.17227458854E+02  0.00000000000E+00 0. -1.
          5    1    1    2  501    0 -0.97023073047E+01 -0.29209951019E+01  0.23124826271E+02  0.25681015741E+02  0.47000000000E+01 0.  1.
         -5    1    1    2    0  503  0.97023073047E+01  0.29209951019E+01 -0.13993847609E+02  0.17904880628E+02  0.47000000000E+01 0. -1.
<mgrwt>
<rscale>  2 0.11169466E+02</rscale>
<asrwt>0</asrwt>
<pdfrwt beam="1">  1       21 0.40551442E-02 0.11169466E+02</pdfrwt>
<pdfrwt beam="2">  1       21 0.26503783E-02 0.11169466E+02</pdfrwt>
<totfact> 0.14758865E+08</totfact>
</mgrwt>
</event>
<event>
 4    1  0.3964155E+006  0.5360614E+01  0.7546771E-02  0.2506900E+00
         21   -1    0    0  501  502  0.00000000000E+00  0.00000000000E+00  0.52503649800E+02  0.52503649800E+02  0.00000000000E+00 0. -1.
         21   -1    0    0  502  503 -0.00000000000E+00 -0.00000000000E+00 -0.97899535660E+00  0.97899535660E+00  0.00000000000E+00 0. -1.
          5    1    1    2  501    0  0.24880865054E+01  0.67498770563E+00  0.43519437611E+02  0.43848348120E+02  0.47000000000E+01 0. -1.
         -5    1    1    2    0  503 -0.24880865054E+01 -0.67498770563E+00  0.80052168331E+01  0.96342970374E+01  0.47000000000E+01 0. -1.
<mgrwt>
<rscale>  2 0.53606140E+01</rscale>
<asrwt>0</asrwt>
<pdfrwt beam="1">  1       21 0.80774824E-02 0.53606140E+01</pdfrwt>
<pdfrwt beam="2">  1       21 0.15061471E-03 0.53606140E+01</pdfrwt>
<totfact> 0.18694007E+09</totfact>
</mgrwt>
</event>
<event>
 4    1  0.3964155E+006  0.7903796E+01  0.7546771E-02  0.2218498E+00
         21   -1    0    0  501  502  0.00000000000E+00  0.00000000000E+00  0.73785130098E+01  0.73785130098E+01  0.00000000000E+00 0. -1.
         21   -1    0    0  502  503 -0.00000000000E+00 -0.00000000000E+00 -0.11422450032E+02  0.11422450032E+02  0.00000000000E+00 0.  1.
          5    1    1    2  501    0 -0.18374295597E+01 -0.60830790403E+01  0.27601554185E+01  0.83718848494E+01  0.47000000000E+01 0. -1.
         -5    1    1    2    0  503  0.18374295597E+01  0.60830790403E+01 -0.68040924403E+01  0.10429078192E+02  0.47000000000E+01 0.  1.
<mgrwt>
<rscale>  2 0.79037964E+01</rscale>
<asrwt>0</asrwt>
<pdfrwt beam="1">  1       21 0.11351559E-02 0.79037964E+01</pdfrwt>
<pdfrwt beam="2">  1       21 0.17573000E-02 0.79037964E+01</pdfrwt>
<totfact> 0.14623418E+09</totfact>
</mgrwt>
</event>
<event>
 4    1  0.3964155E+006  0.4709156E+01  0.7546771E-02  0.2621489E+00
         21   -1    0    0  503  502  0.00000000000E+00  0.00000000000E+00  0.60767443052E+00  0.60767443052E+00  0.00000000000E+00 0.  1.
         21   -1    0    0  501  503 -0.00000000000E+00 -0.00000000000E+00 -0.54081846805E+02  0.54081846805E+02  0.00000000000E+00 0.  1.
          5    1    1    2  501    0 -0.52823978032E-01  0.28872138466E+00 -0.42331218429E+02  0.42592349126E+02  0.47000000000E+01 0.  1.
         -5    1    1    2    0  502  0.52823978032E-01 -0.28872138466E+00 -0.11142953946E+02  0.12097172110E+02  0.47000000000E+01 0.  1.
<mgrwt>
<rscale>  2 0.47091560E+01</rscale>
<asrwt>0</asrwt>
<pdfrwt beam="1">  1       21 0.93488386E-04 0.47091560E+01</pdfrwt>
<pdfrwt beam="2">  1       21 0.83202831E-02 0.47091560E+01</pdfrwt>
<totfact> 0.29727769E+09</totfact>
</mgrwt>
</event>
<event>
 4    1  0.3964155E+006  0.4953454E+01  0.7546771E-02  0.2575478E+00
         21   -1    0    0  503  502  0.00000000000E+00  0.00000000000E+00  0.28531258545E+01  0.28531258545E+01  0.00000000000E+00 0. -1.
         21   -1    0    0  501  503 -0.00000000000E+00 -0.00000000000E+00 -0.26277928347E+02  0.26277928347E+02  0.00000000000E+00 0. -1.
          5    1    1    2  501    0  0.12741141644E+00  0.15589958485E+01 -0.23659077804E+02  0.24172063715E+02  0.47000000000E+01 0. -1.
         -5    1    1    2    0  502 -0.12741141644E+00 -0.15589958485E+01  0.23427531099E+00  0.49589904866E+01  0.47000000000E+01 0. -1.
<mgrwt>
<rscale>  2 0.49534535E+01</rscale>
<asrwt>0</asrwt>
<pdfrwt beam="1">  1       21 0.43894243E-03 0.49534535E+01</pdfrwt>
<pdfrwt beam="2">  1       21 0.40427583E-02 0.49534535E+01</pdfrwt>
<totfact> 0.11290035E+09</totfact>
</mgrwt>
</event>
<event>
 4    1  0.3964155E+006  0.7280190E+01  0.7546771E-02  0.2273640E+00
         21   -1    0    0  503  502  0.00000000000E+00  0.00000000000E+00  0.13059219885E+01  0.13059219885E+01  0.00000000000E+00 0.  1.
         21   -1    0    0  501  503 -0.00000000000E+00 -0.00000000000E+00 -0.40716404370E+02  0.40716404370E+02  0.00000000000E+00 0. -1.
          5    1    1    2  501    0  0.14870690090E+01 -0.53572184484E+01 -0.18512722518E+02  0.19892763980E+02  0.47000000000E+01 0. -1.
         -5    1    1    2    0  502 -0.14870690090E+01  0.53572184484E+01 -0.20897759863E+02  0.22129562378E+02  0.47000000000E+01 0. -1.
<mgrwt>
<rscale>  2 0.72801898E+01</rscale>
<asrwt>0</asrwt>
<pdfrwt beam="1">  1       21 0.20091110E-03 0.72801898E+01</pdfrwt>
<pdfrwt beam="2">  1       21 0.62640615E-02 0.72801898E+01</pdfrwt>
<totfact> 0.23862767E+09</totfact>
</mgrwt>
</event>
<event>
 4    1  0.3964155E+006  0.4715136E+01  0.7546771E-02  0.2620313E+00
         21   -1    0    0  501  502  0.00000000000E+00  0.00000000000E+00  0.38060279998E+02  0.38060279998E+02  0.00000000000E+00 0. -1.
         21   -1    0    0  502  503 -0.00000000000E+00 -0.00000000000E+00 -0.67114408321E+00  0.67114408321E+00  0.00000000000E+00 0. -1.
          5    1    1    2  501    0  0.26609380745E+00 -0.26777879207E+00  0.25667200087E+02  0.26096698483E+02  0.47000000000E+01 0. -1.
         -5    1    1    2    0  503 -0.26609380745E+00  0.26777879207E+00  0.11721935827E+02  0.12634725598E+02  0.47000000000E+01 0. -1.
<mgrwt>
<rscale>  2 0.47151364E+01</rscale>
<asrwt>0</asrwt>
<pdfrwt beam="1">  1       21 0.58554260E-02 0.47151364E+01</pdfrwt>
<pdfrwt beam="2">  1       21 0.10325297E-03 0.47151364E+01</pdfrwt>
<totfact> 0.43848705E+09</totfact>
</mgrwt>
</event>
<event>
 4    1  0.3964155E+006  0.6312282E+01  0.7546771E-02  0.2376469E+00
         21   -1    0    0  503  502  0.00000000000E+00  0.00000000000E+00  0.80518093298E+01  0.80518093298E+01  0.00000000000E+00 0.  1.
         21   -1    0    0  501  503 -0.00000000000E+00 -0.00000000000E+00 -0.50817595085E+01  0.50817595085E+01  0.00000000000E+00 0. -1.
          5    1    1    2  501    0 -0.20723047125E+00  0.42085579313E+01  0.42189004829E+00  0.63263651129E+01  0.47000000000E+01 0.  1.
         -5    1    1    2    0  502  0.20723047125E+00 -0.42085579313E+01  0.25481597730E+01  0.68072037253E+01  0.47000000000E+01 0. -1.
<mgrwt>
<rscale>  2 0.63122820E+01</rscale>
<asrwt>0</asrwt>
<pdfrwt beam="1">  1       21 0.12387399E-02 0.63122820E+01</pdfrwt>
<pdfrwt beam="2">  1       21 0.78180916E-03 0.63122820E+01</pdfrwt>
<totfact> 0.34479241E+09</totfact>
</mgrwt>
</event>
<event>
 4    1  0.3964155E+006  0.1383310E+02  0.7546771E-02  0.1905916E+00
         21   -1    0    0  503  502  0.00000000000E+00  0.00000000000E+00  0.72721409706E+03  0.72721409706E+03  0.00000000000E+00 0. -1.
         21   -1    0    0  501  503 -0.00000000000E+00 -0.00000000000E+00 -0.34723453643E+00  0.34723453643E+00  0.00000000000E+00 0.  1.
          5    1    1    2  501    0  0.38026545959E+01 -0.12442044766E+02  0.18440258106E+03  0.18492070344E+03  0.47000000000E+01 0.  1.
         -5    1    1    2    0  502 -0.38026545959E+01  0.12442044766E+02  0.54246428147E+03  0.54264062816E+03  0.47000000000E+01 0. -1.
<mgrwt>
<rscale>  2 0.13833100E+02</rscale>
<asrwt>0</asrwt>
<pdfrwt beam="1">  1       21 0.11187787E+00 0.13833100E+02</pdfrwt>
<pdfrwt beam="2">  1       21 0.53421280E-04 0.13833100E+02</pdfrwt>
<totfact> 0.13013765E+08</totfact>
</mgrwt>
</event>
<event>
 4    1  0.3964155E+006  0.5302492E+01  0.7546771E-02  0.2516136E+00
         21   -1    0    0  501  502  0.00000000000E+00  0.00000000000E+00  0.12839879370E+01  0.12839879370E+01  0.00000000000E+00 0.  1.
         21   -1    0    0  502  503 -0.00000000000E+00 -0.00000000000E+00 -0.35359677392E+02  0.35359677392E+02  0.00000000000E+00 0. -1.
          5    1    1    2  501    0  0.24117313764E+01  0.45822701512E+00 -0.57328927546E+01  0.78091279644E+01  0.47000000000E+01 0.  1.
         -5    1    1    2    0  503 -0.24117313764E+01 -0.45822701512E+00 -0.28342796701E+02  0.28834537365E+02  0.47000000000E+01 0. -1.
<mgrwt>
<rscale>  2 0.53024919E+01</rscale>
<asrwt>0</asrwt>
<pdfrwt beam="1">  1       21 0.19753664E-03 0.53024919E+01</pdfrwt>
<pdfrwt beam="2">  1       21 0.54399494E-02 0.53024919E+01</pdfrwt>
<totfact> 0.23126255E+09</totfact>
</mgrwt>
</event>
<event>
 4    1  0.3964155E+006  0.5711757E+01  0.7546771E-02  0.2454520E+00
         21   -1    0    0  503  502  0.00000000000E+00  0.00000000000E+00  0.61978365733E+01  0.61978365733E+01  0.00000000000E+00 0. -1.
         21   -1    0    0  501  503 -0.00000000000E+00 -0.00000000000E+00 -0.11278956490E+02  0.11278956490E+02  0.00000000000E+00 0. -1.
          5    1    1    2  501    0 -0.15635748149E+01  0.28441867259E+01 -0.89220309348E+01  0.10593715134E+02  0.47000000000E+01 0. -1.
         -5    1    1    2    0  502  0.15635748149E+01 -0.28441867259E+01  0.38409110181E+01  0.68830779294E+01  0.47000000000E+01 0. -1.
<mgrwt>
<rscale>  2 0.57117567E+01</rscale>
<asrwt>0</asrwt>
<pdfrwt beam="1">  1       21 0.95351332E-03 0.57117567E+01</pdfrwt>
<pdfrwt beam="2">  1       21 0.17352241E-02 0.57117567E+01</pdfrwt>
<totfact> 0.14789631E+09</totfact>
</mgrwt>
</event>
<event>
 4    1  0.3964155E+006  0.5823690E+01  0.7546771E-02  0.2438951E+00
         21   -1    0    0  501  502  0.00000000000E+00  0.00000000000E+00  0.12738631906E+03  0.12738631906E+03  0.00000000000E+00 0. -1.
         21   -1    0    0  502  503 -0.00000000000E+00 -0.00000000000E+00 -0.33678967169E+00  0.33678967169E+00  0.00000000000E+00 0.  1.
          5    1    1    2  501    0  0.17523185359E+01  0.29588419867E+01  0.92753283960E+02  0.92935929820E+02  0.47000000000E+01 0. -1.
         -5    1    1    2    0  503 -0.17523185359E+01 -0.29588419867E+01  0.34296245430E+02  0.34787178913E+02  0.47000000000E+01 0.  1.
<mgrwt>
<rscale>  2 0.58236901E+01</rscale>
<asrwt>0</asrwt>
<pdfrwt beam="1">  1       21 0.19597857E-01 0.58236901E+01</pdfrwt>
<pdfrwt beam="2">  1       21 0.51813898E-04 0.58236901E+01</pdfrwt>
<totfact> 0.21163207E+09</totfact>
</mgrwt>
</event>
<event>
 4    1  0.3964155E+006  0.7118475E+01  0.7546771E-02  0.2289213E+00
         21   -1    0    0  501  502  0.00000000000E+00  0.00000000000E+00  0.25311154187E+03  0.25311154187E+03  0.00000000000E+00 0.  1.
         21   -1    0    0  502  503 -0.00000000000E+00 -0.00000000000E+00 -0.65517462637E+00  0.65517462637E+00  0.00000000000E+00 0.  1.
          5    1    1    2  501    0 -0.42366534768E+01  0.32608977666E+01  0.23196352650E+03  0.23207272635E+03  0.47000000000E+01 0.  1.
         -5    1    1    2    0  503  0.42366534768E+01 -0.32608977666E+01  0.20492840738E+02  0.21693990146E+02  0.47000000000E+01 0.  1.
<mgrwt>
<rscale>  2 0.71184750E+01</rscale>
<asrwt>0</asrwt>
<pdfrwt beam="1">  1       21 0.38940159E-01 0.71184750E+01</pdfrwt>
<pdfrwt beam="2">  1       21 0.10079630E-03 0.71184750E+01</pdfrwt>
<totfact> 0.31510421E+08</totfact>
</mgrwt>
</event>
<event>
 4    1  0.3964155E+006  0.5723109E+01  0.7546771E-02  0.2452917E+00
         21   -1    0    0  501  502  0.00000000000E+00  0.00000000000E+00  0.19808314542E+02  0.19808314542E+02  0.00000000000E+00 0.  1.
         21   -1    0    0  502  503 -0.00000000000E+00 -0.00000000000E+00 -0.18908149019E+01  0.18908149019E+01  0.00000000000E+00 0.  1.
          5    1    1    2  501    0  0.55507723271E+00 -0.32180533406E+01  0.12802076937E+02  0.14023093523E+02  0.47000000000E+01 0.  1.
         -5    1    1    2    0  503 -0.55507723271E+00  0.32180533406E+01  0.51154227028E+01  0.76760359213E+01  0.47000000000E+01 0.  1.
<mgrwt>
<rscale>  2 0.57231091E+01</rscale>
<asrwt>0</asrwt>
<pdfrwt beam="1">  1       21 0.30474329E-02 0.57231091E+01</pdfrwt>
<pdfrwt beam="2">  1       21 0.29089461E-03 0.57231091E+01</pdfrwt>
<totfact> 0.34208654E+09</totfact>
</mgrwt>
</event>
<event>
 4    1  0.3964155E+006  0.5043989E+01  0.7546771E-02  0.2559409E+00
         21   -1    0    0  501  502  0.00000000000E+00  0.00000000000E+00  0.32705887179E+02  0.32705887179E+02  0.00000000000E+00 0.  1.
         21   -1    0    0  502  503 -0.00000000000E+00 -0.00000000000E+00 -0.39744246511E+01  0.39744246511E+01  0.00000000000E+00 0.  1.
          5    1    1    2  501    0  0.24362320451E+00  0.18145169630E+01  0.30813428241E+02  0.31223535739E+02  0.47000000000E+01 0.  1.
         -5    1    1    2    0  503 -0.24362320451E+00 -0.18145169630E+01 -0.20819657134E+01  0.54567760909E+01  0.47000000000E+01 0.  1.
<mgrwt>
<rscale>  2 0.50439889E+01</rscale>
<asrwt>0</asrwt>
<pdfrwt beam="1">  1       21 0.50316748E-02 0.50439889E+01</pdfrwt>
<pdfrwt beam="2">  1       21 0.61144997E-03 0.50439889E+01</pdfrwt>
<totfact> 0.52937208E+08</totfact>
</mgrwt>
</event>
<event>
 4    1  0.3964155E+006  0.6591476E+01  0.7546771E-02  0.2344262E+00
         21   -1    0    0  501  502  0.00000000000E+00  0.00000000000E+00  0.19699487662E+02  0.19699487662E+02  0.00000000000E+00 0. -1.
         21   -1    0    0  502  503 -0.00000000000E+00 -0.00000000000E+00 -0.23401179175E+01  0.23401179175E+01  0.00000000000E+00 0.  1.
          5    1    1    2  501    0  0.92264683783E+00  0.45283853416E+01  0.11322576069E+02  0.13101460980E+02  0.47000000000E+01 0. -1.
         -5    1    1    2    0  503 -0.92264683783E+00 -0.45283853416E+01  0.60367936758E+01  0.89381445990E+01  0.47000000000E+01 0.  1.
<mgrwt>
<rscale>  2 0.65914756E+01</rscale>
<asrwt>0</asrwt>
<pdfrwt beam="1">  1       21 0.30306903E-02 0.65914756E+01</pdfrwt>
<pdfrwt beam="2">  1       21 0.36001815E-03 0.65914756E+01</pdfrwt>
<totfact> 0.29084072E+09</totfact>
</mgrwt>
</event>
<event>
 4    1  0.3964155E+006  0.5941749E+01  0.7546771E-02  0.2423067E+00
         21   -1    0    0  501  502  0.00000000000E+00  0.00000000000E+00  0.11946866249E+02  0.11946866249E+02  0.00000000000E+00 0. -1.
         21   -1    0    0  502  503 -0.00000000000E+00 -0.00000000000E+00 -0.31224383386E+01  0.31224383386E+01  0.00000000000E+00 0. -1.
          5    1    1    2  501    0  0.33412643800E+01  0.14318992956E+01  0.61563984133E+01  0.85560285573E+01  0.47000000000E+01 0. -1.
         -5    1    1    2    0  503 -0.33412643800E+01 -0.14318992956E+01  0.26680294971E+01  0.65132760303E+01  0.47000000000E+01 0. -1.
<mgrwt>
<rscale>  2 0.59417492E+01</rscale>
<asrwt>0</asrwt>
<pdfrwt beam="1">  1       21 0.18379794E-02 0.59417492E+01</pdfrwt>
<pdfrwt beam="2">  1       21 0.48037513E-03 0.59417492E+01</pdfrwt>
<totfact> 0.36738965E+09</totfact>
</mgrwt>
</event>
<event>
 4    1  0.3964155E+006  0.5260686E+01  0.7546771E-02  0.2522887E+00
         21   -1    0    0  501  502  0.00000000000E+00  0.00000000000E+00  0.28424566205E+03  0.28424566205E+03  0.00000000000E+00 0.  1.
         21   -1    0    0  502  503 -0.00000000000E+00 -0.00000000000E+00 -0.98737083449E-01  0.98737083449E-01  0.00000000000E+00 0.  1.
          5    1    1    2  501    0  0.13316677690E+01 -0.19523010717E+01  0.15884943625E+03  0.15893652259E+03  0.47000000000E+01 0.  1.
         -5    1    1    2    0  503 -0.13316677690E+01  0.19523010717E+01  0.12529748872E+03  0.12540787654E+03  0.47000000000E+01 0.  1.
<mgrwt>
<rscale>  2 0.52606861E+01</rscale>
<asrwt>0</asrwt>
<pdfrwt beam="1">  1       21 0.43729447E-01 0.52606861E+01</pdfrwt>
<pdfrwt beam="2">  1       21 0.15190548E-04 0.52606861E+01</pdfrwt>
<totfact> 0.25961490E+09</totfact>
</mgrwt>
</event>
<event>
 4    1  0.3964155E+006  0.1540245E+02  0.7546771E-02  0.1856030E+00
         21   -1    0    0  503  502  0.00000000000E+00  0.00000000000E+00  0.14410895701E+02  0.14410895701E+02  0.00000000000E+00 0. -1.
         21   -1    0    0  501  503 -0.00000000000E+00 -0.00000000000E+00 -0.16514086963E+02  0.16514086963E+02  0.00000000000E+00 0.  1.
          5    1    1    2  501    0 -0.14198606096E+02 -0.36803637506E+01 -0.18512871359E+00  0.15403563388E+02  0.47000000000E+01 0.  1.
         -5    1    1    2    0  502  0.14198606096E+02  0.36803637506E+01 -0.19180625486E+01  0.15521419276E+02  0.47000000000E+01 0. -1.
<mgrwt>
<rscale>  2 0.15402451E+02</rscale>
<asrwt>0</asrwt>
<pdfrwt beam="1">  1       21 0.22170609E-02 0.15402451E+02</pdfrwt>
<pdfrwt beam="2">  1       21 0.25406288E-02 0.15402451E+02</pdfrwt>
<totfact> 0.45360756E+08</totfact>
</mgrwt>
</event>
<event>
 4    1  0.3964155E+006  0.7428968E+01  0.7546771E-02  0.2259804E+00
         21   -1    0    0  501  502  0.00000000000E+00  0.00000000000E+00  0.11029122242E+03  0.11029122242E+03  0.00000000000E+00 0.  1.
         21   -1    0    0  502  503 -0.00000000000E+00 -0.00000000000E+00 -0.61638728405E+00  0.61638728405E+00  0.00000000000E+00 0. -1.
          5    1    1    2  501    0 -0.22304447505E+01  0.53032701829E+01  0.78892817265E+02  0.79241820867E+02  0.47000000000E+01 0.  1.
         -5    1    1    2    0  503  0.22304447505E+01 -0.53032701829E+01  0.30782017869E+02  0.31665788834E+02  0.47000000000E+01 0. -1.
<mgrwt>
<rscale>  2 0.74289675E+01</rscale>
<asrwt>0</asrwt>
<pdfrwt beam="1">  1       21 0.16967865E-01 0.74289675E+01</pdfrwt>
<pdfrwt beam="2">  1       21 0.94828901E-04 0.74289675E+01</pdfrwt>
<totfact> 0.14235799E+09</totfact>
</mgrwt>
</event>
<event>
 4    1  0.3964155E+006  0.8728841E+01  0.7546771E-02  0.2155480E+00
         21   -1    0    0  501  502  0.00000000000E+00  0.00000000000E+00  0.22200148448E+00  0.22200148448E+00  0.00000000000E+00 0. -1.
         21   -1    0    0  502  503 -0.00000000000E+00 -0.00000000000E+00 -0.38565233347E+03  0.38565233347E+03  0.00000000000E+00 0. -1.
          5    1    1    2  501    0  0.49846303391E+01  0.54088928615E+01 -0.12870804020E+03  0.12900369093E+03  0.47000000000E+01 0. -1.
         -5    1    1    2    0  503 -0.49846303391E+01 -0.54088928615E+01 -0.25672229179E+03  0.25687064403E+03  0.47000000000E+01 0. -1.
<mgrwt>
<rscale>  2 0.87288408E+01</rscale>
<asrwt>0</asrwt>
<pdfrwt beam="1">  1       21 0.34154548E-04 0.87288408E+01</pdfrwt>
<pdfrwt beam="2">  1       21 0.59330305E-01 0.87288408E+01</pdfrwt>
<totfact> 0.71274374E+08</totfact>
</mgrwt>
</event>
<event>
 4    1  0.3964155E+006  0.4992296E+01  0.7546771E-02  0.2568522E+00
         21   -1    0    0  503  502  0.00000000000E+00  0.00000000000E+00  0.22447907798E+03  0.22447907798E+03  0.00000000000E+00 0.  1.
         21   -1    0    0  501  503 -0.00000000000E+00 -0.00000000000E+00 -0.11475418809E+00  0.11475418809E+00  0.00000000000E+00 0.  1.
          5    1    1    2  501    0 -0.94475534136E+00 -0.13930021304E+01  0.91941180662E+02  0.92076618743E+02  0.47000000000E+01 0. -1.
         -5    1    1    2    0  502  0.94475534136E+00  0.13930021304E+01  0.13242314313E+03  0.13251721343E+03  0.47000000000E+01 0. -1.
<mgrwt>
<rscale>  2 0.49922958E+01</rscale>
<asrwt>0</asrwt>
<pdfrwt beam="1">  1       21 0.34534891E-01 0.49922958E+01</pdfrwt>
<pdfrwt beam="2">  1       21 0.17654670E-04 0.49922958E+01</pdfrwt>
<totfact> 0.30454347E+09</totfact>
</mgrwt>
</event>
<event>
 4    1  0.3964155E+006  0.5325025E+01  0.7546771E-02  0.2512535E+00
         21   -1    0    0  501  502  0.00000000000E+00  0.00000000000E+00  0.10538625941E+01  0.10538625941E+01  0.00000000000E+00 0.  1.
         21   -1    0    0  502  503 -0.00000000000E+00 -0.00000000000E+00 -0.30344967642E+02  0.30344967642E+02  0.00000000000E+00 0.  1.
          5    1    1    2  501    0 -0.13550859426E+01 -0.21046688773E+01 -0.93609234692E+01  0.10769530036E+02  0.47000000000E+01 0.  1.
         -5    1    1    2    0  503  0.13550859426E+01  0.21046688773E+01 -0.19930181579E+02  0.20629300200E+02  0.47000000000E+01 0.  1.
<mgrwt>
<rscale>  2 0.53250248E+01</rscale>
<asrwt>0</asrwt>
<pdfrwt beam="1">  1       21 0.16213273E-03 0.53250248E+01</pdfrwt>
<pdfrwt beam="2">  1       21 0.46684559E-02 0.53250248E+01</pdfrwt>
<totfact> 0.37937721E+09</totfact>
</mgrwt>
</event>
<event>
 4    1  0.3964155E+006  0.1076376E+02  0.7546771E-02  0.2033960E+00
         21   -1    0    0  503  502  0.00000000000E+00  0.00000000000E+00  0.65111547531E+02  0.65111547531E+02  0.00000000000E+00 0. -1.
         21   -1    0    0  501  503 -0.00000000000E+00 -0.00000000000E+00 -0.23563221324E+01  0.23563221324E+01  0.00000000000E+00 0.  1.
          5    1    1    2  501    0 -0.41430825719E+01 -0.87523321346E+01  0.14685386431E+02  0.18207663926E+02  0.47000000000E+01 0.  1.
         -5    1    1    2    0  502  0.41430825719E+01  0.87523321346E+01  0.48069838967E+02  0.49260205737E+02  0.47000000000E+01 0. -1.
<mgrwt>
<rscale>  2 0.10763756E+02</rscale>
<asrwt>0</asrwt>
<pdfrwt beam="1">  1       21 0.10017160E-01 0.10763756E+02</pdfrwt>
<pdfrwt beam="2">  1       21 0.36251115E-03 0.10763756E+02</pdfrwt>
<totfact> 0.64439626E+08</totfact>
</mgrwt>
</event>
<event>
 4    1  0.3964155E+006  0.7047000E+01  0.7546771E-02  0.2296281E+00
         21   -1    0    0  501  502  0.00000000000E+00  0.00000000000E+00  0.50835403295E+00  0.50835403295E+00  0.00000000000E+00 0.  1.
         21   -1    0    0  502  503 -0.00000000000E+00 -0.00000000000E+00 -0.99763138880E+03  0.99763138880E+03  0.00000000000E+00 0. -1.
          5    1    1    2  501    0  0.24191295377E+01 -0.46602600796E+01 -0.24555519510E+02  0.25546697441E+02  0.47000000000E+01 0.  1.
         -5    1    1    2    0  503 -0.24191295377E+01  0.46602600796E+01 -0.97256751526E+03  0.97259304539E+03  0.47000000000E+01 0. -1.
<mgrwt>
<rscale>  2 0.70470002E+01</rscale>
<asrwt>0</asrwt>
<pdfrwt beam="1">  1       21 0.78207919E-04 0.70470002E+01</pdfrwt>
<pdfrwt beam="2">  1       21 0.15348253E+00 0.70470002E+01</pdfrwt>
<totfact> 0.29925860E+07</totfact>
</mgrwt>
</event>
<event>
 4    1  0.3964155E+006  0.6522035E+01  0.7546771E-02  0.2352058E+00
         21   -1    0    0  501  502  0.00000000000E+00  0.00000000000E+00  0.16191700590E+02  0.16191700590E+02  0.00000000000E+00 0.  1.
         21   -1    0    0  502  503 -0.00000000000E+00 -0.00000000000E+00 -0.53850593835E+01  0.53850593835E+01  0.00000000000E+00 0.  1.
          5    1    1    2  501    0  0.44469318955E+01  0.81959901632E+00  0.13124012754E+02  0.14655260373E+02  0.47000000000E+01 0.  1.
         -5    1    1    2    0  503 -0.44469318955E+01 -0.81959901632E+00 -0.23173715475E+01  0.69214996005E+01  0.47000000000E+01 0.  1.
<mgrwt>
<rscale>  2 0.65220354E+01</rscale>
<asrwt>0</asrwt>
<pdfrwt beam="1">  1       21 0.24910308E-02 0.65220354E+01</pdfrwt>
<pdfrwt beam="2">  1       21 0.82847068E-03 0.65220354E+01</pdfrwt>
<totfact> 0.11961996E+09</totfact>
</mgrwt>
</event>
<event>
 4    1  0.3964155E+006  0.5196823E+01  0.7546771E-02  0.2533379E+00
         21   -1    0    0  501  502  0.00000000000E+00  0.00000000000E+00  0.49803859601E+01  0.49803859601E+01  0.00000000000E+00 0.  1.
         21   -1    0    0  502  503 -0.00000000000E+00 -0.00000000000E+00 -0.30680124407E+02  0.30680124407E+02  0.00000000000E+00 0.  1.
          5    1    1    2  501    0 -0.66700347075E+00 -0.21147279438E+01  0.33280933655E+01  0.61711565655E+01  0.47000000000E+01 0.  1.
         -5    1    1    2    0  503  0.66700347075E+00  0.21147279438E+01 -0.29027831813E+02  0.29489353802E+02  0.47000000000E+01 0.  1.
<mgrwt>
<rscale>  2 0.51968229E+01</rscale>
<asrwt>0</asrwt>
<pdfrwt beam="1">  1       21 0.76621322E-03 0.51968229E+01</pdfrwt>
<pdfrwt beam="2">  1       21 0.47200192E-02 0.51968229E+01</pdfrwt>
<totfact> 0.43661862E+08</totfact>
</mgrwt>
</event>
<event>
 4    1  0.3964155E+006  0.5030276E+01  0.7546771E-02  0.2561811E+00
         21   -1    0    0  503  502  0.00000000000E+00  0.00000000000E+00  0.90606145221E+01  0.90606145221E+01  0.00000000000E+00 0. -1.
         21   -1    0    0  501  503 -0.00000000000E+00 -0.00000000000E+00 -0.28978493030E+01  0.28978493030E+01  0.00000000000E+00 0. -1.
          5    1    1    2  501    0  0.16061859612E+01  0.79613963818E+00  0.42202925657E+01  0.65661663857E+01  0.47000000000E+01 0. -1.
         -5    1    1    2    0  502 -0.16061859612E+01 -0.79613963818E+00  0.19424726534E+01  0.53922974394E+01  0.47000000000E+01 0. -1.
<mgrwt>
<rscale>  2 0.50302755E+01</rscale>
<asrwt>0</asrwt>
<pdfrwt beam="1">  1       21 0.13939407E-02 0.50302755E+01</pdfrwt>
<pdfrwt beam="2">  1       21 0.44582297E-03 0.50302755E+01</pdfrwt>
<totfact> 0.51219158E+09</totfact>
</mgrwt>
</event>
<event>
 4    1  0.3964155E+006  0.5455357E+01  0.7546771E-02  0.2492204E+00
         21   -1    0    0  503  502  0.00000000000E+00  0.00000000000E+00  0.24394936423E+01  0.24394936423E+01  0.00000000000E+00 0. -1.
         21   -1    0    0  501  503 -0.00000000000E+00 -0.00000000000E+00 -0.12441524129E+02  0.12441524129E+02  0.00000000000E+00 0.  1.
          5    1    1    2  501    0  0.26984309097E+01  0.62401104380E+00 -0.39635375796E+01  0.67431853973E+01  0.47000000000E+01 0.  1.
         -5    1    1    2    0  502 -0.26984309097E+01 -0.62401104380E+00 -0.60384929070E+01  0.81378323739E+01  0.47000000000E+01 0. -1.
<mgrwt>
<rscale>  2 0.54553569E+01</rscale>
<asrwt>0</asrwt>
<pdfrwt beam="1">  1       21 0.37530672E-03 0.54553569E+01</pdfrwt>
<pdfrwt beam="2">  1       21 0.19140806E-02 0.54553569E+01</pdfrwt>
<totfact> 0.45010045E+09</totfact>
</mgrwt>
</event>
<event>
 4    1  0.3964155E+006  0.5825392E+01  0.7546771E-02  0.2438718E+00
         21   -1    0    0  501  502  0.00000000000E+00  0.00000000000E+00  0.40588151763E-01  0.40588151763E-01  0.00000000000E+00 0. -1.
         21   -1    0    0  502  503 -0.00000000000E+00 -0.00000000000E+00 -0.13362822997E+04  0.13362822997E+04  0.00000000000E+00 0.  1.
          5    1    1    2  501    0  0.20077339462E+01 -0.27953877786E+01 -0.25932874223E+03  0.25939416288E+03  0.47000000000E+01 0. -1.
         -5    1    1    2    0  503 -0.20077339462E+01  0.27953877786E+01 -0.10769129693E+04  0.10769287250E+04  0.47000000000E+01 0.  1.
<mgrwt>
<rscale>  2 0.58253917E+01</rscale>
<asrwt>0</asrwt>
<pdfrwt beam="1">  1       21 0.62438302E-05 0.58253917E+01</pdfrwt>
<pdfrwt beam="2">  1       21 0.20559838E+00 0.58253917E+01</pdfrwt>
<totfact> 0.41947865E+08</totfact>
</mgrwt>
</event>
<event>
 4    1  0.3964155E+006  0.6179652E+01  0.7546771E-02  0.2392612E+00
         21   -1    0    0  503  502  0.00000000000E+00  0.00000000000E+00  0.91583788330E+01  0.91583788330E+01  0.00000000000E+00 0.  1.
         21   -1    0    0  501  503 -0.00000000000E+00 -0.00000000000E+00 -0.48641377889E+01  0.48641377889E+01  0.00000000000E+00 0. -1.
          5    1    1    2  501    0 -0.25450464762E+01  0.31017467825E+01 -0.50196491334E+00  0.62000051164E+01  0.47000000000E+01 0. -1.
         -5    1    1    2    0  502  0.25450464762E+01 -0.31017467825E+01  0.47962059574E+01  0.78225115056E+01  0.47000000000E+01 0.  1.
<mgrwt>
<rscale>  2 0.61796517E+01</rscale>
<asrwt>0</asrwt>
<pdfrwt beam="1">  1       21 0.14089814E-02 0.61796517E+01</pdfrwt>
<pdfrwt beam="2">  1       21 0.74832889E-03 0.61796517E+01</pdfrwt>
<totfact> 0.29960755E+09</totfact>
</mgrwt>
</event>
<event>
 4    1  0.3964155E+006  0.5195724E+01  0.7546771E-02  0.2533561E+00
         21   -1    0    0  501  502  0.00000000000E+00  0.00000000000E+00  0.14571802920E+03  0.14571802920E+03  0.00000000000E+00 0.  1.
         21   -1    0    0  502  503 -0.00000000000E+00 -0.00000000000E+00 -0.44551824764E+00  0.44551824764E+00  0.00000000000E+00 0.  1.
          5    1    1    2  501    0 -0.36361866998E+00 -0.21847960847E+01  0.12849350579E+03  0.12859850925E+03  0.47000000000E+01 0.  1.
         -5    1    1    2    0  503  0.36361866998E+00  0.21847960847E+01  0.16779005167E+02  0.17565038197E+02  0.47000000000E+01 0.  1.
<mgrwt>
<rscale>  2 0.51957244E+01</rscale>
<asrwt>0</asrwt>
<pdfrwt beam="1">  1       21 0.22418120E-01 0.51957244E+01</pdfrwt>
<pdfrwt beam="2">  1       21 0.68541385E-04 0.51957244E+01</pdfrwt>
<totfact> 0.10656157E+09</totfact>
</mgrwt>
</event>
<event>
 4    1  0.3964155E+006  0.5905791E+01  0.7546771E-02  0.2427849E+00
         21   -1    0    0  503  502  0.00000000000E+00  0.00000000000E+00  0.35421102788E+01  0.35421102788E+01  0.00000000000E+00 0.  1.
         21   -1    0    0  501  503 -0.00000000000E+00 -0.00000000000E+00 -0.11924651440E+02  0.11924651440E+02  0.00000000000E+00 0.  1.
          5    1    1    2  501    0  0.34571114693E+01  0.91473625321E+00 -0.74194408695E+01  0.94829565506E+01  0.47000000000E+01 0.  1.
         -5    1    1    2    0  502 -0.34571114693E+01 -0.91473625321E+00 -0.96310029219E+00  0.59838051687E+01  0.47000000000E+01 0.  1.
<mgrwt>
<rscale>  2 0.59057906E+01</rscale>
<asrwt>0</asrwt>
<pdfrwt beam="1">  1       21 0.54494004E-03 0.59057906E+01</pdfrwt>
<pdfrwt beam="2">  1       21 0.18345618E-02 0.59057906E+01</pdfrwt>
<totfact> 0.30750236E+09</totfact>
</mgrwt>
</event>
<event>
 4    1  0.3964155E+006  0.5153042E+01  0.7546771E-02  0.2540700E+00
         21   -1    0    0  503  502  0.00000000000E+00  0.00000000000E+00  0.22090441081E+01  0.22090441081E+01  0.00000000000E+00 0. -1.
         21   -1    0    0  501  503 -0.00000000000E+00 -0.00000000000E+00 -0.39771852665E+02  0.39771852665E+02  0.00000000000E+00 0.  1.
          5    1    1    2  501    0 -0.37817076963E+00 -0.20786614201E+01 -0.36315193067E+02  0.36678973458E+02  0.47000000000E+01 0.  1.
         -5    1    1    2    0  502  0.37817076963E+00  0.20786614201E+01 -0.12476154899E+01  0.53019233153E+01  0.47000000000E+01 0. -1.
<mgrwt>
<rscale>  2 0.51530424E+01</rscale>
<asrwt>0</asrwt>
<pdfrwt beam="1">  1       21 0.33985297E-03 0.51530424E+01</pdfrwt>
<pdfrwt beam="2">  1       21 0.61187460E-02 0.51530424E+01</pdfrwt>
<totfact> 0.90630376E+08</totfact>
</mgrwt>
</event>
<event>
 4    1  0.3964155E+006  0.9040194E+01  0.7546771E-02  0.2134114E+00
         21   -1    0    0  501  502  0.00000000000E+00  0.00000000000E+00  0.55313065644E+01  0.55313065644E+01  0.00000000000E+00 0. -1.
         21   -1    0    0  502  503 -0.00000000000E+00 -0.00000000000E+00 -0.32696670619E+02  0.32696670619E+02  0.00000000000E+00 0. -1.
          5    1    1    2  501    0  0.76220123796E+01 -0.12409792284E+01  0.56836901586E+00  0.90580431385E+01  0.47000000000E+01 0. -1.
         -5    1    1    2    0  503 -0.76220123796E+01  0.12409792284E+01 -0.27733733071E+02  0.29169934045E+02  0.47000000000E+01 0. -1.
<mgrwt>
<rscale>  2 0.90401937E+01</rscale>
<asrwt>0</asrwt>
<pdfrwt beam="1">  1       21 0.85097026E-03 0.90401937E+01</pdfrwt>
<pdfrwt beam="2">  1       21 0.50302569E-02 0.90401937E+01</pdfrwt>
<totfact> 0.50490549E+08</totfact>
</mgrwt>
</event>
<event>
 4    1  0.3964155E+006  0.5943057E+01  0.7546771E-02  0.2422894E+00
         21   -1    0    0  503  502  0.00000000000E+00  0.00000000000E+00  0.82011110371E+02  0.82011110371E+02  0.00000000000E+00 0.  1.
         21   -1    0    0  501  503 -0.00000000000E+00 -0.00000000000E+00 -0.43088489812E+00  0.43088489812E+00  0.00000000000E+00 0.  1.
          5    1    1    2  501    0 -0.18987478321E+01  0.31023673297E+01  0.41705400148E+02  0.42126717507E+02  0.47000000000E+01 0.  1.
         -5    1    1    2    0  502  0.18987478321E+01 -0.31023673297E+01  0.39874825325E+02  0.40315277763E+02  0.47000000000E+01 0.  1.
<mgrwt>
<rscale>  2 0.59430570E+01</rscale>
<asrwt>0</asrwt>
<pdfrwt beam="1">  1       21 0.12617081E-01 0.59430570E+01</pdfrwt>
<pdfrwt beam="2">  1       21 0.66290050E-04 0.59430570E+01</pdfrwt>
<totfact> 0.31077652E+09</totfact>
</mgrwt>
</event>
<event>
 4    1  0.3964155E+006  0.4973365E+01  0.7546771E-02  0.2571901E+00
         21   -1    0    0  501  502  0.00000000000E+00  0.00000000000E+00  0.61300868485E+01  0.61300868485E+01  0.00000000000E+00 0. -1.
         21   -1    0    0  502  503 -0.00000000000E+00 -0.00000000000E+00 -0.40852859836E+01  0.40852859836E+01  0.00000000000E+00 0. -1.
          5    1    1    2  501    0  0.92576121821E+00 -0.13369098069E+01  0.45522727991E+00  0.49941559388E+01  0.47000000000E+01 0.  1.
         -5    1    1    2    0  503 -0.92576121821E+00  0.13369098069E+01  0.15895735850E+01  0.52212168933E+01  0.47000000000E+01 0.  1.
<mgrwt>
<rscale>  2 0.49733652E+01</rscale>
<asrwt>0</asrwt>
<pdfrwt beam="1">  1       21 0.94309029E-03 0.49733652E+01</pdfrwt>
<pdfrwt beam="2">  1       21 0.62850553E-03 0.49733652E+01</pdfrwt>
<totfact> 0.54505677E+09</totfact>
</mgrwt>
</event>
<event>
 4    1  0.3964155E+006  0.6335149E+01  0.7546771E-02  0.2373743E+00
         21   -1    0    0  503  502  0.00000000000E+00  0.00000000000E+00  0.85168481393E-01  0.85168481393E-01  0.00000000000E+00 0.  1.
         21   -1    0    0  501  503 -0.00000000000E+00 -0.00000000000E+00 -0.14884014154E+04  0.14884014154E+04  0.00000000000E+00 0.  1.
          5    1    1    2  501    0  0.31833228651E+00  0.42358919330E+01 -0.13594079970E+04  0.13594227585E+04  0.47000000000E+01 0.  1.
         -5    1    1    2    0  502 -0.31833228651E+00 -0.42358919330E+01 -0.12890824992E+03  0.12906382534E+03  0.47000000000E+01 0.  1.
<mgrwt>
<rscale>  2 0.63351492E+01</rscale>
<asrwt>0</asrwt>
<pdfrwt beam="1">  1       21 0.13102596E-04 0.63351492E+01</pdfrwt>
<pdfrwt beam="2">  1       21 0.22898915E+00 0.63351492E+01</pdfrwt>
<totfact> 0.12745872E+08</totfact>
</mgrwt>
</event>
<event>
 4    1  0.3964155E+006  0.5227118E+01  0.7546771E-02  0.2528375E+00
         21   -1    0    0  501  502  0.00000000000E+00  0.00000000000E+00  0.72777245238E+00  0.72777245238E+00  0.00000000000E+00 0. -1.
         21   -1    0    0  502  503 -0.00000000000E+00 -0.00000000000E+00 -0.72647077138E+02  0.72647077138E+02  0.00000000000E+00 0. -1.
          5    1    1    2  501    0 -0.21585662291E+01  0.75719825507E+00 -0.10456905018E+02  0.11690578254E+02  0.47000000000E+01 0. -1.
         -5    1    1    2    0  503  0.21585662291E+01 -0.75719825507E+00 -0.61462399668E+02  0.61684271337E+02  0.47000000000E+01 0. -1.
<mgrwt>
<rscale>  2 0.52271175E+01</rscale>
<asrwt>0</asrwt>
<pdfrwt beam="1">  1       21 0.11196501E-03 0.52271175E+01</pdfrwt>
<pdfrwt beam="2">  1       21 0.11176472E-01 0.52271175E+01</pdfrwt>
<totfact> 0.16604642E+09</totfact>
</mgrwt>
</event>
<event>
 4    1  0.3964155E+006  0.4848966E+01  0.7546771E-02  0.2594665E+00
         21   -1    0    0  501  502  0.00000000000E+00  0.00000000000E+00  0.10777244804E+01  0.10777244804E+01  0.00000000000E+00 0. -1.
         21   -1    0    0  502  503 -0.00000000000E+00 -0.00000000000E+00 -0.26756909823E+02  0.26756909823E+02  0.00000000000E+00 0. -1.
          5    1    1    2  501    0  0.99982708681E+00  0.65024546944E+00 -0.68595138015E+01  0.84003215991E+01  0.47000000000E+01 0.  1.
         -5    1    1    2    0  503 -0.99982708681E+00 -0.65024546944E+00 -0.18819671541E+02  0.19434312704E+02  0.47000000000E+01 0.  1.
<mgrwt>
<rscale>  2 0.48489662E+01</rscale>
<asrwt>0</asrwt>
<pdfrwt beam="1">  1       21 0.16580378E-03 0.48489662E+01</pdfrwt>
<pdfrwt beam="2">  1       21 0.41164473E-02 0.48489662E+01</pdfrwt>
<totfact> 0.40180008E+09</totfact>
</mgrwt>
</event>
<event>
 4    1  0.3964155E+006  0.6854760E+01  0.7546771E-02  0.2315890E+00
         21   -1    0    0  501  502  0.00000000000E+00  0.00000000000E+00  0.13633463766E+03  0.13633463766E+03  0.00000000000E+00 0. -1.
         21   -1    0    0  502  503 -0.00000000000E+00 -0.00000000000E+00 -0.41141628384E+00  0.41141628384E+00  0.00000000000E+00 0. -1.
          5    1    1    2  501    0  0.46281732801E+01  0.18648728299E+01  0.95505326867E+02  0.95751006254E+02  0.47000000000E+01 0. -1.
         -5    1    1    2    0  503 -0.46281732801E+01 -0.18648728299E+01  0.40417894510E+02  0.40995047691E+02  0.47000000000E+01 0. -1.
<mgrwt>
<rscale>  2 0.68547603E+01</rscale>
<asrwt>0</asrwt>
<pdfrwt beam="1">  1       21 0.20974524E-01 0.68547603E+01</pdfrwt>
<pdfrwt beam="2">  1       21 0.63294922E-04 0.68547603E+01</pdfrwt>
<totfact> 0.16453523E+09</totfact>
</mgrwt>
</event>
<event>
 4    1  0.3964155E+006  0.7636313E+01  0.7546771E-02  0.2241255E+00
         21   -1    0    0  501  502  0.00000000000E+00  0.00000000000E+00  0.13986033769E+00  0.13986033769E+00  0.00000000000E+00 0.  1.
         21   -1    0    0  502  503 -0.00000000000E+00 -0.00000000000E+00 -0.61259445941E+03  0.61259445941E+03  0.00000000000E+00 0. -1.
          5    1    1    2  501    0 -0.43246697406E+01  0.41857505659E+01 -0.13308575318E+03  0.13330465474E+03  0.47000000000E+01 0.  1.
         -5    1    1    2    0  503  0.43246697406E+01 -0.41857505659E+01 -0.47936884590E+03  0.47942966501E+03  0.47000000000E+01 0. -1.
<mgrwt>
<rscale>  2 0.76363130E+01</rscale>
<asrwt>0</asrwt>
<pdfrwt beam="1">  1       21 0.21517152E-04 0.76363130E+01</pdfrwt>
<pdfrwt beam="2">  1       21 0.94244527E-01 0.76363130E+01</pdfrwt>
<totfact> 0.49794451E+08</totfact>
</mgrwt>
</event>
<event>
 4    1  0.3964155E+006  0.6709321E+01  0.7546771E-02  0.2331336E+00
         21   -1    0    0  503  502  0.00000000000E+00  0.00000000000E+00  0.29613064737E+03  0.29613064737E+03  0.00000000000E+00 0. -1.
         21   -1    0    0  501  503 -0.00000000000E+00 -0.00000000000E+00 -0.20753281398E+00  0.20753281398E+00  0.00000000000E+00 0. -1.
          5    1    1    2  501    0  0.45482046311E+01 -0.14962703058E+01  0.71322931411E+02  0.71637808002E+02  0.47000000000E+01 0. -1.
         -5    1    1    2    0  502 -0.45482046311E+01  0.14962703058E+01  0.22460018315E+03  0.22470037219E+03  0.47000000000E+01 0. -1.
<mgrwt>
<rscale>  2 0.67093211E+01</rscale>
<asrwt>0</asrwt>
<pdfrwt beam="1">  1       21 0.45558223E-01 0.67093211E+01</pdfrwt>
<pdfrwt beam="2">  1       21 0.31928362E-04 0.67093211E+01</pdfrwt>
<totfact> 0.10806943E+09</totfact>
</mgrwt>
</event>
<event>
 4    1  0.3964155E+006  0.6094387E+01  0.7546771E-02  0.2403299E+00
         21   -1    0    0  503  502  0.00000000000E+00  0.00000000000E+00  0.92421901566E+02  0.92421901566E+02  0.00000000000E+00 0. -1.
         21   -1    0    0  501  503 -0.00000000000E+00 -0.00000000000E+00 -0.40764371653E+00  0.40764371653E+00  0.00000000000E+00 0.  1.
          5    1    1    2  501    0  0.19738947384E+01 -0.33399545373E+01  0.40483087328E+02  0.40939246651E+02  0.47000000000E+01 0.  1.
         -5    1    1    2    0  502 -0.19738947384E+01  0.33399545373E+01  0.51531170521E+02  0.51890298631E+02  0.47000000000E+01 0. -1.
<mgrwt>
<rscale>  2 0.60943873E+01</rscale>
<asrwt>0</asrwt>
<pdfrwt beam="1">  1       21 0.14218737E-01 0.60943873E+01</pdfrwt>
<pdfrwt beam="2">  1       21 0.62714491E-04 0.60943873E+01</pdfrwt>
<totfact> 0.28359546E+09</totfact>
</mgrwt>
</event>
<event>
 4    1  0.3964155E+006  0.7423343E+01  0.7546771E-02  0.2260319E+00
         21   -1    0    0  503  502  0.00000000000E+00  0.00000000000E+00  0.50907109349E+01  0.50907109349E+01  0.00000000000E+00 0. -1.
         21   -1    0    0  501  503 -0.00000000000E+00 -0.00000000000E+00 -0.23337195049E+02  0.23337195049E+02  0.00000000000E+00 0. -1.
          5    1    1    2  501    0  0.19552736350E+01  0.54030477829E+01 -0.19531078410E+02  0.20894234712E+02  0.47000000000E+01 0. -1.
         -5    1    1    2    0  502 -0.19552736350E+01 -0.54030477829E+01  0.12845942959E+01  0.75336712722E+01  0.47000000000E+01 0. -1.
<mgrwt>
<rscale>  2 0.74233429E+01</rscale>
<asrwt>0</asrwt>
<pdfrwt beam="1">  1       21 0.78318631E-03 0.74233429E+01</pdfrwt>
<pdfrwt beam="2">  1       21 0.35903376E-02 0.74233429E+01</pdfrwt>
<totfact> 0.83250997E+08</totfact>
</mgrwt>
</event>
<event>
 4    1  0.3964155E+006  0.5347388E+01  0.7546771E-02  0.2508986E+00
         21   -1    0    0  503  502  0.00000000000E+00  0.00000000000E+00  0.15300948719E+01  0.15300948719E+01  0.00000000000E+00 0.  1.
         21   -1    0    0  501  503 -0.00000000000E+00 -0.00000000000E+00 -0.91537935632E+02  0.91537935632E+02  0.00000000000E+00 0.  1.
          5    1    1    2  501    0 -0.19910987357E+01 -0.15937639949E+01 -0.86516935230E+02  0.86682031814E+02  0.47000000000E+01 0.  1.
         -5    1    1    2    0  502  0.19910987357E+01  0.15937639949E+01 -0.34909055305E+01  0.63859986901E+01  0.47000000000E+01 0.  1.
<mgrwt>
<rscale>  2 0.53473879E+01</rscale>
<asrwt>0</asrwt>
<pdfrwt beam="1">  1       21 0.23539921E-03 0.53473879E+01</pdfrwt>
<pdfrwt beam="2">  1       21 0.14082759E-01 0.53473879E+01</pdfrwt>
<totfact> 0.43665397E+08</totfact>
</mgrwt>
</event>
<event>
 4    1  0.3964155E+006  0.7651683E+01  0.7546771E-02  0.2239912E+00
         21   -1    0    0  503  502  0.00000000000E+00  0.00000000000E+00  0.48604372382E+03  0.48604372382E+03  0.00000000000E+00 0. -1.
         21   -1    0    0  501  503 -0.00000000000E+00 -0.00000000000E+00 -0.17560263193E+00  0.17560263193E+00  0.00000000000E+00 0. -1.
          5    1    1    2  501    0 -0.44015599304E+01  0.41333424487E+01  0.10670017786E+03  0.10697418476E+03  0.47000000000E+01 0. -1.
         -5    1    1    2    0  502  0.44015599304E+01 -0.41333424487E+01  0.37916794333E+03  0.37924514170E+03  0.47000000000E+01 0. -1.
<mgrwt>
<rscale>  2 0.76516828E+01</rscale>
<asrwt>0</asrwt>
<pdfrwt beam="1">  1       21 0.74774881E-01 0.76516828E+01</pdfrwt>
<pdfrwt beam="2">  1       21 0.27016179E-04 0.76516828E+01</pdfrwt>
<totfact> 0.58195329E+08</totfact>
</mgrwt>
</event>
<event>
 4    1  0.3964155E+006  0.5514302E+01  0.7546771E-02  0.2483278E+00
         21   -1    0    0  501  502  0.00000000000E+00  0.00000000000E+00  0.23123521720E+00  0.23123521720E+00  0.00000000000E+00 0. -1.
         21   -1    0    0  502  503 -0.00000000000E+00 -0.00000000000E+00 -0.13385340822E+03  0.13385340822E+03  0.00000000000E+00 0. -1.
          5    1    1    2  501    0 -0.11236673134E+01  0.26561048209E+01 -0.57922206336E+02  0.58184100129E+02  0.47000000000E+01 0. -1.
         -5    1    1    2    0  503  0.11236673134E+01 -0.26561048209E+01 -0.75699966671E+02  0.75900543312E+02  0.47000000000E+01 0. -1.
<mgrwt>
<rscale>  2 0.55143015E+01</rscale>
<asrwt>0</asrwt>
<pdfrwt beam="1">  1       21 0.35574700E-04 0.55143015E+01</pdfrwt>
<pdfrwt beam="2">  1       21 0.20592802E-01 0.55143015E+01</pdfrwt>
<totfact> 0.30788327E+09</totfact>
</mgrwt>
</event>
<event>
 4    1  0.3964155E+006  0.6178818E+01  0.7546771E-02  0.2392715E+00
         21   -1    0    0  501  502  0.00000000000E+00  0.00000000000E+00  0.26060143219E+00  0.26060143219E+00  0.00000000000E+00 0. -1.
         21   -1    0    0  502  503 -0.00000000000E+00 -0.00000000000E+00 -0.16279166486E+03  0.16279166486E+03  0.00000000000E+00 0. -1.
          5    1    1    2  501    0 -0.21454436655E+01 -0.33889324736E+01 -0.55473844202E+02  0.55816889759E+02  0.47000000000E+01 0. -1.
         -5    1    1    2    0  503  0.21454436655E+01  0.33889324736E+01 -0.10705721923E+03  0.10723537653E+03  0.47000000000E+01 0. -1.
<mgrwt>
<rscale>  2 0.61788180E+01</rscale>
<asrwt>0</asrwt>
<pdfrwt beam="1">  1       21 0.40092667E-04 0.61788180E+01</pdfrwt>
<pdfrwt beam="2">  1       21 0.25044784E-01 0.61788180E+01</pdfrwt>
<totfact> 0.20966829E+09</totfact>
</mgrwt>
</event>
<event>
 4    1  0.3964155E+006  0.5761892E+01  0.7546771E-02  0.2447484E+00
         21   -1    0    0  501  502  0.00000000000E+00  0.00000000000E+00  0.22036324307E+02  0.22036324307E+02  0.00000000000E+00 0. -1.
         21   -1    0    0  502  503 -0.00000000000E+00 -0.00000000000E+00 -0.42626226280E+01  0.42626226280E+01  0.00000000000E+00 0. -1.
          5    1    1    2  501    0  0.14675795140E+01 -0.29925915533E+01  0.19460215557E+02  0.20295304466E+02  0.47000000000E+01 0. -1.
         -5    1    1    2    0  503 -0.14675795140E+01  0.29925915533E+01 -0.16865138781E+01  0.60036424690E+01  0.47000000000E+01 0. -1.
<mgrwt>
<rscale>  2 0.57618915E+01</rscale>
<asrwt>0</asrwt>
<pdfrwt beam="1">  1       21 0.33902037E-02 0.57618915E+01</pdfrwt>
<pdfrwt beam="2">  1       21 0.65578811E-03 0.57618915E+01</pdfrwt>
<totfact> 0.95889663E+08</totfact>
</mgrwt>
</event>
<event>
 4    1  0.3964155E+006  0.7109693E+01  0.7546771E-02  0.2290075E+00
         21   -1    0    0  503  502  0.00000000000E+00  0.00000000000E+00  0.93250607334E+01  0.93250607334E+01  0.00000000000E+00 0.  1.
         21   -1    0    0  501  503 -0.00000000000E+00 -0.00000000000E+00 -0.57680589527E+01  0.57680589527E+01  0.00000000000E+00 0.  1.
          5    1    1    2  501    0 -0.53197881202E+01 -0.39696739788E+00  0.36306055174E+01  0.79830461092E+01  0.47000000000E+01 0.  1.
         -5    1    1    2    0  502  0.53197881202E+01  0.39696739788E+00 -0.73603736699E-01  0.71100735769E+01  0.47000000000E+01 0.  1.
<mgrwt>
<rscale>  2 0.71096926E+01</rscale>
<asrwt>0</asrwt>
<pdfrwt beam="1">  1       21 0.14346247E-02 0.71096926E+01</pdfrwt>
<pdfrwt beam="2">  1       21 0.88739368E-03 0.71096926E+01</pdfrwt>
<totfact> 0.25763792E+09</totfact>
</mgrwt>
</event>
<event>
 4    1  0.3964155E+006  0.6847372E+01  0.7546771E-02  0.2316661E+00
         21   -1    0    0  501  502  0.00000000000E+00  0.00000000000E+00  0.11465079391E+01  0.11465079391E+01  0.00000000000E+00 0. -1.
         21   -1    0    0  502  503 -0.00000000000E+00 -0.00000000000E+00 -0.43759533896E+03  0.43759533896E+03  0.00000000000E+00 0.  1.
          5    1    1    2  501    0  0.48443345991E+01 -0.11527904274E+01 -0.93554209334E+01  0.11593550117E+02  0.47000000000E+01 0. -1.
         -5    1    1    2    0  503 -0.48443345991E+01  0.11527904274E+01 -0.42709341009E+03  0.42714829679E+03  0.47000000000E+01 0.  1.
<mgrwt>
<rscale>  2 0.68473720E+01</rscale>
<asrwt>0</asrwt>
<pdfrwt beam="1">  1       21 0.17638568E-03 0.68473720E+01</pdfrwt>
<pdfrwt beam="2">  1       21 0.67322420E-01 0.68473720E+01</pdfrwt>
<totfact> 0.52859068E+07</totfact>
</mgrwt>
</event>
<event>
 4    1  0.3964155E+006  0.9498814E+01  0.7546771E-02  0.2104685E+00
         21   -1    0    0  503  502  0.00000000000E+00  0.00000000000E+00  0.40362407282E+00  0.40362407282E+00  0.00000000000E+00 0. -1.
         21   -1    0    0  501  503 -0.00000000000E+00 -0.00000000000E+00 -0.24834298068E+03  0.24834298068E+03  0.00000000000E+00 0.  1.
          5    1    1    2  501    0  0.11749438825E+01  0.81704936646E+01 -0.84666813434E+02  0.85197985638E+02  0.47000000000E+01 0. -1.
         -5    1    1    2    0  502 -0.11749438825E+01 -0.81704936646E+01 -0.16327254318E+03  0.16354861912E+03  0.47000000000E+01 0.  1.
<mgrwt>
<rscale>  2 0.94988136E+01</rscale>
<asrwt>0</asrwt>
<pdfrwt beam="1">  1       21 0.62095756E-04 0.94988136E+01</pdfrwt>
<pdfrwt beam="2">  1       21 0.38206770E-01 0.94988136E+01</pdfrwt>
<totfact> 0.74348702E+08</totfact>
</mgrwt>
</event>
<event>
 4    1  0.3964155E+006  0.4703569E+01  0.7546771E-02  0.2622589E+00
         21   -1    0    0  503  502  0.00000000000E+00  0.00000000000E+00  0.12619718030E+01  0.12619718030E+01  0.00000000000E+00 0.  1.
         21   -1    0    0  501  503 -0.00000000000E+00 -0.00000000000E+00 -0.26277749498E+02  0.26277749498E+02  0.00000000000E+00 0.  1.
          5    1    1    2  501    0  0.13888485331E+00 -0.11945625612E+00 -0.20452271612E+02  0.20986161461E+02  0.47000000000E+01 0.  1.
         -5    1    1    2    0  502 -0.13888485331E+00  0.11945625612E+00 -0.45635060831E+01  0.65535598395E+01  0.47000000000E+01 0.  1.
<mgrwt>
<rscale>  2 0.47035687E+01</rscale>
<asrwt>0</asrwt>
<pdfrwt beam="1">  1       21 0.19414952E-03 0.47035687E+01</pdfrwt>
<pdfrwt beam="2">  1       21 0.40427305E-02 0.47035687E+01</pdfrwt>
<totfact> 0.32332634E+09</totfact>
</mgrwt>
</event>
<event>
 4    1  0.3964155E+006  0.5155108E+01  0.7546771E-02  0.2540352E+00
         21   -1    0    0  503  502  0.00000000000E+00  0.00000000000E+00  0.47879562876E+01  0.47879562876E+01  0.00000000000E+00 0.  1.
         21   -1    0    0  501  503 -0.00000000000E+00 -0.00000000000E+00 -0.18764657893E+02  0.18764657893E+02  0.00000000000E+00 0.  1.
          5    1    1    2  501    0  0.70738867323E+00 -0.19961804226E+01 -0.16870694899E+02  0.17640733584E+02  0.47000000000E+01 0.  1.
         -5    1    1    2    0  502 -0.70738867323E+00  0.19961804226E+01  0.28939932929E+01  0.59118805971E+01  0.47000000000E+01 0.  1.
<mgrwt>
<rscale>  2 0.51551077E+01</rscale>
<asrwt>0</asrwt>
<pdfrwt beam="1">  1       21 0.73660867E-03 0.51551077E+01</pdfrwt>
<pdfrwt beam="2">  1       21 0.28868704E-02 0.51551077E+01</pdfrwt>
<totfact> 0.93356564E+08</totfact>
</mgrwt>
</event>
<event>
 4    1  0.3964155E+006  0.5817801E+01  0.7546771E-02  0.2439758E+00
         21   -1    0    0  503  502  0.00000000000E+00  0.00000000000E+00  0.27586854985E+03  0.27586854985E+03  0.00000000000E+00 0.  1.
         21   -1    0    0  501  503 -0.00000000000E+00 -0.00000000000E+00 -0.33999450846E+00  0.33999450846E+00  0.00000000000E+00 0.  1.
          5    1    1    2  501    0 -0.50547941219E+00 -0.33913560301E+01  0.27355463448E+02  0.27967269899E+02  0.47000000000E+01 0.  1.
         -5    1    1    2    0  502  0.50547941219E+00  0.33913560301E+01  0.24817309189E+03  0.24824127446E+03  0.47000000000E+01 0.  1.
<mgrwt>
<rscale>  2 0.58178007E+01</rscale>
<asrwt>0</asrwt>
<pdfrwt beam="1">  1       21 0.42441136E-01 0.58178007E+01</pdfrwt>
<pdfrwt beam="2">  1       21 0.52307068E-04 0.58178007E+01</pdfrwt>
<totfact> 0.57224831E+08</totfact>
</mgrwt>
</event>
<event>
 4    1  0.3964155E+006  0.6749935E+01  0.7546771E-02  0.2326967E+00
         21   -1    0    0  503  502  0.00000000000E+00  0.00000000000E+00  0.63811122387E+02  0.63811122387E+02  0.00000000000E+00 0.  1.
         21   -1    0    0  501  503 -0.00000000000E+00 -0.00000000000E+00 -0.24474320007E+01  0.24474320007E+01  0.00000000000E+00 0.  1.
          5    1    1    2  501    0  0.44469186487E+01 -0.19226375773E+01  0.28007963385E+01  0.73079464182E+01  0.47000000000E+01 0.  1.
         -5    1    1    2    0  502 -0.44469186487E+01  0.19226375773E+01  0.58562894048E+02  0.58950607969E+02  0.47000000000E+01 0.  1.
<mgrwt>
<rscale>  2 0.67499349E+01</rscale>
<asrwt>0</asrwt>
<pdfrwt beam="1">  1       21 0.98170945E-02 0.67499349E+01</pdfrwt>
<pdfrwt beam="2">  1       21 0.37652805E-03 0.67499349E+01</pdfrwt>
<totfact> 0.47656440E+08</totfact>
</mgrwt>
</event>
<event>
 4    1  0.3964155E+006  0.5493545E+01  0.7546771E-02  0.2486403E+00
         21   -1    0    0  503  502  0.00000000000E+00  0.00000000000E+00  0.26447085510E+01  0.26447085510E+01  0.00000000000E+00 0. -1.
         21   -1    0    0  501  503 -0.00000000000E+00 -0.00000000000E+00 -0.32612501410E+02  0.32612501410E+02  0.00000000000E+00 0. -1.
          5    1    1    2  501    0  0.33970248539E+00  0.28237631843E+01 -0.29197629828E+02  0.29709941499E+02  0.47000000000E+01 0. -1.
         -5    1    1    2    0  502 -0.33970248539E+00 -0.28237631843E+01 -0.77016303130E+00  0.55472684624E+01  0.47000000000E+01 0. -1.
<mgrwt>
<rscale>  2 0.54935450E+01</rscale>
<asrwt>0</asrwt>
<pdfrwt beam="1">  1       21 0.40687825E-03 0.54935450E+01</pdfrwt>
<pdfrwt beam="2">  1       21 0.50173078E-02 0.54935450E+01</pdfrwt>
<totfact> 0.10051117E+09</totfact>
</mgrwt>
</event>
<event>
 4    1  0.3964155E+006  0.4980111E+01  0.7546771E-02  0.2570694E+00
         21   -1    0    0  503  502  0.00000000000E+00  0.00000000000E+00  0.67260656727E+00  0.67260656727E+00  0.00000000000E+00 0. -1.
         21   -1    0    0  501  503 -0.00000000000E+00 -0.00000000000E+00 -0.40315006673E+02  0.40315006673E+02  0.00000000000E+00 0. -1.
          5    1    1    2  501    0  0.28176459167E+00 -0.16223788345E+01 -0.25808759896E+02  0.26284854797E+02  0.47000000000E+01 0.  1.
         -5    1    1    2    0  502 -0.28176459167E+00  0.16223788345E+01 -0.13833640210E+02  0.14702758443E+02  0.47000000000E+01 0.  1.
<mgrwt>
<rscale>  2 0.49801109E+01</rscale>
<asrwt>0</asrwt>
<pdfrwt beam="1">  1       21 0.10347793E-03 0.49801109E+01</pdfrwt>
<pdfrwt beam="2">  1       21 0.62023092E-02 0.49801109E+01</pdfrwt>
<totfact> 0.42559882E+09</totfact>
</mgrwt>
</event>
<event>
 4    1  0.3964155E+006  0.5517718E+01  0.7546771E-02  0.2482766E+00
         21   -1    0    0  501  502  0.00000000000E+00  0.00000000000E+00  0.35274494733E+03  0.35274494733E+03  0.00000000000E+00 0.  1.
         21   -1    0    0  502  503 -0.00000000000E+00 -0.00000000000E+00 -0.40498568602E+00  0.40498568602E+00  0.00000000000E+00 0.  1.
          5    1    1    2  501    0 -0.77657227869E+00 -0.27842679017E+01  0.33280330135E+03  0.33284903876E+03  0.47000000000E+01 0.  1.
         -5    1    1    2    0  503  0.77657227869E+00  0.27842679017E+01  0.19536660290E+02  0.20300894255E+02  0.47000000000E+01 0.  1.
<mgrwt>
<rscale>  2 0.55177180E+01</rscale>
<asrwt>0</asrwt>
<pdfrwt beam="1">  1       21 0.54268208E-01 0.55177180E+01</pdfrwt>
<pdfrwt beam="2">  1       21 0.62305772E-04 0.55177180E+01</pdfrwt>
<totfact> 0.28145227E+08</totfact>
</mgrwt>
</event>
<event>
 4    1  0.3964155E+006  0.5011090E+01  0.7546771E-02  0.2565190E+00
         21   -1    0    0  501  502  0.00000000000E+00  0.00000000000E+00  0.51402885079E+00  0.51402885079E+00  0.00000000000E+00 0. -1.
         21   -1    0    0  502  503 -0.00000000000E+00 -0.00000000000E+00 -0.11632281282E+03  0.11632281282E+03  0.00000000000E+00 0. -1.
          5    1    1    2  501    0  0.14730078457E+01  0.92264528987E+00 -0.13412867865E+02  0.14318381571E+02  0.47000000000E+01 0. -1.
         -5    1    1    2    0  503 -0.14730078457E+01 -0.92264528987E+00 -0.10239591611E+03  0.10251846010E+03  0.47000000000E+01 0. -1.
<mgrwt>
<rscale>  2 0.50110903E+01</rscale>
<asrwt>0</asrwt>
<pdfrwt beam="1">  1       21 0.79081384E-04 0.50110903E+01</pdfrwt>
<pdfrwt beam="2">  1       21 0.17895812E-01 0.50110903E+01</pdfrwt>
<totfact> 0.12220676E+09</totfact>
</mgrwt>
</event>
<event>
 4    1  0.3964155E+006  0.5056065E+01  0.7546771E-02  0.2557303E+00
         21   -1    0    0  501  502  0.00000000000E+00  0.00000000000E+00  0.19017711335E+02  0.19017711335E+02  0.00000000000E+00 0. -1.
         21   -1    0    0  502  503 -0.00000000000E+00 -0.00000000000E+00 -0.14207392460E+01  0.14207392460E+01  0.00000000000E+00 0. -1.
          5    1    1    2  501    0 -0.16225343654E+00 -0.18567364475E+01  0.11170267680E+02  0.12261267326E+02  0.47000000000E+01 0.  1.
         -5    1    1    2    0  503  0.16225343654E+00  0.18567364475E+01  0.64267044092E+01  0.81771832544E+01  0.47000000000E+01 0.  1.
<mgrwt>
<rscale>  2 0.50560653E+01</rscale>
<asrwt>0</asrwt>
<pdfrwt beam="1">  1       21 0.29258016E-02 0.50560653E+01</pdfrwt>
<pdfrwt beam="2">  1       21 0.21857528E-03 0.50560653E+01</pdfrwt>
<totfact> 0.47379689E+09</totfact>
</mgrwt>
</event>
<event>
 4    1  0.3964155E+006  0.6538462E+01  0.7546771E-02  0.2350202E+00
         21   -1    0    0  501  502  0.00000000000E+00  0.00000000000E+00  0.14548971886E+04  0.14548971886E+04  0.00000000000E+00 0. -1.
         21   -1    0    0  502  503 -0.00000000000E+00 -0.00000000000E+00 -0.10796122642E+00  0.10796122642E+00  0.00000000000E+00 0.  1.
          5    1    1    2  501    0 -0.40934652636E+01 -0.19761156441E+01  0.13480456338E+04  0.13480614905E+04  0.47000000000E+01 0. -1.
         -5    1    1    2    0  503  0.40934652636E+01  0.19761156441E+01  0.10674359362E+03  0.10694365932E+03  0.47000000000E+01 0.  1.
<mgrwt>
<rscale>  2 0.65384624E+01</rscale>
<asrwt>0</asrwt>
<pdfrwt beam="1">  1       21 0.22381464E+00 0.65384624E+01</pdfrwt>
<pdfrwt beam="2">  1       21 0.16610585E-04 0.65384624E+01</pdfrwt>
<totfact> 0.99311401E+07</totfact>
</mgrwt>
</event>
<event>
 4    1  0.3964155E+006  0.8682383E+01  0.7546771E-02  0.2158772E+00
         21   -1    0    0  501  502  0.00000000000E+00  0.00000000000E+00  0.24582478607E+02  0.24582478607E+02  0.00000000000E+00 0.  1.
         21   -1    0    0  502  503 -0.00000000000E+00 -0.00000000000E+00 -0.42155196744E+01  0.42155196744E+01  0.00000000000E+00 0. -1.
          5    1    1    2  501    0 -0.61345374161E+01  0.39574273708E+01  0.26662449373E+01  0.90825460511E+01  0.47000000000E+01 0. -1.
         -5    1    1    2    0  503  0.61345374161E+01 -0.39574273708E+01  0.17700713995E+02  0.19715452231E+02  0.47000000000E+01 0.  1.
<mgrwt>
<rscale>  2 0.86823834E+01</rscale>
<asrwt>0</asrwt>
<pdfrwt beam="1">  1       21 0.37819197E-02 0.86823834E+01</pdfrwt>
<pdfrwt beam="2">  1       21 0.64854150E-03 0.86823834E+01</pdfrwt>
<totfact> 0.11184513E+09</totfact>
</mgrwt>
</event>
<event>
 4    1  0.3964155E+006  0.4701311E+01  0.7546771E-02  0.2623035E+00
         21   -1    0    0  503  502  0.00000000000E+00  0.00000000000E+00  0.13683731898E+02  0.13683731898E+02  0.00000000000E+00 0.  1.
         21   -1    0    0  501  503 -0.00000000000E+00 -0.00000000000E+00 -0.26058462478E+01  0.26058462478E+01  0.00000000000E+00 0.  1.
          5    1    1    2  501    0  0.61788391987E-01  0.92259074682E-01  0.51714888797E+00  0.47296693874E+01  0.47000000000E+01 0.  1.
         -5    1    1    2    0  502 -0.61788391987E-01 -0.92259074682E-01  0.10560736763E+02  0.11559908759E+02  0.47000000000E+01 0.  1.
<mgrwt>
<rscale>  2 0.47013115E+01</rscale>
<asrwt>0</asrwt>
<pdfrwt beam="1">  1       21 0.21051895E-02 0.47013115E+01</pdfrwt>
<pdfrwt beam="2">  1       21 0.40089943E-03 0.47013115E+01</pdfrwt>
<totfact> 0.30815533E+09</totfact>
</mgrwt>
</event>
<event>
 4    1  0.3964155E+006  0.7175722E+01  0.7546771E-02  0.2283635E+00
         21   -1    0    0  501  502  0.00000000000E+00  0.00000000000E+00  0.13942976091E+01  0.13942976091E+01  0.00000000000E+00 0.  1.
         21   -1    0    0  502  503 -0.00000000000E+00 -0.00000000000E+00 -0.53374797920E+02  0.53374797920E+02  0.00000000000E+00 0.  1.
          5    1    1    2  501    0  0.53744829580E+01  0.71827723938E+00 -0.10789825775E+02  0.12958060407E+02  0.47000000000E+01 0.  1.
         -5    1    1    2    0  503 -0.53744829580E+01 -0.71827723938E+00 -0.41190674536E+02  0.41811035122E+02  0.47000000000E+01 0.  1.
<mgrwt>
<rscale>  2 0.71757222E+01</rscale>
<asrwt>0</asrwt>
<pdfrwt beam="1">  1       21 0.21450736E-03 0.71757222E+01</pdfrwt>
<pdfrwt beam="2">  1       21 0.82115061E-02 0.71757222E+01</pdfrwt>
<totfact> 0.14269159E+09</totfact>
</mgrwt>
</event>
<event>
 4    1  0.3964155E+006  0.9804238E+01  0.7546771E-02  0.2086303E+00
         21   -1    0    0  503  502  0.00000000000E+00  0.00000000000E+00  0.55538437418E+00  0.55538437418E+00  0.00000000000E+00 0.  1.
         21   -1    0    0  501  503 -0.00000000000E+00 -0.00000000000E+00 -0.17771617791E+03  0.17771617791E+03  0.00000000000E+00 0. -1.
          5    1    1    2  501    0  0.70645757430E+01 -0.49117064948E+01 -0.74175580999E+02  0.74820718438E+02  0.47000000000E+01 0.  1.
         -5    1    1    2    0  502 -0.70645757430E+01  0.49117064948E+01 -0.10298521253E+03  0.10345084384E+03  0.47000000000E+01 0. -1.
<mgrwt>
<rscale>  2 0.98042384E+01</rscale>
<asrwt>0</asrwt>
<pdfrwt beam="1">  1       21 0.85443692E-04 0.98042384E+01</pdfrwt>
<pdfrwt beam="2">  1       21 0.27340969E-01 0.98042384E+01</pdfrwt>
<totfact> 0.87844579E+08</totfact>
</mgrwt>
</event>
<event>
 4    1  0.3964155E+006  0.5167211E+01  0.7546771E-02  0.2538319E+00
         21   -1    0    0  503  502  0.00000000000E+00  0.00000000000E+00  0.12787590871E+03  0.12787590871E+03  0.00000000000E+00 0.  1.
         21   -1    0    0  501  503 -0.00000000000E+00 -0.00000000000E+00 -0.21662505395E+00  0.21662505395E+00  0.00000000000E+00 0.  1.
          5    1    1    2  501    0  0.13149065322E+01 -0.16973762501E+01  0.51654466278E+02  0.51912271688E+02  0.47000000000E+01 0. -1.
         -5    1    1    2    0  502 -0.13149065322E+01  0.16973762501E+01  0.76004817382E+02  0.76180262080E+02  0.47000000000E+01 0. -1.
<mgrwt>
<rscale>  2 0.51672106E+01</rscale>
<asrwt>0</asrwt>
<pdfrwt beam="1">  1       21 0.19673156E-01 0.51672106E+01</pdfrwt>
<pdfrwt beam="2">  1       21 0.33327034E-04 0.51672106E+01</pdfrwt>
<totfact> 0.34039667E+09</totfact>
</mgrwt>
</event>
<event>
 4    1  0.3964155E+006  0.8708097E+01  0.7546771E-02  0.2156946E+00
         21   -1    0    0  503  502  0.00000000000E+00  0.00000000000E+00  0.13420499317E+01  0.13420499317E+01  0.00000000000E+00 0.  1.
         21   -1    0    0  501  503 -0.00000000000E+00 -0.00000000000E+00 -0.59773155153E+02  0.59773155153E+02  0.00000000000E+00 0. -1.
          5    1    1    2  501    0  0.48560665603E+01  0.54917733552E+01 -0.36362086405E+02  0.37390269920E+02  0.47000000000E+01 0. -1.
         -5    1    1    2    0  502 -0.48560665603E+01 -0.54917733552E+01 -0.22069018816E+02  0.23724935164E+02  0.47000000000E+01 0.  1.
<mgrwt>
<rscale>  2 0.87080972E+01</rscale>
<asrwt>0</asrwt>
<pdfrwt beam="1">  1       21 0.20646921E-03 0.87080972E+01</pdfrwt>
<pdfrwt beam="2">  1       21 0.91958706E-02 0.87080972E+01</pdfrwt>
<totfact> 0.14392946E+09</totfact>
</mgrwt>
</event>
<event>
 4    1  0.3964155E+006  0.5314957E+01  0.7546771E-02  0.2514141E+00
         21   -1    0    0  501  502  0.00000000000E+00  0.00000000000E+00  0.98028224582E-01  0.98028224582E-01  0.00000000000E+00 0. -1.
         21   -1    0    0  502  503 -0.00000000000E+00 -0.00000000000E+00 -0.29207455576E+03  0.29207455576E+03  0.00000000000E+00 0.  1.
          5    1    1    2  501    0 -0.23869016084E+01  0.67931424511E+00 -0.12909695253E+03  0.12920631532E+03  0.47000000000E+01 0. -1.
         -5    1    1    2    0  503  0.23869016084E+01 -0.67931424511E+00 -0.16287957501E+03  0.16296626867E+03  0.47000000000E+01 0.  1.
<mgrwt>
<rscale>  2 0.53149569E+01</rscale>
<asrwt>0</asrwt>
<pdfrwt beam="1">  1       21 0.15081133E-04 0.53149569E+01</pdfrwt>
<pdfrwt beam="2">  1       21 0.44934940E-01 0.53149569E+01</pdfrwt>
<totfact> 0.25210904E+09</totfact>
</mgrwt>
</event>
<event>
 4    1  0.3964155E+006  0.6018781E+01  0.7546771E-02  0.2412986E+00
         21   -1    0    0  501  502  0.00000000000E+00  0.00000000000E+00  0.17382793198E+01  0.17382793198E+01  0.00000000000E+00 0.  1.
         21   -1    0    0  502  503 -0.00000000000E+00 -0.00000000000E+00 -0.42713883115E+02  0.42713883115E+02  0.00000000000E+00 0.  1.
          5    1    1    2  501    0  0.10706247339E+01 -0.36040927754E+01 -0.45825181434E+01  0.75647336099E+01  0.47000000000E+01 0.  1.
         -5    1    1    2    0  503 -0.10706247339E+01  0.36040927754E+01 -0.36393085652E+02  0.36887428825E+02  0.47000000000E+01 0.  1.
<mgrwt>
<rscale>  2 0.60187808E+01</rscale>
<asrwt>0</asrwt>
<pdfrwt beam="1">  1       21 0.26742762E-03 0.60187808E+01</pdfrwt>
<pdfrwt beam="2">  1       21 0.65713658E-02 0.60187808E+01</pdfrwt>
<totfact> 0.12917288E+09</totfact>
</mgrwt>
</event>
<event>
 4    1  0.3964155E+006  0.5170273E+01  0.7546771E-02  0.2537806E+00
         21   -1    0    0  501  502  0.00000000000E+00  0.00000000000E+00  0.14240933511E+02  0.14240933511E+02  0.00000000000E+00 0. -1.
         21   -1    0    0  502  503 -0.00000000000E+00 -0.00000000000E+00 -0.18914266129E+01  0.18914266129E+01  0.00000000000E+00 0. -1.
          5    1    1    2  501    0 -0.95713341050E+00  0.19301853872E+01  0.54728504151E+01  0.75288652306E+01  0.47000000000E+01 0. -1.
         -5    1    1    2    0  503  0.95713341050E+00 -0.19301853872E+01  0.68766564829E+01  0.86034948932E+01  0.47000000000E+01 0. -1.
<mgrwt>
<rscale>  2 0.51702727E+01</rscale>
<asrwt>0</asrwt>
<pdfrwt beam="1">  1       21 0.21909128E-02 0.51702727E+01</pdfrwt>
<pdfrwt beam="2">  1       21 0.29098872E-03 0.51702727E+01</pdfrwt>
<totfact> 0.49772080E+09</totfact>
</mgrwt>
</event>
<event>
 4    1  0.3964155E+006  0.6495315E+01  0.7546771E-02  0.2355095E+00
         21   -1    0    0  501  502  0.00000000000E+00  0.00000000000E+00  0.10725150062E+03  0.10725150062E+03  0.00000000000E+00 0.  1.
         21   -1    0    0  502  503 -0.00000000000E+00 -0.00000000000E+00 -0.40320224019E+00  0.40320224019E+00  0.00000000000E+00 0. -1.
          5    1    1    2  501    0 -0.34880047280E+01 -0.28165483518E+01  0.61831329887E+02  0.62171556818E+02  0.47000000000E+01 0.  1.
         -5    1    1    2    0  503  0.34880047280E+01  0.28165483518E+01  0.45016968497E+02  0.45483146047E+02  0.47000000000E+01 0.  1.
<mgrwt>
<rscale>  2 0.64953154E+01</rscale>
<asrwt>0</asrwt>
<pdfrwt beam="1">  1       21 0.16500208E-01 0.64953154E+01</pdfrwt>
<pdfrwt beam="2">  1       21 0.62031199E-04 0.64953154E+01</pdfrwt>
<totfact> 0.23935876E+09</totfact>
</mgrwt>
</event>
<event>
 4    1  0.3964155E+006  0.4791630E+01  0.7546771E-02  0.2605501E+00
         21   -1    0    0  501  502  0.00000000000E+00  0.00000000000E+00  0.29206973845E+03  0.29206973845E+03  0.00000000000E+00 0.  1.
         21   -1    0    0  502  503 -0.00000000000E+00 -0.00000000000E+00 -0.14599118199E+00  0.14599118199E+00  0.00000000000E+00 0.  1.
          5    1    1    2  501    0  0.86694623122E+00 -0.34368828026E+00  0.24522279965E+03  0.24526960917E+03  0.47000000000E+01 0.  1.
         -5    1    1    2    0  503 -0.86694623122E+00  0.34368828026E+00  0.46700947616E+02  0.46946120454E+02  0.47000000000E+01 0.  1.
<mgrwt>
<rscale>  2 0.47916299E+01</rscale>
<asrwt>0</asrwt>
<pdfrwt beam="1">  1       21 0.44933338E-01 0.47916299E+01</pdfrwt>
<pdfrwt beam="2">  1       21 0.22460416E-04 0.47916299E+01</pdfrwt>
<totfact> 0.13593542E+09</totfact>
</mgrwt>
</event>
<event>
 4    1  0.3964155E+006  0.5491406E+01  0.7546771E-02  0.2486726E+00
         21   -1    0    0  501  502  0.00000000000E+00  0.00000000000E+00  0.11048598324E+03  0.11048598324E+03  0.00000000000E+00 0.  1.
         21   -1    0    0  502  503 -0.00000000000E+00 -0.00000000000E+00 -0.79514185439E+01  0.79514185439E+01  0.00000000000E+00 0.  1.
          5    1    1    2  501    0 -0.25830755877E+01  0.11803645003E+01  0.10946075650E+03  0.10959841583E+03  0.47000000000E+01 0.  1.
         -5    1    1    2    0  503  0.25830755877E+01 -0.11803645003E+01 -0.69261917996E+01  0.88389859538E+01  0.47000000000E+01 0.  1.
<mgrwt>
<rscale>  2 0.54914060E+01</rscale>
<asrwt>0</asrwt>
<pdfrwt beam="1">  1       21 0.16997842E-01 0.54914060E+01</pdfrwt>
<pdfrwt beam="2">  1       21 0.12232952E-02 0.54914060E+01</pdfrwt>
<totfact> 0.33935030E+07</totfact>
</mgrwt>
</event>
<event>
 4    1  0.3964155E+006  0.9023557E+01  0.7546771E-02  0.2135226E+00
         21   -1    0    0  501  502  0.00000000000E+00  0.00000000000E+00  0.14928693539E+03  0.14928693539E+03  0.00000000000E+00 0.  1.
         21   -1    0    0  502  503 -0.00000000000E+00 -0.00000000000E+00 -0.58908002212E+00  0.58908002212E+00  0.00000000000E+00 0. -1.
          5    1    1    2  501    0  0.38935049320E+01 -0.66464421221E+01  0.94749414833E+02  0.95178128710E+02  0.47000000000E+01 0. -1.
         -5    1    1    2    0  503 -0.38935049320E+01  0.66464421221E+01  0.53948440538E+02  0.54697886705E+02  0.47000000000E+01 0. -1.
<mgrwt>
<rscale>  2 0.90235566E+01</rscale>
<asrwt>0</asrwt>
<pdfrwt beam="1">  1       21 0.22967191E-01 0.90235566E+01</pdfrwt>
<pdfrwt beam="2">  1       21 0.90627814E-04 0.90235566E+01</pdfrwt>
<totfact> 0.10401386E+09</totfact>
</mgrwt>
</event>
<event>
 4    1  0.3964155E+006  0.9334863E+01  0.7546771E-02  0.2114943E+00
         21   -1    0    0  501  502  0.00000000000E+00  0.00000000000E+00  0.11334038769E+03  0.11334038769E+03  0.00000000000E+00 0. -1.
         21   -1    0    0  502  503 -0.00000000000E+00 -0.00000000000E+00 -0.11189852486E+02  0.11189852486E+02  0.00000000000E+00 0.  1.
          5    1    1    2  501    0 -0.14815073142E+01  0.79281024669E+01  0.11116327222E+03  0.11155452821E+03  0.47000000000E+01 0. -1.
         -5    1    1    2    0  503  0.14815073142E+01 -0.79281024669E+01 -0.90127370148E+01  0.12975711971E+02  0.47000000000E+01 0.  1.
<mgrwt>
<rscale>  2 0.93348633E+01</rscale>
<asrwt>0</asrwt>
<pdfrwt beam="1">  1       21 0.17436982E-01 0.93348633E+01</pdfrwt>
<pdfrwt beam="2">  1       21 0.17215158E-02 0.93348633E+01</pdfrwt>
<totfact> 0.25962512E+07</totfact>
</mgrwt>
</event>
<event>
 4    1  0.3964155E+006  0.1285526E+02  0.7546771E-02  0.1941573E+00
         21   -1    0    0  503  502  0.00000000000E+00  0.00000000000E+00  0.47816425932E+02  0.47816425932E+02  0.00000000000E+00 0.  1.
         21   -1    0    0  501  503 -0.00000000000E+00 -0.00000000000E+00 -0.10981992099E+02  0.10981992099E+02  0.00000000000E+00 0. -1.
          5    1    1    2  501    0 -0.30938505952E-01  0.11965229773E+02 -0.59201998808E+01  0.14152966026E+02  0.47000000000E+01 0. -1.
         -5    1    1    2    0  502  0.30938505952E-01 -0.11965229773E+02  0.42754633714E+02  0.44645452005E+02  0.47000000000E+01 0.  1.
<mgrwt>
<rscale>  2 0.12855259E+02</rscale>
<asrwt>0</asrwt>
<pdfrwt beam="1">  1       21 0.73563731E-02 0.12855259E+02</pdfrwt>
<pdfrwt beam="2">  1       21 0.16895373E-02 0.12855259E+02</pdfrwt>
<totfact> 0.12189699E+08</totfact>
</mgrwt>
</event>
<event>
 4    1  0.3964155E+006  0.6528428E+01  0.7546771E-02  0.2351335E+00
         21   -1    0    0  503  502  0.00000000000E+00  0.00000000000E+00  0.24144386765E+03  0.24144386765E+03  0.00000000000E+00 0.  1.
         21   -1    0    0  501  503 -0.00000000000E+00 -0.00000000000E+00 -0.28397244465E+00  0.28397244465E+00  0.00000000000E+00 0.  1.
          5    1    1    2  501    0  0.19720232548E+01 -0.40793984386E+01  0.46233383599E+02  0.46692034935E+02  0.47000000000E+01 0.  1.
         -5    1    1    2    0  502 -0.19720232548E+01  0.40793984386E+01  0.19492651161E+03  0.19503580516E+03  0.47000000000E+01 0.  1.
<mgrwt>
<rscale>  2 0.65284276E+01</rscale>
<asrwt>0</asrwt>
<pdfrwt beam="1">  1       21 0.37145046E-01 0.65284276E+01</pdfrwt>
<pdfrwt beam="2">  1       21 0.43688262E-04 0.65284276E+01</pdfrwt>
<totfact> 0.99823162E+08</totfact>
</mgrwt>
</event>
<event>
 4    1  0.3964155E+006  0.4840991E+01  0.7546771E-02  0.2596159E+00
         21   -1    0    0  501  502  0.00000000000E+00  0.00000000000E+00  0.45749532121E+03  0.45749532121E+03  0.00000000000E+00 0. -1.
         21   -1    0    0  502  503 -0.00000000000E+00 -0.00000000000E+00 -0.53064252401E-01  0.53064252401E-01  0.00000000000E+00 0. -1.
          5    1    1    2  501    0  0.10487933300E+01  0.49520129201E+00  0.27131314833E+03  0.27135633335E+03  0.47000000000E+01 0. -1.
         -5    1    1    2    0  503 -0.10487933300E+01 -0.49520129201E+00  0.18612910863E+03  0.18619205211E+03  0.47000000000E+01 0. -1.
<mgrwt>
<rscale>  2 0.48409908E+01</rscale>
<asrwt>0</asrwt>
<pdfrwt beam="1">  1       21 0.70380737E-01 0.48409908E+01</pdfrwt>
<pdfrwt beam="2">  1       21 0.81640975E-05 0.48409908E+01</pdfrwt>
<totfact> 0.23287288E+09</totfact>
</mgrwt>
</event>
<event>
 4    1  0.3964155E+006  0.5978349E+01  0.7546771E-02  0.2418250E+00
         21   -1    0    0  503  502  0.00000000000E+00  0.00000000000E+00  0.11779300786E+03  0.11779300786E+03  0.00000000000E+00 0.  1.
         21   -1    0    0  501  503 -0.00000000000E+00 -0.00000000000E+00 -0.36757469420E+00  0.36757469420E+00  0.00000000000E+00 0.  1.
          5    1    1    2  501    0  0.29511925488E+01 -0.22228620146E+01  0.34030340793E+02  0.34551479671E+02  0.47000000000E+01 0.  1.
         -5    1    1    2    0  502 -0.29511925488E+01  0.22228620146E+01  0.83395092370E+02  0.83609102880E+02  0.47000000000E+01 0.  1.
<mgrwt>
<rscale>  2 0.59783487E+01</rscale>
<asrwt>0</asrwt>
<pdfrwt beam="1">  1       21 0.18121971E-01 0.59783487E+01</pdfrwt>
<pdfrwt beam="2">  1       21 0.56550047E-04 0.59783487E+01</pdfrwt>
<totfact> 0.21816613E+09</totfact>
</mgrwt>
</event>
<event>
 4    1  0.3964155E+006  0.4743888E+01  0.7546771E-02  0.2614697E+00
         21   -1    0    0  503  502  0.00000000000E+00  0.00000000000E+00  0.43153741013E+01  0.43153741013E+01  0.00000000000E+00 0. -1.
         21   -1    0    0  501  503 -0.00000000000E+00 -0.00000000000E+00 -0.60942372178E+01  0.60942372178E+01  0.00000000000E+00 0. -1.
          5    1    1    2  501    0 -0.60025469761E+00  0.23274770500E+00 -0.28664432887E+01  0.55426504782E+01  0.47000000000E+01 0. -1.
         -5    1    1    2    0  502  0.60025469761E+00 -0.23274770500E+00  0.10875801722E+01  0.48669608409E+01  0.47000000000E+01 0. -1.
<mgrwt>
<rscale>  2 0.47438884E+01</rscale>
<asrwt>0</asrwt>
<pdfrwt beam="1">  1       21 0.66390371E-03 0.47438884E+01</pdfrwt>
<pdfrwt beam="2">  1       21 0.93757495E-03 0.47438884E+01</pdfrwt>
<totfact> 0.48404615E+09</totfact>
</mgrwt>
</event>
<event>
 4    1  0.3964155E+006  0.5621757E+01  0.7546771E-02  0.2467416E+00
         21   -1    0    0  501  502  0.00000000000E+00  0.00000000000E+00  0.78993681572E-01  0.78993681572E-01  0.00000000000E+00 0. -1.
         21   -1    0    0  502  503 -0.00000000000E+00 -0.00000000000E+00 -0.43565707845E+03  0.43565707845E+03  0.00000000000E+00 0.  1.
          5    1    1    2  501    0  0.41907267882E+00  0.30559002813E+01 -0.28004468765E+03  0.28010110894E+03  0.47000000000E+01 0.  1.
         -5    1    1    2    0  503 -0.41907267882E+00 -0.30559002813E+01 -0.15553339712E+03  0.15563496320E+03  0.47000000000E+01 0. -1.
<mgrwt>
<rscale>  2 0.56217567E+01</rscale>
<asrwt>0</asrwt>
<pdfrwt beam="1">  1       21 0.12152955E-04 0.56217567E+01</pdfrwt>
<pdfrwt beam="2">  1       21 0.67023718E-01 0.56217567E+01</pdfrwt>
<totfact> 0.17002192E+09</totfact>
</mgrwt>
</event>
<event>
 4    1  0.3964155E+006  0.5051578E+01  0.7546771E-02  0.2558085E+00
         21   -1    0    0  501  502  0.00000000000E+00  0.00000000000E+00  0.10988152340E+02  0.10988152340E+02  0.00000000000E+00 0. -1.
         21   -1    0    0  502  503 -0.00000000000E+00 -0.00000000000E+00 -0.50143046037E+01  0.50143046037E+01  0.00000000000E+00 0. -1.
          5    1    1    2  501    0  0.44277772730E+00 -0.17978833067E+01  0.88494452616E+01  0.10189755539E+02  0.47000000000E+01 0. -1.
         -5    1    1    2    0  503 -0.44277772730E+00  0.17978833067E+01 -0.28755975250E+01  0.58127014052E+01  0.47000000000E+01 0. -1.
<mgrwt>
<rscale>  2 0.50515776E+01</rscale>
<asrwt>0</asrwt>
<pdfrwt beam="1">  1       21 0.16904850E-02 0.50515776E+01</pdfrwt>
<pdfrwt beam="2">  1       21 0.77143148E-03 0.50515776E+01</pdfrwt>
<totfact> 0.18402517E+09</totfact>
</mgrwt>
</event>
<event>
 4    1  0.3964155E+006  0.7282408E+01  0.7546771E-02  0.2273431E+00
         21   -1    0    0  503  502  0.00000000000E+00  0.00000000000E+00  0.11194131279E+03  0.11194131279E+03  0.00000000000E+00 0.  1.
         21   -1    0    0  501  503 -0.00000000000E+00 -0.00000000000E+00 -0.54805891925E+00  0.54805891925E+00  0.00000000000E+00 0.  1.
          5    1    1    2  501    0 -0.53733131839E+01  0.14390847905E+01  0.34987805735E+02  0.35737655348E+02  0.47000000000E+01 0. -1.
         -5    1    1    2    0  502  0.53733131839E+01 -0.14390847905E+01  0.76405448137E+02  0.76751716363E+02  0.47000000000E+01 0. -1.
<mgrwt>
<rscale>  2 0.72824075E+01</rscale>
<asrwt>0</asrwt>
<pdfrwt beam="1">  1       21 0.17221722E-01 0.72824075E+01</pdfrwt>
<pdfrwt beam="2">  1       21 0.84316846E-04 0.72824075E+01</pdfrwt>
<totfact> 0.16074645E+09</totfact>
</mgrwt>
</event>
<event>
 4    1  0.3964155E+006  0.7208241E+01  0.7546771E-02  0.2280498E+00
         21   -1    0    0  501  502  0.00000000000E+00  0.00000000000E+00  0.16529072671E+04  0.16529072671E+04  0.00000000000E+00 0.  1.
         21   -1    0    0  502  503 -0.00000000000E+00 -0.00000000000E+00 -0.32176340152E-01  0.32176340152E-01  0.00000000000E+00 0.  1.
          5    1    1    2  501    0 -0.34903577140E+01 -0.42054893392E+01  0.95190719409E+03  0.95193448561E+03  0.47000000000E+01 0.  1.
         -5    1    1    2    0  503  0.34903577140E+01  0.42054893392E+01  0.70096789666E+03  0.70100495781E+03  0.47000000000E+01 0.  1.
<mgrwt>
<rscale>  2 0.72082409E+01</rscale>
<asrwt>0</asrwt>
<pdfrwt beam="1">  1       21 0.25422544E+00 0.72082409E+01</pdfrwt>
<pdfrwt beam="2">  1       21 0.49515301E-05 0.72082409E+01</pdfrwt>
<totfact> 0.38903381E+08</totfact>
</mgrwt>
</event>
<event>
 4    1  0.3964155E+006  0.1309946E+02  0.7546771E-02  0.1932289E+00
         21   -1    0    0  503  502  0.00000000000E+00  0.00000000000E+00  0.78941100927E+00  0.78941100927E+00  0.00000000000E+00 0.  1.
         21   -1    0    0  501  503 -0.00000000000E+00 -0.00000000000E+00 -0.70662122087E+03  0.70662122087E+03  0.00000000000E+00 0. -1.
          5    1    1    2  501    0  0.97844870819E+01 -0.73327815682E+01 -0.64723152207E+03  0.64736406993E+03  0.47000000000E+01 0. -1.
         -5    1    1    2    0  502 -0.97844870819E+01  0.73327815682E+01 -0.58600287790E+02  0.60046561950E+02  0.47000000000E+01 0.  1.
<mgrwt>
<rscale>  2 0.13099461E+02</rscale>
<asrwt>0</asrwt>
<pdfrwt beam="1">  1       21 0.12144750E-03 0.13099461E+02</pdfrwt>
<pdfrwt beam="2">  1       21 0.10871127E+00 0.13099461E+02</pdfrwt>
<totfact> 0.43380153E+07</totfact>
</mgrwt>
</event>
<event>
 4    1  0.3964155E+006  0.5106286E+01  0.7546771E-02  0.2548637E+00
         21   -1    0    0  501  502  0.00000000000E+00  0.00000000000E+00  0.22620214868E+02  0.22620214868E+02  0.00000000000E+00 0. -1.
         21   -1    0    0  502  503 -0.00000000000E+00 -0.00000000000E+00 -0.34001080926E+01  0.34001080926E+01  0.00000000000E+00 0. -1.
          5    1    1    2  501    0  0.19649928184E+01  0.35066051504E+00  0.20187430482E+02  0.20823220429E+02  0.47000000000E+01 0. -1.
         -5    1    1    2    0  503 -0.19649928184E+01 -0.35066051504E+00 -0.96732370630E+00  0.51971025318E+01  0.47000000000E+01 0. -1.
<mgrwt>
<rscale>  2 0.51062863E+01</rscale>
<asrwt>0</asrwt>
<pdfrwt beam="1">  1       21 0.34800330E-02 0.51062863E+01</pdfrwt>
<pdfrwt beam="2">  1       21 0.52309357E-03 0.51062863E+01</pdfrwt>
<totfact> 0.11346231E+09</totfact>
</mgrwt>
</event>
<event>
 4    1  0.3964155E+006  0.5946761E+01  0.7546771E-02  0.2422405E+00
         21   -1    0    0  503  502  0.00000000000E+00  0.00000000000E+00  0.16558391778E+02  0.16558391778E+02  0.00000000000E+00 0. -1.
         21   -1    0    0  501  503 -0.00000000000E+00 -0.00000000000E+00 -0.73282012772E+01  0.73282012772E+01  0.00000000000E+00 0. -1.
          5    1    1    2  501    0  0.36049354998E+01  0.52764484295E+00 -0.54383123743E+01  0.80584868628E+01  0.47000000000E+01 0. -1.
         -5    1    1    2    0  502 -0.36049354998E+01 -0.52764484295E+00  0.14668502875E+02  0.15828106192E+02  0.47000000000E+01 0. -1.
<mgrwt>
<rscale>  2 0.59467612E+01</rscale>
<asrwt>0</asrwt>
<pdfrwt beam="1">  1       21 0.25474449E-02 0.59467612E+01</pdfrwt>
<pdfrwt beam="2">  1       21 0.11274156E-02 0.59467612E+01</pdfrwt>
<totfact> 0.69595196E+08</totfact>
</mgrwt>
</event>
<event>
 4    1  0.3964155E+006  0.5786146E+01  0.7546771E-02  0.2444117E+00
         21   -1    0    0  501  502  0.00000000000E+00  0.00000000000E+00  0.44335791780E+01  0.44335791780E+01  0.00000000000E+00 0. -1.
         21   -1    0    0  502  503 -0.00000000000E+00 -0.00000000000E+00 -0.56516593270E+02  0.56516593270E+02  0.00000000000E+00 0. -1.
          5    1    1    2  501    0 -0.33459633994E+01 -0.44046979772E+00  0.23246783501E+01  0.62356727099E+01  0.47000000000E+01 0. -1.
         -5    1    1    2    0  503  0.33459633994E+01  0.44046979772E+00 -0.54407692442E+02  0.54714499738E+02  0.47000000000E+01 0. -1.
<mgrwt>
<rscale>  2 0.57861459E+01</rscale>
<asrwt>0</asrwt>
<pdfrwt beam="1">  1       21 0.68208914E-03 0.57861459E+01</pdfrwt>
<pdfrwt beam="2">  1       21 0.86948601E-02 0.57861459E+01</pdfrwt>
<totfact> 0.22494850E+08</totfact>
</mgrwt>
</event>
<event>
 4    1  0.3964155E+006  0.5964645E+01  0.7546771E-02  0.2420048E+00
         21   -1    0    0  501  502  0.00000000000E+00  0.00000000000E+00  0.58148685492E+02  0.58148685492E+02  0.00000000000E+00 0.  1.
         21   -1    0    0  502  503 -0.00000000000E+00 -0.00000000000E+00 -0.18159942524E+01  0.18159942524E+01  0.00000000000E+00 0.  1.
          5    1    1    2  501    0  0.16857012291E+01 -0.32627297383E+01  0.52581052457E+02  0.52918277292E+02  0.47000000000E+01 0.  1.
         -5    1    1    2    0  503 -0.16857012291E+01  0.32627297383E+01  0.37516387826E+01  0.70464024533E+01  0.47000000000E+01 0.  1.
<mgrwt>
<rscale>  2 0.59646453E+01</rscale>
<asrwt>0</asrwt>
<pdfrwt beam="1">  1       21 0.89459502E-02 0.59646453E+01</pdfrwt>
<pdfrwt beam="2">  1       21 0.27938377E-03 0.59646453E+01</pdfrwt>
<totfact> 0.75751189E+08</totfact>
</mgrwt>
</event>
<event>
 4    1  0.3964155E+006  0.9960768E+01  0.7546771E-02  0.2077227E+00
         21   -1    0    0  501  502  0.00000000000E+00  0.00000000000E+00  0.12428361662E+03  0.12428361662E+03  0.00000000000E+00 0.  1.
         21   -1    0    0  502  503 -0.00000000000E+00 -0.00000000000E+00 -0.25581363569E+01  0.25581363569E+01  0.00000000000E+00 0. -1.
          5    1    1    2  501    0 -0.18096225856E+01 -0.85937284339E+01  0.11346510334E+03  0.11390147751E+03  0.47000000000E+01 0.  1.
         -5    1    1    2    0  503  0.18096225856E+01  0.85937284339E+01  0.82603769196E+01  0.12940275467E+02  0.47000000000E+01 0. -1.
<mgrwt>
<rscale>  2 0.99607682E+01</rscale>
<asrwt>0</asrwt>
<pdfrwt beam="1">  1       21 0.19120552E-01 0.99607682E+01</pdfrwt>
<pdfrwt beam="2">  1       21 0.39355954E-03 0.99607682E+01</pdfrwt>
<totfact> 0.19260336E+08</totfact>
</mgrwt>
</event>
<event>
 4    1  0.3964155E+006  0.5814518E+01  0.7546771E-02  0.2440208E+00
         21   -1    0    0  501  502  0.00000000000E+00  0.00000000000E+00  0.21002575523E+01  0.21002575523E+01  0.00000000000E+00 0.  1.
         21   -1    0    0  502  503 -0.00000000000E+00 -0.00000000000E+00 -0.28259269252E+02  0.28259269252E+02  0.00000000000E+00 0.  1.
          5    1    1    2  501    0  0.24701823074E+01  0.23699818030E+01 -0.31212034057E+01  0.65992821638E+01  0.47000000000E+01 0.  1.
         -5    1    1    2    0  503 -0.24701823074E+01 -0.23699818030E+01 -0.23037808294E+02  0.23760244641E+02  0.47000000000E+01 0.  1.
<mgrwt>
<rscale>  2 0.58145176E+01</rscale>
<asrwt>0</asrwt>
<pdfrwt beam="1">  1       21 0.32311654E-03 0.58145176E+01</pdfrwt>
<pdfrwt beam="2">  1       21 0.43475799E-02 0.58145176E+01</pdfrwt>
<totfact> 0.17880837E+09</totfact>
</mgrwt>
</event>
<event>
 4    1  0.3964155E+006  0.6303756E+01  0.7546771E-02  0.2377490E+00
         21   -1    0    0  501  502  0.00000000000E+00  0.00000000000E+00  0.30990085000E+01  0.30990085000E+01  0.00000000000E+00 0. -1.
         21   -1    0    0  502  503 -0.00000000000E+00 -0.00000000000E+00 -0.14445619737E+02  0.14445619737E+02  0.00000000000E+00 0.  1.
          5    1    1    2  501    0  0.35152320205E+00 -0.41861406270E+01 -0.27328936665E+01  0.68706658850E+01  0.47000000000E+01 0. -1.
         -5    1    1    2    0  503 -0.35152320205E+00  0.41861406270E+01 -0.86137175708E+01  0.10673962352E+02  0.47000000000E+01 0.  1.
<mgrwt>
<rscale>  2 0.63037562E+01</rscale>
<asrwt>0</asrwt>
<pdfrwt beam="1">  1       21 0.47677054E-03 0.63037562E+01</pdfrwt>
<pdfrwt beam="2">  1       21 0.22224030E-02 0.63037562E+01</pdfrwt>
<totfact> 0.29765441E+09</totfact>
</mgrwt>
</event>
<event>
 4    1  0.3964155E+006  0.7629933E+01  0.7546771E-02  0.2241813E+00
         21   -1    0    0  503  502  0.00000000000E+00  0.00000000000E+00  0.60798410241E+00  0.60798410241E+00  0.00000000000E+00 0. -1.
         21   -1    0    0  501  503 -0.00000000000E+00 -0.00000000000E+00 -0.10099121044E+03  0.10099121044E+03  0.00000000000E+00 0.  1.
          5    1    1    2  501    0  0.32107927396E+01  0.50810131216E+01 -0.61761747723E+02  0.62231257148E+02  0.47000000000E+01 0.  1.
         -5    1    1    2    0  502 -0.32107927396E+01 -0.50810131216E+01 -0.38621478619E+02  0.39367937399E+02  0.47000000000E+01 0.  1.
<mgrwt>
<rscale>  2 0.76299334E+01</rscale>
<asrwt>0</asrwt>
<pdfrwt beam="1">  1       21 0.93536020E-04 0.76299334E+01</pdfrwt>
<pdfrwt beam="2">  1       21 0.15537109E-01 0.76299334E+01</pdfrwt>
<totfact> 0.17031646E+09</totfact>
</mgrwt>
</event>
<event>
 4    1  0.3964155E+006  0.6765034E+01  0.7546771E-02  0.2325354E+00
         21   -1    0    0  503  502  0.00000000000E+00  0.00000000000E+00  0.41020388884E+00  0.41020388884E+00  0.00000000000E+00 0.  1.
         21   -1    0    0  501  503 -0.00000000000E+00 -0.00000000000E+00 -0.18537237851E+03  0.18537237851E+03  0.00000000000E+00 0.  1.
          5    1    1    2  501    0 -0.25835101351E+01  0.41232459662E+01 -0.15109398085E+03  0.15124535276E+03  0.47000000000E+01 0.  1.
         -5    1    1    2    0  502  0.25835101351E+01 -0.41232459662E+01 -0.33868193772E+02  0.34537229641E+02  0.47000000000E+01 0.  1.
<mgrwt>
<rscale>  2 0.67650338E+01</rscale>
<asrwt>0</asrwt>
<pdfrwt beam="1">  1       21 0.63108217E-04 0.67650338E+01</pdfrwt>
<pdfrwt beam="2">  1       21 0.28518861E-01 0.67650338E+01</pdfrwt>
<totfact> 0.98181202E+08</totfact>
</mgrwt>
</event>
<event>
 4    1  0.3964155E+006  0.5494024E+01  0.7546771E-02  0.2486330E+00
         21   -1    0    0  501  502  0.00000000000E+00  0.00000000000E+00  0.81427876774E+00  0.81427876774E+00  0.00000000000E+00 0.  1.
         21   -1    0    0  502  503 -0.00000000000E+00 -0.00000000000E+00 -0.78588373269E+02  0.78588373269E+02  0.00000000000E+00 0. -1.
          5    1    1    2  501    0 -0.31990752093E+00 -0.28270059698E+01 -0.10029958397E+02  0.11436099379E+02  0.47000000000E+01 0.  1.
         -5    1    1    2    0  503  0.31990752093E+00  0.28270059698E+01 -0.67744136104E+02  0.67966552657E+02  0.47000000000E+01 0. -1.
<mgrwt>
<rscale>  2 0.54940244E+01</rscale>
<asrwt>0</asrwt>
<pdfrwt beam="1">  1       21 0.12527366E-03 0.54940244E+01</pdfrwt>
<pdfrwt beam="2">  1       21 0.12090519E-01 0.54940244E+01</pdfrwt>
<totfact> 0.13240676E+09</totfact>
</mgrwt>
</event>
<event>
 4    1  0.3964155E+006  0.5404673E+01  0.7546771E-02  0.2500011E+00
         21   -1    0    0  503  502  0.00000000000E+00  0.00000000000E+00  0.18563672173E+02  0.18563672173E+02  0.00000000000E+00 0.  1.
         21   -1    0    0  501  503 -0.00000000000E+00 -0.00000000000E+00 -0.21342686820E+01  0.21342686820E+01  0.00000000000E+00 0.  1.
          5    1    1    2  501    0  0.10265947611E+01 -0.24630461490E+01  0.29100985958E+01  0.61383358472E+01  0.47000000000E+01 0. -1.
         -5    1    1    2    0  502 -0.10265947611E+01  0.24630461490E+01  0.13519304895E+02  0.14559605008E+02  0.47000000000E+01 0. -1.
<mgrwt>
<rscale>  2 0.54046733E+01</rscale>
<asrwt>0</asrwt>
<pdfrwt beam="1">  1       21 0.28559495E-02 0.54046733E+01</pdfrwt>
<pdfrwt beam="2">  1       21 0.32834904E-03 0.54046733E+01</pdfrwt>
<totfact> 0.30191687E+09</totfact>
</mgrwt>
</event>
<event>
 4    1  0.3964155E+006  0.6706332E+01  0.7546771E-02  0.2331659E+00
         21   -1    0    0  501  502  0.00000000000E+00  0.00000000000E+00  0.20212138923E+01  0.20212138923E+01  0.00000000000E+00 0. -1.
         21   -1    0    0  502  503 -0.00000000000E+00 -0.00000000000E+00 -0.27957254677E+02  0.27957254677E+02  0.00000000000E+00 0. -1.
          5    1    1    2  501    0 -0.53643341727E+00  0.47536439539E+01 -0.61964165221E+01  0.91307430895E+01  0.47000000000E+01 0. -1.
         -5    1    1    2    0  503  0.53643341727E+00 -0.47536439539E+01 -0.19739624262E+02  0.20847725480E+02  0.47000000000E+01 0. -1.
<mgrwt>
<rscale>  2 0.67063322E+01</rscale>
<asrwt>0</asrwt>
<pdfrwt beam="1">  1       21 0.31095600E-03 0.67063322E+01</pdfrwt>
<pdfrwt beam="2">  1       21 0.43011159E-02 0.67063322E+01</pdfrwt>
<totfact> 0.21560249E+09</totfact>
</mgrwt>
</event>
<event>
 4    1  0.3964155E+006  0.5379044E+01  0.7546771E-02  0.2504007E+00
         21   -1    0    0  503  502  0.00000000000E+00  0.00000000000E+00  0.23313089558E+01  0.23313089558E+01  0.00000000000E+00 0. -1.
         21   -1    0    0  501  503 -0.00000000000E+00 -0.00000000000E+00 -0.28399539932E+02  0.28399539932E+02  0.00000000000E+00 0. -1.
          5    1    1    2  501    0  0.25523385195E+01  0.57418377298E+00 -0.24563122244E+02  0.25145200204E+02  0.47000000000E+01 0. -1.
         -5    1    1    2    0  502 -0.25523385195E+01 -0.57418377298E+00 -0.15051087322E+01  0.55856486838E+01  0.47000000000E+01 0. -1.
<mgrwt>
<rscale>  2 0.53790444E+01</rscale>
<asrwt>0</asrwt>
<pdfrwt beam="1">  1       21 0.35866293E-03 0.53790444E+01</pdfrwt>
<pdfrwt beam="2">  1       21 0.43691599E-02 0.53790444E+01</pdfrwt>
<totfact> 0.14370363E+09</totfact>
</mgrwt>
</event>
<event>
 4    1  0.3964155E+006  0.6186710E+01  0.7546771E-02  0.2391739E+00
         21   -1    0    0  503  502  0.00000000000E+00  0.00000000000E+00  0.27408821516E+01  0.27408821516E+01  0.00000000000E+00 0.  1.
         21   -1    0    0  501  503 -0.00000000000E+00 -0.00000000000E+00 -0.14109716662E+02  0.14109716662E+02  0.00000000000E+00 0. -1.
          5    1    1    2  501    0  0.38953728917E+01  0.10057063720E+01 -0.65388074184E+01  0.90017430382E+01  0.47000000000E+01 0.  1.
         -5    1    1    2    0  502 -0.38953728917E+01 -0.10057063720E+01 -0.48300270919E+01  0.78488557752E+01  0.47000000000E+01 0. -1.
<mgrwt>
<rscale>  2 0.61867096E+01</rscale>
<asrwt>0</asrwt>
<pdfrwt beam="1">  1       21 0.42167416E-03 0.61867096E+01</pdfrwt>
<pdfrwt beam="2">  1       21 0.21707257E-02 0.61867096E+01</pdfrwt>
<totfact> 0.35928555E+09</totfact>
</mgrwt>
</event>
<event>
 4    1  0.3964155E+006  0.5417432E+01  0.7546771E-02  0.2498034E+00
         21   -1    0    0  501  502  0.00000000000E+00  0.00000000000E+00  0.74591309976E+00  0.74591309976E+00  0.00000000000E+00 0.  1.
         21   -1    0    0  502  503 -0.00000000000E+00 -0.00000000000E+00 -0.42805416349E+02  0.42805416349E+02  0.00000000000E+00 0. -1.
          5    1    1    2  501    0 -0.84630856009E+00 -0.25577970960E+01 -0.14839124612E+02  0.15797094145E+02  0.47000000000E+01 0.  1.
         -5    1    1    2    0  503  0.84630856009E+00  0.25577970960E+01 -0.27220378637E+02  0.27754235304E+02  0.47000000000E+01 0. -1.
<mgrwt>
<rscale>  2 0.54174315E+01</rscale>
<asrwt>0</asrwt>
<pdfrwt beam="1">  1       21 0.11475583E-03 0.54174315E+01</pdfrwt>
<pdfrwt beam="2">  1       21 0.65854507E-02 0.54174315E+01</pdfrwt>
<totfact> 0.36903833E+09</totfact>
</mgrwt>
</event>
<event>
 4    1  0.3964155E+006  0.8109972E+01  0.7546771E-02  0.2201788E+00
         21   -1    0    0  501  502  0.00000000000E+00  0.00000000000E+00  0.16242342801E+02  0.16242342801E+02  0.00000000000E+00 0. -1.
         21   -1    0    0  502  503 -0.00000000000E+00 -0.00000000000E+00 -0.41294159666E+01  0.41294159666E+01  0.00000000000E+00 0. -1.
          5    1    1    2  501    0 -0.65921417199E+01 -0.47466422866E+00  0.74744103429E+01  0.11028982209E+02  0.47000000000E+01 0. -1.
         -5    1    1    2    0  503  0.65921417199E+01  0.47466422866E+00  0.46385164913E+01  0.93427765586E+01  0.47000000000E+01 0. -1.
<mgrwt>
<rscale>  2 0.81099716E+01</rscale>
<asrwt>0</asrwt>
<pdfrwt beam="1">  1       21 0.24988219E-02 0.81099716E+01</pdfrwt>
<pdfrwt beam="2">  1       21 0.63529477E-03 0.81099716E+01</pdfrwt>
<totfact> 0.20378687E+09</totfact>
</mgrwt>
</event>
<event>
 4    1  0.3964155E+006  0.5755984E+01  0.7546771E-02  0.2448307E+00
         21   -1    0    0  501  502  0.00000000000E+00  0.00000000000E+00  0.80728856169E+00  0.80728856169E+00  0.00000000000E+00 0.  1.
         21   -1    0    0  502  503 -0.00000000000E+00 -0.00000000000E+00 -0.52378413162E+02  0.52378413162E+02  0.00000000000E+00 0.  1.
          5    1    1    2  501    0 -0.54786497172E+00 -0.32773772322E+01 -0.13413010121E+02  0.14595896617E+02  0.47000000000E+01 0.  1.
         -5    1    1    2    0  503  0.54786497172E+00  0.32773772322E+01 -0.38158114480E+02  0.38589805107E+02  0.47000000000E+01 0.  1.
<mgrwt>
<rscale>  2 0.57559845E+01</rscale>
<asrwt>0</asrwt>
<pdfrwt beam="1">  1       21 0.12419822E-03 0.57559845E+01</pdfrwt>
<pdfrwt beam="2">  1       21 0.80582190E-02 0.57559845E+01</pdfrwt>
<totfact> 0.25903224E+09</totfact>
</mgrwt>
</event>
<event>
 4    1  0.3964155E+006  0.6070918E+01  0.7546771E-02  0.2406284E+00
         21   -1    0    0  501  502  0.00000000000E+00  0.00000000000E+00  0.38648786580E+00  0.38648786580E+00  0.00000000000E+00 0. -1.
         21   -1    0    0  502  503 -0.00000000000E+00 -0.00000000000E+00 -0.14122139413E+03  0.14122139413E+03  0.00000000000E+00 0. -1.
          5    1    1    2  501    0 -0.19442695383E+01 -0.33144935297E+01 -0.30069282797E+02  0.30676013746E+02  0.47000000000E+01 0. -1.
         -5    1    1    2    0  503  0.19442695383E+01  0.33144935297E+01 -0.11076562346E+03  0.11093186825E+03  0.47000000000E+01 0. -1.
<mgrwt>
<rscale>  2 0.60709185E+01</rscale>
<asrwt>0</asrwt>
<pdfrwt beam="1">  1       21 0.59459667E-04 0.60709185E+01</pdfrwt>
<pdfrwt beam="2">  1       21 0.21726370E-01 0.60709185E+01</pdfrwt>
<totfact> 0.15409145E+09</totfact>
</mgrwt>
</event>
<event>
 4    1  0.3964155E+006  0.6411587E+01  0.7546771E-02  0.2364747E+00
         21   -1    0    0  501  502  0.00000000000E+00  0.00000000000E+00  0.87275196381E+02  0.87275196381E+02  0.00000000000E+00 0. -1.
         21   -1    0    0  502  503 -0.00000000000E+00 -0.00000000000E+00 -0.97018755674E+00  0.97018755674E+00  0.00000000000E+00 0.  1.
          5    1    1    2  501    0  0.21375158835E+01 -0.38012466123E+01  0.74801278557E+02  0.75075560096E+02  0.47000000000E+01 0. -1.
         -5    1    1    2    0  503 -0.21375158835E+01  0.38012466123E+01  0.11503730267E+02  0.13169823841E+02  0.47000000000E+01 0.  1.
<mgrwt>
<rscale>  2 0.64115872E+01</rscale>
<asrwt>0</asrwt>
<pdfrwt beam="1">  1       21 0.13426947E-01 0.64115872E+01</pdfrwt>
<pdfrwt beam="2">  1       21 0.14925969E-03 0.64115872E+01</pdfrwt>
<totfact> 0.10046903E+09</totfact>
</mgrwt>
</event>
<event>
 4    1  0.3964155E+006  0.4907010E+01  0.7546771E-02  0.2583919E+00
         21   -1    0    0  501  502  0.00000000000E+00  0.00000000000E+00  0.94622659884E+02  0.94622659884E+02  0.00000000000E+00 0. -1.
         21   -1    0    0  502  503 -0.00000000000E+00 -0.00000000000E+00 -0.28763893887E+00  0.28763893887E+00  0.00000000000E+00 0. -1.
          5    1    1    2  501    0  0.13285044166E+01 -0.47309470658E+00  0.31052990054E+02  0.31438303610E+02  0.47000000000E+01 0.  1.
         -5    1    1    2    0  503 -0.13285044166E+01  0.47309470658E+00  0.63282030891E+02  0.63471995213E+02  0.47000000000E+01 0.  1.
<mgrwt>
<rscale>  2 0.49070095E+01</rscale>
<asrwt>0</asrwt>
<pdfrwt beam="1">  1       21 0.14557308E-01 0.49070095E+01</pdfrwt>
<pdfrwt beam="2">  1       21 0.44252220E-04 0.49070095E+01</pdfrwt>
<totfact> 0.35674680E+09</totfact>
</mgrwt>
</event>
<event>
 4    1  0.3964155E+006  0.5414488E+01  0.7546771E-02  0.2498490E+00
         21   -1    0    0  503  502  0.00000000000E+00  0.00000000000E+00  0.92955684676E+02  0.92955684676E+02  0.00000000000E+00 0. -1.
         21   -1    0    0  501  503 -0.00000000000E+00 -0.00000000000E+00 -0.98476624579E+01  0.98476624579E+01  0.00000000000E+00 0.  1.
          5    1    1    2  501    0 -0.15960835968E+01 -0.21631458311E+01 -0.90178638439E+01  0.10518486157E+02  0.47000000000E+01 0.  1.
         -5    1    1    2    0  502  0.15960835968E+01  0.21631458311E+01  0.92125886062E+02  0.92284860976E+02  0.47000000000E+01 0. -1.
<mgrwt>
<rscale>  2 0.54144882E+01</rscale>
<asrwt>0</asrwt>
<pdfrwt beam="1">  1       21 0.14300874E-01 0.54144882E+01</pdfrwt>
<pdfrwt beam="2">  1       21 0.15150251E-02 0.54144882E+01</pdfrwt>
<totfact> 0.32621094E+07</totfact>
</mgrwt>
</event>
<event>
 4    1  0.3964155E+006  0.7362208E+01  0.7546771E-02  0.2265956E+00
         21   -1    0    0  503  502  0.00000000000E+00  0.00000000000E+00  0.20539281272E+02  0.20539281272E+02  0.00000000000E+00 0.  1.
         21   -1    0    0  501  503 -0.00000000000E+00 -0.00000000000E+00 -0.27381959385E+01  0.27381959385E+01  0.00000000000E+00 0. -1.
          5    1    1    2  501    0  0.52039999575E+01  0.22428768395E+01  0.11116353120E+02  0.13333244870E+02  0.47000000000E+01 0. -1.
         -5    1    1    2    0  502 -0.52039999575E+01 -0.22428768395E+01  0.66847322134E+01  0.99442323404E+01  0.47000000000E+01 0.  1.
<mgrwt>
<rscale>  2 0.73622084E+01</rscale>
<asrwt>0</asrwt>
<pdfrwt beam="1">  1       21 0.31598893E-02 0.73622084E+01</pdfrwt>
<pdfrwt beam="2">  1       21 0.42126093E-03 0.73622084E+01</pdfrwt>
<totfact> 0.23967397E+09</totfact>
</mgrwt>
</event>
<event>
 4    1  0.3964155E+006  0.5562966E+01  0.7546771E-02  0.2476030E+00
         21   -1    0    0  501  502  0.00000000000E+00  0.00000000000E+00  0.37650194774E+01  0.37650194774E+01  0.00000000000E+00 0. -1.
         21   -1    0    0  502  503 -0.00000000000E+00 -0.00000000000E+00 -0.24491803950E+02  0.24491803950E+02  0.00000000000E+00 0. -1.
          5    1    1    2  501    0 -0.21848224740E+01  0.20206773712E+01  0.11527613449E+01  0.56811482114E+01  0.47000000000E+01 0. -1.
         -5    1    1    2    0  503  0.21848224740E+01 -0.20206773712E+01 -0.21879545818E+02  0.22575675216E+02  0.47000000000E+01 0. -1.
<mgrwt>
<rscale>  2 0.55629656E+01</rscale>
<asrwt>0</asrwt>
<pdfrwt beam="1">  1       21 0.57923376E-03 0.55629656E+01</pdfrwt>
<pdfrwt beam="2">  1       21 0.37679699E-02 0.55629656E+01</pdfrwt>
<totfact> 0.94876611E+08</totfact>
</mgrwt>
</event>
<event>
 4    1  0.3964155E+006  0.5061982E+01  0.7546771E-02  0.2556274E+00
         21   -1    0    0  501  502  0.00000000000E+00  0.00000000000E+00  0.77683543343E+00  0.77683543343E+00  0.00000000000E+00 0. -1.
         21   -1    0    0  502  503 -0.00000000000E+00 -0.00000000000E+00 -0.14915457045E+03  0.14915457045E+03  0.00000000000E+00 0. -1.
          5    1    1    2  501    0  0.18196288707E+01  0.47181694747E+00 -0.80295306745E+01  0.94919451806E+01  0.47000000000E+01 0. -1.
         -5    1    1    2    0  503 -0.18196288707E+01 -0.47181694747E+00 -0.14034820435E+03  0.14043946071E+03  0.47000000000E+01 0. -1.
<mgrwt>
<rscale>  2 0.50619819E+01</rscale>
<asrwt>0</asrwt>
<pdfrwt beam="1">  1       21 0.11951311E-03 0.50619819E+01</pdfrwt>
<pdfrwt beam="2">  1       21 0.22946864E-01 0.50619819E+01</pdfrwt>
<totfact> 0.47902011E+08</totfact>
</mgrwt>
</event>
<event>
 4    1  0.3964155E+006  0.1823109E+02  0.7546771E-02  0.1782980E+00
         21   -1    0    0  501  502  0.00000000000E+00  0.00000000000E+00  0.52274018523E+02  0.52274018523E+02  0.00000000000E+00 0. -1.
         21   -1    0    0  502  503 -0.00000000000E+00 -0.00000000000E+00 -0.43201303681E+02  0.43201303681E+02  0.00000000000E+00 0.  1.
          5    1    1    2  501    0 -0.17611474716E+02  0.34434858735E+00  0.48621309099E+02  0.51926913216E+02  0.47000000000E+01 0. -1.
         -5    1    1    2    0  503  0.17611474716E+02 -0.34434858735E+00 -0.39548594258E+02  0.43548408988E+02  0.47000000000E+01 0.  1.
<mgrwt>
<rscale>  2 0.18231089E+02</rscale>
<asrwt>0</asrwt>
<pdfrwt beam="1">  1       21 0.80421567E-02 0.18231089E+02</pdfrwt>
<pdfrwt beam="2">  1       21 0.66463544E-02 0.18231089E+02</pdfrwt>
<totfact> 0.14343582E+07</totfact>
</mgrwt>
</event>
<event>
 4    1  0.3964155E+006  0.5217286E+01  0.7546771E-02  0.2529993E+00
         21   -1    0    0  503  502  0.00000000000E+00  0.00000000000E+00  0.14390064821E+00  0.14390064821E+00  0.00000000000E+00 0.  1.
         21   -1    0    0  501  503 -0.00000000000E+00 -0.00000000000E+00 -0.22521005247E+03  0.22521005247E+03  0.00000000000E+00 0. -1.
          5    1    1    2  501    0  0.21064289653E+01  0.83248132257E+00 -0.15761492496E+03  0.15770125122E+03  0.47000000000E+01 0. -1.
         -5    1    1    2    0  502 -0.21064289653E+01 -0.83248132257E+00 -0.67451226862E+02  0.67652701892E+02  0.47000000000E+01 0.  1.
<mgrwt>
<rscale>  2 0.52172855E+01</rscale>
<asrwt>0</asrwt>
<pdfrwt beam="1">  1       21 0.22138590E-04 0.52172855E+01</pdfrwt>
<pdfrwt beam="2">  1       21 0.34647655E-01 0.52172855E+01</pdfrwt>
<totfact> 0.23348842E+09</totfact>
</mgrwt>
</event>
<event>
 4    1  0.3964155E+006  0.5517681E+01  0.7546771E-02  0.2482771E+00
         21   -1    0    0  503  502  0.00000000000E+00  0.00000000000E+00  0.29740642933E+02  0.29740642933E+02  0.00000000000E+00 0.  1.
         21   -1    0    0  501  503 -0.00000000000E+00 -0.00000000000E+00 -0.14947523471E+01  0.14947523471E+01  0.00000000000E+00 0. -1.
          5    1    1    2  501    0  0.28759114706E+01 -0.28971981513E+00  0.53554064719E+01  0.76892901387E+01  0.47000000000E+01 0. -1.
         -5    1    1    2    0  502 -0.28759114706E+01  0.28971981513E+00  0.22890484114E+02  0.23546105141E+02  0.47000000000E+01 0.  1.
<mgrwt>
<rscale>  2 0.55176811E+01</rscale>
<asrwt>0</asrwt>
<pdfrwt beam="1">  1       21 0.45754831E-02 0.55176811E+01</pdfrwt>
<pdfrwt beam="2">  1       21 0.22996192E-03 0.55176811E+01</pdfrwt>
<totfact> 0.25202317E+09</totfact>
</mgrwt>
</event>
<event>
 4    1  0.3964155E+006  0.7851143E+01  0.7546771E-02  0.2222878E+00
         21   -1    0    0  503  502  0.00000000000E+00  0.00000000000E+00  0.18137265442E+01  0.18137265442E+01  0.00000000000E+00 0.  1.
         21   -1    0    0  501  503 -0.00000000000E+00 -0.00000000000E+00 -0.17328612088E+03  0.17328612088E+03  0.00000000000E+00 0. -1.
          5    1    1    2  501    0 -0.12815760148E+01 -0.61569476291E+01 -0.16423271214E+03  0.16442026694E+03  0.47000000000E+01 0. -1.
         -5    1    1    2    0  502  0.12815760148E+01  0.61569476291E+01 -0.72396821955E+01  0.10679580492E+02  0.47000000000E+01 0.  1.
<mgrwt>
<rscale>  2 0.78511427E+01</rscale>
<asrwt>0</asrwt>
<pdfrwt beam="1">  1       21 0.27903486E-03 0.78511427E+01</pdfrwt>
<pdfrwt beam="2">  1       21 0.26659402E-01 0.78511427E+01</pdfrwt>
<totfact> 0.15836604E+08</totfact>
</mgrwt>
</event>
<event>
 4    1  0.3964155E+006  0.7512738E+01  0.7546771E-02  0.2252210E+00
         21   -1    0    0  501  502  0.00000000000E+00  0.00000000000E+00  0.15336081613E+02  0.15336081613E+02  0.00000000000E+00 0. -1.
         21   -1    0    0  502  503 -0.00000000000E+00 -0.00000000000E+00 -0.37317279602E+01  0.37317279602E+01  0.00000000000E+00 0. -1.
          5    1    1    2  501    0  0.58603311852E+01 -0.88011443311E-01  0.69215057905E+01  0.10215109888E+02  0.47000000000E+01 0. -1.
         -5    1    1    2    0  503 -0.58603311852E+01  0.88011443311E-01  0.46828478621E+01  0.88526996851E+01  0.47000000000E+01 0. -1.
<mgrwt>
<rscale>  2 0.75127377E+01</rscale>
<asrwt>0</asrwt>
<pdfrwt beam="1">  1       21 0.23593971E-02 0.75127377E+01</pdfrwt>
<pdfrwt beam="2">  1       21 0.57411200E-03 0.75127377E+01</pdfrwt>
<totfact> 0.24199666E+09</totfact>
</mgrwt>
</event>
<event>
 4    1  0.3964155E+006  0.4855851E+01  0.7546771E-02  0.2593379E+00
         21   -1    0    0  503  502  0.00000000000E+00  0.00000000000E+00  0.51076709884E+01  0.51076709884E+01  0.00000000000E+00 0. -1.
         21   -1    0    0  501  503 -0.00000000000E+00 -0.00000000000E+00 -0.48832817606E+01  0.48832817606E+01  0.00000000000E+00 0. -1.
          5    1    1    2  501    0 -0.26328891062E+00  0.11916241367E+01  0.12799254324E+01  0.50217027238E+01  0.47000000000E+01 0. -1.
         -5    1    1    2    0  502  0.26328891062E+00 -0.11916241367E+01 -0.10555362045E+01  0.49692500252E+01  0.47000000000E+01 0. -1.
<mgrwt>
<rscale>  2 0.48558510E+01</rscale>
<asrwt>0</asrwt>
<pdfrwt beam="1">  1       21 0.78579554E-03 0.48558510E+01</pdfrwt>
<pdfrwt beam="2">  1       21 0.75127412E-03 0.48558510E+01</pdfrwt>
<totfact> 0.53477320E+09</totfact>
</mgrwt>
</event>
<event>
 4    1  0.3964155E+006  0.4809127E+01  0.7546771E-02  0.2602171E+00
         21   -1    0    0  503  502  0.00000000000E+00  0.00000000000E+00  0.14269661070E+03  0.14269661070E+03  0.00000000000E+00 0.  1.
         21   -1    0    0  501  503 -0.00000000000E+00 -0.00000000000E+00 -0.16786051790E+00  0.16786051790E+00  0.00000000000E+00 0.  1.
          5    1    1    2  501    0 -0.67155245519E+00 -0.76597486358E+00  0.58004103711E+02  0.58203124895E+02  0.47000000000E+01 0.  1.
         -5    1    1    2    0  502  0.67155245519E+00  0.76597486358E+00  0.84524646466E+02  0.84661346318E+02  0.47000000000E+01 0.  1.
<mgrwt>
<rscale>  2 0.48091268E+01</rscale>
<asrwt>0</asrwt>
<pdfrwt beam="1">  1       21 0.21953228E-01 0.48091268E+01</pdfrwt>
<pdfrwt beam="2">  1       21 0.25824809E-04 0.48091268E+01</pdfrwt>
<totfact> 0.37366029E+09</totfact>
</mgrwt>
</event>
<event>
 4    1  0.3964155E+006  0.5037059E+01  0.7546771E-02  0.2560621E+00
         21   -1    0    0  501  502  0.00000000000E+00  0.00000000000E+00  0.13438405798E+02  0.13438405798E+02  0.00000000000E+00 0. -1.
         21   -1    0    0  502  503 -0.00000000000E+00 -0.00000000000E+00 -0.27483626254E+01  0.27483626254E+01  0.00000000000E+00 0.  1.
          5    1    1    2  501    0  0.23516772621E+00 -0.17962904540E+01  0.98732586514E+01  0.11083916260E+02  0.47000000000E+01 0. -1.
         -5    1    1    2    0  503 -0.23516772621E+00  0.17962904540E+01  0.81678452168E+00  0.51028521642E+01  0.47000000000E+01 0.  1.
<mgrwt>
<rscale>  2 0.50370590E+01</rscale>
<asrwt>0</asrwt>
<pdfrwt beam="1">  1       21 0.20674470E-02 0.50370590E+01</pdfrwt>
<pdfrwt beam="2">  1       21 0.42282503E-03 0.50370590E+01</pdfrwt>
<totfact> 0.31599841E+09</totfact>
</mgrwt>
</event>
<event>
 4    1  0.3964155E+006  0.5866001E+01  0.7546771E-02  0.2433197E+00
         21   -1    0    0  503  502  0.00000000000E+00  0.00000000000E+00  0.14048329715E+02  0.14048329715E+02  0.00000000000E+00 0. -1.
         21   -1    0    0  501  503 -0.00000000000E+00 -0.00000000000E+00 -0.25459487468E+01  0.25459487468E+01  0.00000000000E+00 0. -1.
          5    1    1    2  501    0 -0.12593176945E+01  0.32762916710E+01  0.41354240838E+01  0.71771652149E+01  0.47000000000E+01 0. -1.
         -5    1    1    2    0  502  0.12593176945E+01 -0.32762916710E+01  0.73669568842E+01  0.94171132468E+01  0.47000000000E+01 0. -1.
<mgrwt>
<rscale>  2 0.58660010E+01</rscale>
<asrwt>0</asrwt>
<pdfrwt beam="1">  1       21 0.21612815E-02 0.58660010E+01</pdfrwt>
<pdfrwt beam="2">  1       21 0.39168443E-03 0.58660010E+01</pdfrwt>
<totfact> 0.38172705E+09</totfact>
</mgrwt>
</event>
<event>
 4    1  0.3964155E+006  0.6483784E+01  0.7546771E-02  0.2356412E+00
         21   -1    0    0  501  502  0.00000000000E+00  0.00000000000E+00  0.60232513016E+03  0.60232513016E+03  0.00000000000E+00 0.  1.
         21   -1    0    0  502  503 -0.00000000000E+00 -0.00000000000E+00 -0.13645933532E+00  0.13645933532E+00  0.00000000000E+00 0.  1.
          5    1    1    2  501    0  0.36738054288E+01  0.25401977487E+01  0.51163869311E+03  0.51167977461E+03  0.47000000000E+01 0.  1.
         -5    1    1    2    0  503 -0.36738054288E+01 -0.25401977487E+01  0.90549977713E+02  0.90781814890E+02  0.47000000000E+01 0.  1.
<mgrwt>
<rscale>  2 0.64837837E+01</rscale>
<asrwt>0</asrwt>
<pdfrwt beam="1">  1       21 0.92663276E-01 0.64837837E+01</pdfrwt>
<pdfrwt beam="2">  1       21 0.20994226E-04 0.64837837E+01</pdfrwt>
<totfact> 0.48322742E+08</totfact>
</mgrwt>
</event>
<event>
 4    1  0.3964155E+006  0.4872785E+01  0.7546771E-02  0.2590229E+00
         21   -1    0    0  503  502  0.00000000000E+00  0.00000000000E+00  0.12168147977E+01  0.12168147977E+01  0.00000000000E+00 0.  1.
         21   -1    0    0  501  503 -0.00000000000E+00 -0.00000000000E+00 -0.36622304608E+02  0.36622304608E+02  0.00000000000E+00 0.  1.
          5    1    1    2  501    0  0.87159415405E+00 -0.94570328865E+00 -0.30634307025E+02  0.31019426139E+02  0.47000000000E+01 0.  1.
         -5    1    1    2    0  502 -0.87159415405E+00  0.94570328865E+00 -0.47711827845E+01  0.68196932660E+01  0.47000000000E+01 0.  1.
<mgrwt>
<rscale>  2 0.48727847E+01</rscale>
<asrwt>0</asrwt>
<pdfrwt beam="1">  1       21 0.18720229E-03 0.48727847E+01</pdfrwt>
<pdfrwt beam="2">  1       21 0.56342004E-02 0.48727847E+01</pdfrwt>
<totfact> 0.21731183E+09</totfact>
</mgrwt>
</event>
<event>
 4    1  0.3964155E+006  0.5699658E+01  0.7546771E-02  0.2456233E+00
         21   -1    0    0  503  502  0.00000000000E+00  0.00000000000E+00  0.70673208316E+01  0.70673208316E+01  0.00000000000E+00 0. -1.
         21   -1    0    0  501  503 -0.00000000000E+00 -0.00000000000E+00 -0.47762167488E+01  0.47762167488E+01  0.00000000000E+00 0. -1.
          5    1    1    2  501    0 -0.22598901744E+01 -0.22997821956E+01 -0.26148878509E-02  0.56996586376E+01  0.47000000000E+01 0. -1.
         -5    1    1    2    0  502  0.22598901744E+01  0.22997821956E+01  0.22937189706E+01  0.61438789428E+01  0.47000000000E+01 0. -1.
<mgrwt>
<rscale>  2 0.56996580E+01</rscale>
<asrwt>0</asrwt>
<pdfrwt beam="1">  1       21 0.10872801E-02 0.56996580E+01</pdfrwt>
<pdfrwt beam="2">  1       21 0.73480257E-03 0.56996580E+01</pdfrwt>
<totfact> 0.41250132E+09</totfact>
</mgrwt>
</event>
<event>
 4    1  0.3964155E+006  0.5421045E+01  0.7546771E-02  0.2497476E+00
         21   -1    0    0  503  502  0.00000000000E+00  0.00000000000E+00  0.97281093301E+00  0.97281093301E+00  0.00000000000E+00 0.  1.
         21   -1    0    0  501  503 -0.00000000000E+00 -0.00000000000E+00 -0.38047646105E+02  0.38047646105E+02  0.00000000000E+00 0. -1.
          5    1    1    2  501    0 -0.25181048481E+01 -0.97820316905E+00 -0.27392986817E+02  0.27924245025E+02  0.47000000000E+01 0. -1.
         -5    1    1    2    0  502  0.25181048481E+01  0.97820316905E+00 -0.96818483550E+01  0.11096212013E+02  0.47000000000E+01 0.  1.
<mgrwt>
<rscale>  2 0.54210454E+01</rscale>
<asrwt>0</asrwt>
<pdfrwt beam="1">  1       21 0.14966324E-03 0.54210454E+01</pdfrwt>
<pdfrwt beam="2">  1       21 0.58534833E-02 0.54210454E+01</pdfrwt>
<totfact> 0.30808913E+09</totfact>
</mgrwt>
</event>
<event>
 4    1  0.3964155E+006  0.7157272E+01  0.7546771E-02  0.2285425E+00
         21   -1    0    0  501  502  0.00000000000E+00  0.00000000000E+00  0.23032599661E+03  0.23032599661E+03  0.00000000000E+00 0. -1.
         21   -1    0    0  502  503 -0.00000000000E+00 -0.00000000000E+00 -0.24145882295E+00  0.24145882295E+00  0.00000000000E+00 0.  1.
          5    1    1    2  501    0  0.47793838557E+01  0.25087903399E+01  0.14742352590E+03  0.14759716300E+03  0.47000000000E+01 0. -1.
         -5    1    1    2    0  503 -0.47793838557E+01 -0.25087903399E+01  0.82661011888E+02  0.82970292426E+02  0.47000000000E+01 0.  1.
<mgrwt>
<rscale>  2 0.71572718E+01</rscale>
<asrwt>0</asrwt>
<pdfrwt beam="1">  1       21 0.35434593E-01 0.71572718E+01</pdfrwt>
<pdfrwt beam="2">  1       21 0.37147695E-04 0.71572718E+01</pdfrwt>
<totfact> 0.14358460E+09</totfact>
</mgrwt>
</event>
<event>
 4    1  0.3964155E+006  0.9266075E+01  0.7546771E-02  0.2119332E+00
         21   -1    0    0  503  502  0.00000000000E+00  0.00000000000E+00  0.15813545894E+00  0.15813545894E+00  0.00000000000E+00 0. -1.
         21   -1    0    0  501  503 -0.00000000000E+00 -0.00000000000E+00 -0.56788216172E+03  0.56788216172E+03  0.00000000000E+00 0.  1.
          5    1    1    2  501    0  0.27815680257E+01  0.74855210963E+01 -0.34336962218E+03  0.34349462526E+03  0.47000000000E+01 0. -1.
         -5    1    1    2    0  502 -0.27815680257E+01 -0.74855210963E+01 -0.22435440407E+03  0.22454567191E+03  0.47000000000E+01 0.  1.
<mgrwt>
<rscale>  2 0.92660750E+01</rscale>
<asrwt>0</asrwt>
<pdfrwt beam="1">  1       21 0.24328382E-04 0.92660750E+01</pdfrwt>
<pdfrwt beam="2">  1       21 0.87367026E-01 0.92660750E+01</pdfrwt>
<totfact> 0.54517079E+08</totfact>
</mgrwt>
</event>
<event>
 4    1  0.3964155E+006  0.6123421E+01  0.7546771E-02  0.2399632E+00
         21   -1    0    0  503  502  0.00000000000E+00  0.00000000000E+00  0.10740758462E+02  0.10740758462E+02  0.00000000000E+00 0.  1.
         21   -1    0    0  501  503 -0.00000000000E+00 -0.00000000000E+00 -0.35564670535E+01  0.35564670535E+01  0.00000000000E+00 0. -1.
          5    1    1    2  501    0 -0.37587951587E+01 -0.11303743546E+01  0.26224593481E+01  0.66613497325E+01  0.47000000000E+01 0. -1.
         -5    1    1    2    0  502  0.37587951587E+01  0.11303743546E+01  0.45618320608E+01  0.76358757833E+01  0.47000000000E+01 0.  1.
<mgrwt>
<rscale>  2 0.61234212E+01</rscale>
<asrwt>0</asrwt>
<pdfrwt beam="1">  1       21 0.16524244E-02 0.61234212E+01</pdfrwt>
<pdfrwt beam="2">  1       21 0.54714878E-03 0.61234212E+01</pdfrwt>
<totfact> 0.36680106E+09</totfact>
</mgrwt>
</event>
<event>
 4    1  0.3964155E+006  0.5025460E+01  0.7546771E-02  0.2562657E+00
         21   -1    0    0  503  502  0.00000000000E+00  0.00000000000E+00  0.19126597304E+01  0.19126597304E+01  0.00000000000E+00 0.  1.
         21   -1    0    0  501  503 -0.00000000000E+00 -0.00000000000E+00 -0.91968470565E+02  0.91968470565E+02  0.00000000000E+00 0.  1.
          5    1    1    2  501    0  0.13257652421E+01 -0.11864217686E+01 -0.88468254170E+02  0.88610875439E+02  0.47000000000E+01 0.  1.
         -5    1    1    2    0  502 -0.13257652421E+01  0.11864217686E+01 -0.15875566642E+01  0.52702548565E+01  0.47000000000E+01 0.  1.
<mgrwt>
<rscale>  2 0.50254602E+01</rscale>
<asrwt>0</asrwt>
<pdfrwt beam="1">  1       21 0.29425540E-03 0.50254602E+01</pdfrwt>
<pdfrwt beam="2">  1       21 0.14148993E-01 0.50254602E+01</pdfrwt>
<totfact> 0.30416797E+08</totfact>
</mgrwt>
</event>
<event>
 4    1  0.3964155E+006  0.5421927E+01  0.7546771E-02  0.2497340E+00
         21   -1    0    0  503  502  0.00000000000E+00  0.00000000000E+00  0.24075492158E+02  0.24075492158E+02  0.00000000000E+00 0.  1.
         21   -1    0    0  501  503 -0.00000000000E+00 -0.00000000000E+00 -0.15336704040E+01  0.15336704040E+01  0.00000000000E+00 0.  1.
          5    1    1    2  501    0  0.86665626925E-01 -0.27018113480E+01  0.54898112682E+01  0.77159136368E+01  0.47000000000E+01 0.  1.
         -5    1    1    2    0  502 -0.86665626925E-01  0.27018113480E+01  0.17052010485E+02  0.17893248925E+02  0.47000000000E+01 0.  1.
<mgrwt>
<rscale>  2 0.54219273E+01</rscale>
<asrwt>0</asrwt>
<pdfrwt beam="1">  1       21 0.37039216E-02 0.54219273E+01</pdfrwt>
<pdfrwt beam="2">  1       21 0.23594931E-03 0.54219273E+01</pdfrwt>
<totfact> 0.32608743E+09</totfact>
</mgrwt>
</event>
<event>
 4    1  0.3964155E+006  0.7657525E+01  0.7546771E-02  0.2239403E+00
         21   -1    0    0  501  502  0.00000000000E+00  0.00000000000E+00  0.44107917543E+01  0.44107917543E+01  0.00000000000E+00 0. -1.
         21   -1    0    0  502  503 -0.00000000000E+00 -0.00000000000E+00 -0.13832340911E+02  0.13832340911E+02  0.00000000000E+00 0.  1.
          5    1    1    2  501    0  0.28044956565E+01 -0.53556035027E+01 -0.65100333966E+01  0.10050782039E+02  0.47000000000E+01 0.  1.
         -5    1    1    2    0  503 -0.28044956565E+01  0.53556035027E+01 -0.29115157600E+01  0.81923506264E+01  0.47000000000E+01 0. -1.
<mgrwt>
<rscale>  2 0.76575247E+01</rscale>
<asrwt>0</asrwt>
<pdfrwt beam="1">  1       21 0.67858336E-03 0.76575247E+01</pdfrwt>
<pdfrwt beam="2">  1       21 0.21280524E-02 0.76575247E+01</pdfrwt>
<totfact> 0.22535628E+09</totfact>
</mgrwt>
</event>
<event>
 4    1  0.3964155E+006  0.6037461E+01  0.7546771E-02  0.2410573E+00
         21   -1    0    0  503  502  0.00000000000E+00  0.00000000000E+00  0.64343598625E+01  0.64343598625E+01  0.00000000000E+00 0. -1.
         21   -1    0    0  501  503 -0.00000000000E+00 -0.00000000000E+00 -0.13493752103E+02  0.13493752103E+02  0.00000000000E+00 0. -1.
          5    1    1    2  501    0  0.24412802586E+01 -0.28984619121E+01 -0.11119225556E+02  0.12652592925E+02  0.47000000000E+01 0. -1.
         -5    1    1    2    0  502 -0.24412802586E+01  0.28984619121E+01  0.40598333156E+01  0.72755190405E+01  0.47000000000E+01 0. -1.
<mgrwt>
<rscale>  2 0.60374606E+01</rscale>
<asrwt>0</asrwt>
<pdfrwt beam="1">  1       21 0.98990153E-03 0.60374606E+01</pdfrwt>
<pdfrwt beam="2">  1       21 0.20759618E-02 0.60374606E+01</pdfrwt>
<totfact> 0.11373796E+09</totfact>
</mgrwt>
</event>
<event>
 4    1  0.3964155E+006  0.4789456E+01  0.7546771E-02  0.2605916E+00
         21   -1    0    0  501  502  0.00000000000E+00  0.00000000000E+00  0.29527165545E+00  0.29527165545E+00  0.00000000000E+00 0.  1.
         21   -1    0    0  502  503 -0.00000000000E+00 -0.00000000000E+00 -0.81877559498E+02  0.81877559498E+02  0.00000000000E+00 0.  1.
          5    1    1    2  501    0 -0.81536493321E+00  0.42903070137E+00 -0.31496536143E+02  0.31858604432E+02  0.47000000000E+01 0.  1.
         -5    1    1    2    0  503  0.81536493321E+00 -0.42903070137E+00 -0.50085751700E+02  0.50314226722E+02  0.47000000000E+01 0.  1.
<mgrwt>
<rscale>  2 0.47894558E+01</rscale>
<asrwt>0</asrwt>
<pdfrwt beam="1">  1       21 0.45426487E-04 0.47894558E+01</pdfrwt>
<pdfrwt beam="2">  1       21 0.12596526E-01 0.47894558E+01</pdfrwt>
<totfact> 0.42002619E+09</totfact>
</mgrwt>
</event>
<event>
 4    1  0.3964155E+006  0.6889348E+01  0.7546771E-02  0.2312296E+00
         21   -1    0    0  501  502  0.00000000000E+00  0.00000000000E+00  0.14433002509E+01  0.14433002509E+01  0.00000000000E+00 0. -1.
         21   -1    0    0  502  503 -0.00000000000E+00 -0.00000000000E+00 -0.36497389352E+02  0.36497389352E+02  0.00000000000E+00 0. -1.
          5    1    1    2  501    0 -0.34347494730E+01 -0.36845095072E+01 -0.11558975008E+02  0.13456337447E+02  0.47000000000E+01 0. -1.
         -5    1    1    2    0  503  0.34347494730E+01  0.36845095072E+01 -0.23495114093E+02  0.24484352156E+02  0.47000000000E+01 0. -1.
<mgrwt>
<rscale>  2 0.68893479E+01</rscale>
<asrwt>0</asrwt>
<pdfrwt beam="1">  1       21 0.22204617E-03 0.68893479E+01</pdfrwt>
<pdfrwt beam="2">  1       21 0.56149835E-02 0.68893479E+01</pdfrwt>
<totfact> 0.23522329E+09</totfact>
</mgrwt>
</event>
<event>
 4    1  0.3964155E+006  0.6658337E+01  0.7546771E-02  0.2336882E+00
         21   -1    0    0  503  502  0.00000000000E+00  0.00000000000E+00  0.81982113579E+02  0.81982113579E+02  0.00000000000E+00 0. -1.
         21   -1    0    0  501  503 -0.00000000000E+00 -0.00000000000E+00 -0.19187883472E+01  0.19187883472E+01  0.00000000000E+00 0.  1.
          5    1    1    2  501    0 -0.46659657048E+01 -0.68717694193E+00  0.44807597300E+01  0.80256249517E+01  0.47000000000E+01 0.  1.
         -5    1    1    2    0  502  0.46659657048E+01  0.68717694193E+00  0.75582565502E+02  0.75875276975E+02  0.47000000000E+01 0. -1.
<mgrwt>
<rscale>  2 0.66583367E+01</rscale>
<asrwt>0</asrwt>
<pdfrwt beam="1">  1       21 0.12612630E-01 0.66583367E+01</pdfrwt>
<pdfrwt beam="2">  1       21 0.29519827E-03 0.66583367E+01</pdfrwt>
<totfact> 0.44768779E+08</totfact>
</mgrwt>
</event>
<event>
 4    1  0.3964155E+006  0.6238519E+01  0.7546771E-02  0.2385377E+00
         21   -1    0    0  501  502  0.00000000000E+00  0.00000000000E+00  0.11040298831E+02  0.11040298831E+02  0.00000000000E+00 0.  1.
         21   -1    0    0  502  503 -0.00000000000E+00 -0.00000000000E+00 -0.19017440763E+02  0.19017440763E+02  0.00000000000E+00 0.  1.
          5    1    1    2  501    0  0.40691356905E+01 -0.52082076474E+00  0.95760475644E+01  0.11428902244E+02  0.47000000000E+01 0.  1.
         -5    1    1    2    0  503 -0.40691356905E+01  0.52082076474E+00 -0.17553189497E+02  0.18628837351E+02  0.47000000000E+01 0.  1.
<mgrwt>
<rscale>  2 0.62385190E+01</rscale>
<asrwt>0</asrwt>
<pdfrwt beam="1">  1       21 0.16985075E-02 0.62385190E+01</pdfrwt>
<pdfrwt beam="2">  1       21 0.29257601E-02 0.62385190E+01</pdfrwt>
<totfact> 0.32951022E+08</totfact>
</mgrwt>
</event>
<event>
 4    1  0.3964155E+006  0.6335101E+01  0.7546771E-02  0.2373749E+00
         21   -1    0    0  503  502  0.00000000000E+00  0.00000000000E+00  0.10874454129E+01  0.10874454129E+01  0.00000000000E+00 0. -1.
         21   -1    0    0  501  503 -0.00000000000E+00 -0.00000000000E+00 -0.16951584445E+03  0.16951584445E+03  0.00000000000E+00 0. -1.
          5    1    1    2  501    0  0.64691623441E+00  0.41982146273E+01 -0.15966081624E+03  0.15978645045E+03  0.47000000000E+01 0. -1.
         -5    1    1    2    0  502 -0.64691623441E+00 -0.41982146273E+01 -0.87675827987E+01  0.10816839409E+02  0.47000000000E+01 0. -1.
<mgrwt>
<rscale>  2 0.63351012E+01</rscale>
<asrwt>0</asrwt>
<pdfrwt beam="1">  1       21 0.16729935E-03 0.63351012E+01</pdfrwt>
<pdfrwt beam="2">  1       21 0.26079352E-01 0.63351012E+01</pdfrwt>
<totfact> 0.29194608E+08</totfact>
</mgrwt>
</event>
<event>
 4    1  0.3964155E+006  0.7040906E+01  0.7546771E-02  0.2296890E+00
         21   -1    0    0  501  502  0.00000000000E+00  0.00000000000E+00  0.63781361057E+02  0.63781361057E+02  0.00000000000E+00 0.  1.
         21   -1    0    0  502  503 -0.00000000000E+00 -0.00000000000E+00 -0.11941428799E+01  0.11941428799E+01  0.00000000000E+00 0.  1.
          5    1    1    2  501    0 -0.32510014209E+01 -0.41128267645E+01  0.50489195043E+02  0.50977771335E+02  0.47000000000E+01 0.  1.
         -5    1    1    2    0  503  0.32510014209E+01  0.41128267645E+01  0.12098023135E+02  0.13997732602E+02  0.47000000000E+01 0.  1.
<mgrwt>
<rscale>  2 0.70409058E+01</rscale>
<asrwt>0</asrwt>
<pdfrwt beam="1">  1       21 0.98125144E-02 0.70409058E+01</pdfrwt>
<pdfrwt beam="2">  1       21 0.18371434E-03 0.70409058E+01</pdfrwt>
<totfact> 0.13226915E+09</totfact>
</mgrwt>
</event>
<event>
 4    1  0.3964155E+006  0.5002122E+01  0.7546771E-02  0.2566777E+00
         21   -1    0    0  503  502  0.00000000000E+00  0.00000000000E+00  0.76676508950E+01  0.76676508950E+01  0.00000000000E+00 0. -1.
         21   -1    0    0  501  503 -0.00000000000E+00 -0.00000000000E+00 -0.32841099137E+01  0.32841099137E+01  0.00000000000E+00 0.  1.
          5    1    1    2  501    0 -0.99674948143E+00  0.13920187482E+01  0.26285091230E+01  0.56506889787E+01  0.47000000000E+01 0. -1.
         -5    1    1    2    0  502  0.99674948143E+00 -0.13920187482E+01  0.17550318583E+01  0.53010718301E+01  0.47000000000E+01 0. -1.
<mgrwt>
<rscale>  2 0.50021221E+01</rscale>
<asrwt>0</asrwt>
<pdfrwt beam="1">  1       21 0.11796386E-02 0.50021221E+01</pdfrwt>
<pdfrwt beam="2">  1       21 0.50524768E-03 0.50021221E+01</pdfrwt>
<totfact> 0.54196401E+09</totfact>
</mgrwt>
</event>
<event>
 4    1  0.3964155E+006  0.7273044E+01  0.7546771E-02  0.2274317E+00
         21   -1    0    0  501  502  0.00000000000E+00  0.00000000000E+00  0.12442988438E+02  0.12442988438E+02  0.00000000000E+00 0. -1.
         21   -1    0    0  502  503 -0.00000000000E+00 -0.00000000000E+00 -0.15875487232E+02  0.15875487232E+02  0.00000000000E+00 0.  1.
          5    1    1    2  501    0  0.14125647857E+01 -0.53676646899E+01  0.10399777132E+02  0.12690647261E+02  0.47000000000E+01 0. -1.
         -5    1    1    2    0  503 -0.14125647857E+01  0.53676646899E+01 -0.13832275926E+02  0.15627828409E+02  0.47000000000E+01 0.  1.
<mgrwt>
<rscale>  2 0.72730436E+01</rscale>
<asrwt>0</asrwt>
<pdfrwt beam="1">  1       21 0.19143059E-02 0.72730436E+01</pdfrwt>
<pdfrwt beam="2">  1       21 0.24423826E-02 0.72730436E+01</pdfrwt>
<totfact> 0.40139569E+08</totfact>
</mgrwt>
</event>
<event>
 4    1  0.3964155E+006  0.4916859E+01  0.7546771E-02  0.2582118E+00
         21   -1    0    0  501  502  0.00000000000E+00  0.00000000000E+00  0.46748039122E+00  0.46748039122E+00  0.00000000000E+00 0.  1.
         21   -1    0    0  502  503 -0.00000000000E+00 -0.00000000000E+00 -0.24041897138E+03  0.24041897138E+03  0.00000000000E+00 0. -1.
          5    1    1    2  501    0 -0.71983818553E+00  0.12519316009E+01 -0.13269670890E+02  0.14151313199E+02  0.47000000000E+01 0.  1.
         -5    1    1    2    0  503  0.71983818553E+00 -0.12519316009E+01 -0.22668182010E+03  0.22673513857E+03  0.47000000000E+01 0. -1.
<mgrwt>
<rscale>  2 0.49168587E+01</rscale>
<asrwt>0</asrwt>
<pdfrwt beam="1">  1       21 0.71919944E-04 0.49168587E+01</pdfrwt>
<pdfrwt beam="2">  1       21 0.36987594E-01 0.49168587E+01</pdfrwt>
<totfact> 0.41671654E+08</totfact>
</mgrwt>
</event>
<event>
 4    1  0.3964155E+006  0.5263888E+01  0.7546771E-02  0.2522367E+00
         21   -1    0    0  503  502  0.00000000000E+00  0.00000000000E+00  0.50649679649E+00  0.50649679649E+00  0.00000000000E+00 0. -1.
         21   -1    0    0  501  503 -0.00000000000E+00 -0.00000000000E+00 -0.57333186467E+02  0.57333186467E+02  0.00000000000E+00 0.  1.
          5    1    1    2  501    0  0.10164431758E+01 -0.21413454500E+01 -0.34603783986E+02  0.35001862568E+02  0.47000000000E+01 0.  1.
         -5    1    1    2    0  502 -0.10164431758E+01  0.21413454500E+01 -0.22222905685E+02  0.22837820696E+02  0.47000000000E+01 0. -1.
<mgrwt>
<rscale>  2 0.52638880E+01</rscale>
<asrwt>0</asrwt>
<pdfrwt beam="1">  1       21 0.77922606E-04 0.52638880E+01</pdfrwt>
<pdfrwt beam="2">  1       21 0.88204878E-02 0.52638880E+01</pdfrwt>
<totfact> 0.38810019E+09</totfact>
</mgrwt>
</event>
<event>
 4    1  0.3964155E+006  0.5114469E+01  0.7546771E-02  0.2547239E+00
         21   -1    0    0  501  502  0.00000000000E+00  0.00000000000E+00  0.91637084424E+02  0.91637084424E+02  0.00000000000E+00 0. -1.
         21   -1    0    0  502  503 -0.00000000000E+00 -0.00000000000E+00 -0.30865195975E+00  0.30865195975E+00  0.00000000000E+00 0.  1.
          5    1    1    2  501    0  0.16843112834E+01 -0.11094551792E+01  0.58268857284E+02  0.58492884392E+02  0.47000000000E+01 0.  1.
         -5    1    1    2    0  503 -0.16843112834E+01  0.11094551792E+01  0.33059575180E+02  0.33452851992E+02  0.47000000000E+01 0.  1.
<mgrwt>
<rscale>  2 0.51144692E+01</rscale>
<asrwt>0</asrwt>
<pdfrwt beam="1">  1       21 0.14097991E-01 0.51144692E+01</pdfrwt>
<pdfrwt beam="2">  1       21 0.47484990E-04 0.51144692E+01</pdfrwt>
<totfact> 0.35571070E+09</totfact>
</mgrwt>
</event>
<event>
 4    1  0.3964155E+006  0.1252665E+02  0.7546771E-02  0.1954501E+00
         21   -1    0    0  503  502  0.00000000000E+00  0.00000000000E+00  0.97930162648E+02  0.97930162648E+02  0.00000000000E+00 0. -1.
         21   -1    0    0  501  503 -0.00000000000E+00 -0.00000000000E+00 -0.24462633443E+01  0.24462633443E+01  0.00000000000E+00 0.  1.
          5    1    1    2  501    0 -0.61887125733E+01  0.98248084508E+01  0.18263634350E+02  0.22146723552E+02  0.47000000000E+01 0.  1.
         -5    1    1    2    0  502  0.61887125733E+01 -0.98248084508E+01  0.77220264953E+02  0.78229702440E+02  0.47000000000E+01 0. -1.
<mgrwt>
<rscale>  2 0.12526653E+02</rscale>
<asrwt>0</asrwt>
<pdfrwt beam="1">  1       21 0.15066176E-01 0.12526653E+02</pdfrwt>
<pdfrwt beam="2">  1       21 0.37634828E-03 0.12526653E+02</pdfrwt>
<totfact> 0.33886031E+08</totfact>
</mgrwt>
</event>
<event>
 4    1  0.3964155E+006  0.5232899E+01  0.7546771E-02  0.2527425E+00
         21   -1    0    0  503  502  0.00000000000E+00  0.00000000000E+00  0.32249515539E+00  0.32249515539E+00  0.00000000000E+00 0.  1.
         21   -1    0    0  501  503 -0.00000000000E+00 -0.00000000000E+00 -0.42942518444E+03  0.42942518444E+03  0.00000000000E+00 0.  1.
          5    1    1    2  501    0  0.57414007181E+00 -0.22279134617E+01 -0.40701274351E+03  0.40704638140E+03  0.47000000000E+01 0.  1.
         -5    1    1    2    0  502 -0.57414007181E+00  0.22279134617E+01 -0.22089945777E+02  0.22701298193E+02  0.47000000000E+01 0.  1.
<mgrwt>
<rscale>  2 0.52328993E+01</rscale>
<asrwt>0</asrwt>
<pdfrwt beam="1">  1       21 0.49614539E-04 0.52328993E+01</pdfrwt>
<pdfrwt beam="2">  1       21 0.66065546E-01 0.52328993E+01</pdfrwt>
<totfact> 0.25542270E+08</totfact>
</mgrwt>
</event>
<event>
 4    1  0.3964155E+006  0.8421718E+01  0.7546771E-02  0.2177780E+00
         21   -1    0    0  503  502  0.00000000000E+00  0.00000000000E+00  0.15769909879E+02  0.15769909879E+02  0.00000000000E+00 0. -1.
         21   -1    0    0  501  503 -0.00000000000E+00 -0.00000000000E+00 -0.52030108769E+01  0.52030108769E+01  0.00000000000E+00 0.  1.
          5    1    1    2  501    0 -0.58619782588E+01 -0.38042808115E+01  0.14220027106E+01  0.85409269584E+01  0.47000000000E+01 0.  1.
         -5    1    1    2    0  502  0.58619782588E+01  0.38042808115E+01  0.91448962917E+01  0.12431993798E+02  0.47000000000E+01 0. -1.
<mgrwt>
<rscale>  2 0.84217184E+01</rscale>
<asrwt>0</asrwt>
<pdfrwt beam="1">  1       21 0.24261400E-02 0.84217184E+01</pdfrwt>
<pdfrwt beam="2">  1       21 0.80046322E-03 0.84217184E+01</pdfrwt>
<totfact> 0.15710106E+09</totfact>
</mgrwt>
</event>
<event>
 4    1  0.3964155E+006  0.6676738E+01  0.7546771E-02  0.2334872E+00
         21   -1    0    0  503  502  0.00000000000E+00  0.00000000000E+00  0.76894991503E+02  0.76894991503E+02  0.00000000000E+00 0.  1.
         21   -1    0    0  501  503 -0.00000000000E+00 -0.00000000000E+00 -0.97214973016E+00  0.97214973016E+00  0.00000000000E+00 0.  1.
          5    1    1    2  501    0 -0.16982019407E+01  0.44277472647E+01  0.13225421697E+02  0.14815215649E+02  0.47000000000E+01 0.  1.
         -5    1    1    2    0  502  0.16982019407E+01 -0.44277472647E+01  0.62697420076E+02  0.63051925584E+02  0.47000000000E+01 0.  1.
<mgrwt>
<rscale>  2 0.66767384E+01</rscale>
<asrwt>0</asrwt>
<pdfrwt beam="1">  1       21 0.11829994E-01 0.66767384E+01</pdfrwt>
<pdfrwt beam="2">  1       21 0.14956156E-03 0.66767384E+01</pdfrwt>
<totfact> 0.12595577E+09</totfact>
</mgrwt>
</event>
<event>
 4    1  0.3964155E+006  0.4890439E+01  0.7546771E-02  0.2586965E+00
         21   -1    0    0  501  502  0.00000000000E+00  0.00000000000E+00  0.38727536695E+01  0.38727536695E+01  0.00000000000E+00 0. -1.
         21   -1    0    0  502  503 -0.00000000000E+00 -0.00000000000E+00 -0.10975401566E+02  0.10975401566E+02  0.00000000000E+00 0. -1.
          5    1    1    2  501    0 -0.12788777412E+01 -0.43687667951E+00  0.13582763029E+01  0.50755594790E+01  0.47000000000E+01 0. -1.
         -5    1    1    2    0  503  0.12788777412E+01  0.43687667951E+00 -0.84609241994E+01  0.97725957564E+01  0.47000000000E+01 0. -1.
<mgrwt>
<rscale>  2 0.48904386E+01</rscale>
<asrwt>0</asrwt>
<pdfrwt beam="1">  1       21 0.59580826E-03 0.48904386E+01</pdfrwt>
<pdfrwt beam="2">  1       21 0.16885233E-02 0.48904386E+01</pdfrwt>
<totfact> 0.25492148E+09</totfact>
</mgrwt>
</event>
<event>
 4    1  0.3964155E+006  0.7718973E+01  0.7546771E-02  0.2234086E+00
         21   -1    0    0  501  502  0.00000000000E+00  0.00000000000E+00  0.95130780183E+00  0.95130780183E+00  0.00000000000E+00 0. -1.
         21   -1    0    0  502  503 -0.00000000000E+00 -0.00000000000E+00 -0.71637415819E+02  0.71637415819E+02  0.00000000000E+00 0.  1.
          5    1    1    2  501    0  0.25195366721E+01 -0.55807236562E+01 -0.22474930202E+02  0.23763523080E+02  0.47000000000E+01 0. -1.
         -5    1    1    2    0  503 -0.25195366721E+01  0.55807236562E+01 -0.48211177815E+02  0.48825200541E+02  0.47000000000E+01 0.  1.
<mgrwt>
<rscale>  2 0.77189728E+01</rscale>
<asrwt>0</asrwt>
<pdfrwt beam="1">  1       21 0.14635508E-03 0.77189728E+01</pdfrwt>
<pdfrwt beam="2">  1       21 0.11021139E-01 0.77189728E+01</pdfrwt>
<totfact> 0.16084975E+09</totfact>
</mgrwt>
</event>
<event>
 4    1  0.3964155E+006  0.5829047E+01  0.7546771E-02  0.2438219E+00
         21   -1    0    0  503  502  0.00000000000E+00  0.00000000000E+00  0.10808805422E+02  0.10808805422E+02  0.00000000000E+00 0. -1.
         21   -1    0    0  501  503 -0.00000000000E+00 -0.00000000000E+00 -0.36423831529E+01  0.36423831529E+01  0.00000000000E+00 0. -1.
          5    1    1    2  501    0 -0.23560979300E+00 -0.34398073563E+01  0.90917160433E+00  0.58995236782E+01  0.47000000000E+01 0. -1.
         -5    1    1    2    0  502  0.23560979300E+00  0.34398073563E+01  0.62572506643E+01  0.85516648963E+01  0.47000000000E+01 0. -1.
<mgrwt>
<rscale>  2 0.58290468E+01</rscale>
<asrwt>0</asrwt>
<pdfrwt beam="1">  1       21 0.16628931E-02 0.58290468E+01</pdfrwt>
<pdfrwt beam="2">  1       21 0.56036664E-03 0.58290468E+01</pdfrwt>
<totfact> 0.33637941E+09</totfact>
</mgrwt>
</event>
<event>
 4    1  0.3964155E+006  0.4982594E+01  0.7546771E-02  0.2570251E+00
         21   -1    0    0  501  502  0.00000000000E+00  0.00000000000E+00  0.17919292299E+00  0.17919292299E+00  0.00000000000E+00 0. -1.
         21   -1    0    0  502  503 -0.00000000000E+00 -0.00000000000E+00 -0.19278008053E+03  0.19278008053E+03  0.00000000000E+00 0.  1.
          5    1    1    2  501    0  0.99702829170E+00 -0.13199158222E+01 -0.45126884290E+02  0.45401122551E+02  0.47000000000E+01 0. -1.
         -5    1    1    2    0  503 -0.99702829170E+00  0.13199158222E+01 -0.14747400332E+03  0.14755815090E+03  0.47000000000E+01 0.  1.
<mgrwt>
<rscale>  2 0.49825940E+01</rscale>
<asrwt>0</asrwt>
<pdfrwt beam="1">  1       21 0.27568139E-04 0.49825940E+01</pdfrwt>
<pdfrwt beam="2">  1       21 0.29658477E-01 0.49825940E+01</pdfrwt>
<totfact> 0.21732776E+09</totfact>
</mgrwt>
</event>
<event>
 4    1  0.3964155E+006  0.9847105E+01  0.7546771E-02  0.2083795E+00
         21   -1    0    0  503  502  0.00000000000E+00  0.00000000000E+00  0.12423648782E+02  0.12423648782E+02  0.00000000000E+00 0. -1.
         21   -1    0    0  501  503 -0.00000000000E+00 -0.00000000000E+00 -0.26267960010E+02  0.26267960010E+02  0.00000000000E+00 0. -1.
          5    1    1    2  501    0 -0.43481244445E+01  0.74812630874E+01 -0.23141202170E+02  0.25149169398E+02  0.47000000000E+01 0. -1.
         -5    1    1    2    0  502  0.43481244445E+01 -0.74812630874E+01  0.92968909407E+01  0.13542439394E+02  0.47000000000E+01 0. -1.
<mgrwt>
<rscale>  2 0.98471053E+01</rscale>
<asrwt>0</asrwt>
<pdfrwt beam="1">  1       21 0.19113306E-02 0.98471053E+01</pdfrwt>
<pdfrwt beam="2">  1       21 0.40412246E-02 0.98471053E+01</pdfrwt>
<totfact> 0.22710957E+08</totfact>
</mgrwt>
</event>
<event>
 4    1  0.3964155E+006  0.7323355E+01  0.7546771E-02  0.2269579E+00
         21   -1    0    0  503  502  0.00000000000E+00  0.00000000000E+00  0.82380353599E-01  0.82380353599E-01  0.00000000000E+00 0.  1.
         21   -1    0    0  501  503 -0.00000000000E+00 -0.00000000000E+00 -0.77295174808E+03  0.77295174808E+03  0.00000000000E+00 0. -1.
          5    1    1    2  501    0 -0.44914085294E+01  0.33717608180E+01 -0.53994769051E+03  0.53999735185E+03  0.47000000000E+01 0. -1.
         -5    1    1    2    0  502  0.44914085294E+01 -0.33717608180E+01 -0.23292167722E+03  0.23303677658E+03  0.47000000000E+01 0.  1.
<mgrwt>
<rscale>  2 0.73233545E+01</rscale>
<asrwt>0</asrwt>
<pdfrwt beam="1">  1       21 0.12673207E-04 0.73233545E+01</pdfrwt>
<pdfrwt beam="2">  1       21 0.11892216E+00 0.73233545E+01</pdfrwt>
<totfact> 0.61121309E+08</totfact>
</mgrwt>
</event>
<event>
 4    1  0.3964155E+006  0.6552341E+01  0.7546771E-02  0.2348639E+00
         21   -1    0    0  503  502  0.00000000000E+00  0.00000000000E+00  0.63677415764E+02  0.63677415764E+02  0.00000000000E+00 0.  1.
         21   -1    0    0  501  503 -0.00000000000E+00 -0.00000000000E+00 -0.79044986406E+00  0.79044986406E+00  0.00000000000E+00 0.  1.
          5    1    1    2  501    0  0.34816707374E+01 -0.29531587766E+01  0.19083505813E+02  0.20177050627E+02  0.47000000000E+01 0.  1.
         -5    1    1    2    0  502 -0.34816707374E+01  0.29531587766E+01  0.43803460086E+02  0.44290815001E+02  0.47000000000E+01 0.  1.
<mgrwt>
<rscale>  2 0.65523414E+01</rscale>
<asrwt>0</asrwt>
<pdfrwt beam="1">  1       21 0.97965215E-02 0.65523414E+01</pdfrwt>
<pdfrwt beam="2">  1       21 0.12160772E-03 0.65523414E+01</pdfrwt>
<totfact> 0.22042360E+09</totfact>
</mgrwt>
</event>
<event>
 4    1  0.3964155E+006  0.1122577E+02  0.7546771E-02  0.2011279E+00
         21   -1    0    0  501  502  0.00000000000E+00  0.00000000000E+00  0.85207094631E+02  0.85207094631E+02  0.00000000000E+00 0. -1.
         21   -1    0    0  502  503 -0.00000000000E+00 -0.00000000000E+00 -0.23717212239E+01  0.23717212239E+01  0.00000000000E+00 0.  1.
          5    1    1    2  501    0 -0.56747944646E+01  0.84690439790E+01  0.68283784342E+02  0.69200384408E+02  0.47000000000E+01 0. -1.
         -5    1    1    2    0  503  0.56747944646E+01 -0.84690439790E+01  0.14551589065E+02  0.18378431447E+02  0.47000000000E+01 0.  1.
<mgrwt>
<rscale>  2 0.11225774E+02</rscale>
<asrwt>0</asrwt>
<pdfrwt beam="1">  1       21 0.13108781E-01 0.11225774E+02</pdfrwt>
<pdfrwt beam="2">  1       21 0.36488025E-03 0.11225774E+02</pdfrwt>
<totfact> 0.42296862E+08</totfact>
</mgrwt>
</event>
<event>
 4    1  0.3964155E+006  0.5110017E+01  0.7546771E-02  0.2547999E+00
         21   -1    0    0  503  502  0.00000000000E+00  0.00000000000E+00  0.69068246055E+02  0.69068246055E+02  0.00000000000E+00 0.  1.
         21   -1    0    0  501  503 -0.00000000000E+00 -0.00000000000E+00 -0.82525034569E+00  0.82525034569E+00  0.00000000000E+00 0.  1.
          5    1    1    2  501    0  0.95693962144E+00 -0.17625386116E+01  0.83963564991E+01  0.98290934606E+01  0.47000000000E+01 0.  1.
         -5    1    1    2    0  502 -0.95693962144E+00  0.17625386116E+01  0.59846639211E+02  0.60064402941E+02  0.47000000000E+01 0.  1.
<mgrwt>
<rscale>  2 0.51100172E+01</rscale>
<asrwt>0</asrwt>
<pdfrwt beam="1">  1       21 0.10625879E-01 0.51100172E+01</pdfrwt>
<pdfrwt beam="2">  1       21 0.12696165E-03 0.51100172E+01</pdfrwt>
<totfact> 0.14847077E+09</totfact>
</mgrwt>
</event>
<event>
 4    1  0.3964155E+006  0.4865922E+01  0.7546771E-02  0.2591503E+00
         21   -1    0    0  503  502  0.00000000000E+00  0.00000000000E+00  0.21248877448E+01  0.21248877448E+01  0.00000000000E+00 0. -1.
         21   -1    0    0  501  503 -0.00000000000E+00 -0.00000000000E+00 -0.53988371362E+02  0.53988371362E+02  0.00000000000E+00 0. -1.
          5    1    1    2  501    0  0.35208704653E+00  0.12096426315E+01 -0.50925890587E+02  0.51157829632E+02  0.47000000000E+01 0. -1.
         -5    1    1    2    0  502 -0.35208704653E+00 -0.12096426315E+01 -0.93759302954E+00  0.49554294742E+01  0.47000000000E+01 0. -1.
<mgrwt>
<rscale>  2 0.48659224E+01</rscale>
<asrwt>0</asrwt>
<pdfrwt beam="1">  1       21 0.32690581E-03 0.48659224E+01</pdfrwt>
<pdfrwt beam="2">  1       21 0.83059031E-02 0.48659224E+01</pdfrwt>
<totfact> 0.57595899E+08</totfact>
</mgrwt>
</event>
<event>
 4    1  0.3964155E+006  0.7152274E+01  0.7546771E-02  0.2285911E+00
         21   -1    0    0  501  502  0.00000000000E+00  0.00000000000E+00  0.39330786174E+03  0.39330786174E+03  0.00000000000E+00 0.  1.
         21   -1    0    0  502  503 -0.00000000000E+00 -0.00000000000E+00 -0.29928593821E+00  0.29928593821E+00  0.00000000000E+00 0. -1.
          5    1    1    2  501    0  0.42323671480E+01  0.33394749018E+01  0.34448963310E+03  0.34456387265E+03  0.47000000000E+01 0.  1.
         -5    1    1    2    0  503 -0.42323671480E+01 -0.33394749018E+01  0.48518942703E+02  0.49043275026E+02  0.47000000000E+01 0. -1.
<mgrwt>
<rscale>  2 0.71522741E+01</rscale>
<asrwt>0</asrwt>
<pdfrwt beam="1">  1       21 0.60508488E-01 0.71522741E+01</pdfrwt>
<pdfrwt beam="2">  1       21 0.46044305E-04 0.71522741E+01</pdfrwt>
<totfact> 0.40899843E+08</totfact>
</mgrwt>
</event>
<event>
 4    1  0.3964155E+006  0.1151107E+02  0.7546771E-02  0.1997983E+00
         21   -1    0    0  503  502  0.00000000000E+00  0.00000000000E+00  0.93208344451E+00  0.93208344451E+00  0.00000000000E+00 0. -1.
         21   -1    0    0  501  503 -0.00000000000E+00 -0.00000000000E+00 -0.14636576355E+03  0.14636576355E+03  0.00000000000E+00 0.  1.
          5    1    1    2  501    0 -0.29638599052E+01 -0.10081189484E+02 -0.60232183897E+02  0.61322270212E+02  0.47000000000E+01 0.  1.
         -5    1    1    2    0  502  0.29638599052E+01  0.10081189484E+02 -0.85201496212E+02  0.85975576786E+02  0.47000000000E+01 0. -1.
<mgrwt>
<rscale>  2 0.11511075E+02</rscale>
<asrwt>0</asrwt>
<pdfrwt beam="1">  1       21 0.14339749E-03 0.11511075E+02</pdfrwt>
<pdfrwt beam="2">  1       21 0.22517805E-01 0.11511075E+02</pdfrwt>
<totfact> 0.64958416E+08</totfact>
</mgrwt>
</event>
<event>
 4    1  0.3964155E+006  0.5260223E+01  0.7546771E-02  0.2522962E+00
         21   -1    0    0  501  502  0.00000000000E+00  0.00000000000E+00  0.42527532909E+01  0.42527532909E+01  0.00000000000E+00 0.  1.
         21   -1    0    0  502  503 -0.00000000000E+00 -0.00000000000E+00 -0.67092646093E+01  0.67092646093E+01  0.00000000000E+00 0. -1.
          5    1    1    2  501    0 -0.19533173288E+00  0.23541002562E+01 -0.21814234526E+01  0.56946071666E+01  0.47000000000E+01 0.  1.
         -5    1    1    2    0  503  0.19533173288E+00 -0.23541002562E+01 -0.27508786583E+00  0.52674107336E+01  0.47000000000E+01 0. -1.
<mgrwt>
<rscale>  2 0.52602227E+01</rscale>
<asrwt>0</asrwt>
<pdfrwt beam="1">  1       21 0.65426973E-03 0.52602227E+01</pdfrwt>
<pdfrwt beam="2">  1       21 0.10321946E-02 0.52602227E+01</pdfrwt>
<totfact> 0.48219047E+09</totfact>
</mgrwt>
</event>
<event>
 4    1  0.3964155E+006  0.4739008E+01  0.7546771E-02  0.2615646E+00
         21   -1    0    0  503  502  0.00000000000E+00  0.00000000000E+00  0.16485889932E+02  0.16485889932E+02  0.00000000000E+00 0. -1.
         21   -1    0    0  501  503 -0.00000000000E+00 -0.00000000000E+00 -0.18885915295E+01  0.18885915295E+01  0.00000000000E+00 0. -1.
          5    1    1    2  501    0 -0.60651821653E+00 -0.18174096223E-01  0.24486394474E+01  0.53342318836E+01  0.47000000000E+01 0. -1.
         -5    1    1    2    0  502  0.60651821653E+00  0.18174096223E-01  0.12148658955E+02  0.13040249578E+02  0.47000000000E+01 0. -1.
<mgrwt>
<rscale>  2 0.47390078E+01</rscale>
<asrwt>0</asrwt>
<pdfrwt beam="1">  1       21 0.25362907E-02 0.47390078E+01</pdfrwt>
<pdfrwt beam="2">  1       21 0.29055255E-03 0.47390078E+01</pdfrwt>
<totfact> 0.36936281E+09</totfact>
</mgrwt>
</event>
<event>
 4    1  0.3964155E+006  0.5829718E+01  0.7546771E-02  0.2438127E+00
         21   -1    0    0  503  502  0.00000000000E+00  0.00000000000E+00  0.43631554017E+01  0.43631554017E+01  0.00000000000E+00 0. -1.
         21   -1    0    0  501  503 -0.00000000000E+00 -0.00000000000E+00 -0.58202136544E+02  0.58202136544E+02  0.00000000000E+00 0. -1.
          5    1    1    2  501    0 -0.30842792771E+01 -0.15436433035E+01 -0.56033692660E+02  0.56336136950E+02  0.47000000000E+01 0. -1.
         -5    1    1    2    0  502  0.30842792771E+01  0.15436433035E+01  0.21947115182E+01  0.62291549953E+01  0.47000000000E+01 0. -1.
<mgrwt>
<rscale>  2 0.58297181E+01</rscale>
<asrwt>0</asrwt>
<pdfrwt beam="1">  1       21 0.67125470E-03 0.58297181E+01</pdfrwt>
<pdfrwt beam="2">  1       21 0.89541746E-02 0.58297181E+01</pdfrwt>
<totfact> 0.22117037E+08</totfact>
</mgrwt>
</event>
<event>
 4    1  0.3964155E+006  0.6437417E+01  0.7546771E-02  0.2361747E+00
         21   -1    0    0  501  502  0.00000000000E+00  0.00000000000E+00  0.25274029951E+01  0.25274029951E+01  0.00000000000E+00 0.  1.
         21   -1    0    0  502  503 -0.00000000000E+00 -0.00000000000E+00 -0.16873362055E+02  0.16873362055E+02  0.00000000000E+00 0. -1.
          5    1    1    2  501    0  0.42564949998E+01 -0.11102201790E+01 -0.55420886351E+01  0.84944149280E+01  0.47000000000E+01 0. -1.
         -5    1    1    2    0  503 -0.42564949998E+01  0.11102201790E+01 -0.88038704249E+01  0.10906350122E+02  0.47000000000E+01 0.  1.
<mgrwt>
<rscale>  2 0.64374171E+01</rscale>
<asrwt>0</asrwt>
<pdfrwt beam="1">  1       21 0.38883122E-03 0.64374171E+01</pdfrwt>
<pdfrwt beam="2">  1       21 0.25959019E-02 0.64374171E+01</pdfrwt>
<totfact> 0.32119625E+09</totfact>
</mgrwt>
</event>
<event>
 4    1  0.3964155E+006  0.7593293E+01  0.7546771E-02  0.2245036E+00
         21   -1    0    0  503  502  0.00000000000E+00  0.00000000000E+00  0.26250586146E+02  0.26250586146E+02  0.00000000000E+00 0. -1.
         21   -1    0    0  501  503 -0.00000000000E+00 -0.00000000000E+00 -0.53749316630E+01  0.53749316630E+01  0.00000000000E+00 0.  1.
          5    1    1    2  501    0 -0.57661985923E+00 -0.59359592349E+01 -0.17221013431E+01  0.77861245518E+01  0.47000000000E+01 0.  1.
         -5    1    1    2    0  502  0.57661985923E+00  0.59359592349E+01  0.22597755826E+02  0.23839393257E+02  0.47000000000E+01 0. -1.
<mgrwt>
<rscale>  2 0.75932933E+01</rscale>
<asrwt>0</asrwt>
<pdfrwt beam="1">  1       21 0.40385516E-02 0.75932933E+01</pdfrwt>
<pdfrwt beam="2">  1       21 0.82691258E-03 0.75932933E+01</pdfrwt>
<totfact> 0.65698867E+08</totfact>
</mgrwt>
</event>
<event>
 4    1  0.3964155E+006  0.5128045E+01  0.7546771E-02  0.2544928E+00
         21   -1    0    0  501  502  0.00000000000E+00  0.00000000000E+00  0.38387275159E+03  0.38387275159E+03  0.00000000000E+00 0.  1.
         21   -1    0    0  502  503 -0.00000000000E+00 -0.00000000000E+00 -0.77805393133E-01  0.77805393133E-01  0.00000000000E+00 0.  1.
          5    1    1    2  501    0  0.83475476856E+00  0.18735073408E+01  0.12552120119E+03  0.12562590813E+03  0.47000000000E+01 0.  1.
         -5    1    1    2    0  503 -0.83475476856E+00 -0.18735073408E+01  0.25827374501E+03  0.25832464885E+03  0.47000000000E+01 0.  1.
<mgrwt>
<rscale>  2 0.51280450E+01</rscale>
<asrwt>0</asrwt>
<pdfrwt beam="1">  1       21 0.59055830E-01 0.51280450E+01</pdfrwt>
<pdfrwt beam="2">  1       21 0.11970368E-04 0.51280450E+01</pdfrwt>
<totfact> 0.20366662E+09</totfact>
</mgrwt>
</event>
<event>
 4    1  0.3964155E+006  0.5271023E+01  0.7546771E-02  0.2521209E+00
         21   -1    0    0  503  502  0.00000000000E+00  0.00000000000E+00  0.41783746467E+02  0.41783746467E+02  0.00000000000E+00 0. -1.
         21   -1    0    0  501  503 -0.00000000000E+00 -0.00000000000E+00 -0.19940437848E+01  0.19940437848E+01  0.00000000000E+00 0. -1.
          5    1    1    2  501    0 -0.12942646519E+00  0.23826318736E+01  0.20243828979E+01  0.56463981415E+01  0.47000000000E+01 0. -1.
         -5    1    1    2    0  502  0.12942646519E+00 -0.23826318736E+01  0.37765319784E+02  0.38131392110E+02  0.47000000000E+01 0. -1.
<mgrwt>
<rscale>  2 0.52710232E+01</rscale>
<asrwt>0</asrwt>
<pdfrwt beam="1">  1       21 0.64282680E-02 0.52710232E+01</pdfrwt>
<pdfrwt beam="2">  1       21 0.30677600E-03 0.52710232E+01</pdfrwt>
<totfact> 0.98881458E+08</totfact>
</mgrwt>
</event>
<event>
 4    1  0.3964155E+006  0.6439178E+01  0.7546771E-02  0.2361544E+00
         21   -1    0    0  503  502  0.00000000000E+00  0.00000000000E+00  0.27302776722E+02  0.27302776722E+02  0.00000000000E+00 0.  1.
         21   -1    0    0  501  503 -0.00000000000E+00 -0.00000000000E+00 -0.16447630410E+01  0.16447630410E+01  0.00000000000E+00 0.  1.
          5    1    1    2  501    0  0.42189675225E+01 -0.12543205122E+01  0.88209637869E+01  0.10921190825E+02  0.47000000000E+01 0.  1.
         -5    1    1    2    0  502 -0.42189675225E+01  0.12543205122E+01  0.16837049894E+02  0.18026348938E+02  0.47000000000E+01 0.  1.
<mgrwt>
<rscale>  2 0.64391775E+01</rscale>
<asrwt>0</asrwt>
<pdfrwt beam="1">  1       21 0.42004268E-02 0.64391775E+01</pdfrwt>
<pdfrwt beam="2">  1       21 0.25304049E-03 0.64391775E+01</pdfrwt>
<totfact> 0.28706644E+09</totfact>
</mgrwt>
</event>
<event>
 4    1  0.3964155E+006  0.5082055E+01  0.7546771E-02  0.2552800E+00
         21   -1    0    0  501  502  0.00000000000E+00  0.00000000000E+00  0.84472537981E+03  0.84472537981E+03  0.00000000000E+00 0.  1.
         21   -1    0    0  502  503 -0.00000000000E+00 -0.00000000000E+00 -0.39862380093E-01  0.39862380093E-01  0.00000000000E+00 0.  1.
          5    1    1    2  501    0  0.18629377920E+01 -0.51647918022E+00  0.62622355039E+03  0.62624417151E+03  0.47000000000E+01 0.  1.
         -5    1    1    2    0  503 -0.18629377920E+01  0.51647918022E+00  0.21846196705E+03  0.21852107069E+03  0.47000000000E+01 0.  1.
<mgrwt>
<rscale>  2 0.50820555E+01</rscale>
<asrwt>0</asrwt>
<pdfrwt beam="1">  1       21 0.12994342E+00 0.50820555E+01</pdfrwt>
<pdfrwt beam="2">  1       21 0.61333504E-05 0.50820555E+01</pdfrwt>
<totfact> 0.10545429E+09</totfact>
</mgrwt>
</event>
<event>
 4    1  0.3964155E+006  0.7116536E+01  0.7546771E-02  0.2289403E+00
         21   -1    0    0  501  502  0.00000000000E+00  0.00000000000E+00  0.81310124066E+02  0.81310124066E+02  0.00000000000E+00 0.  1.
         21   -1    0    0  502  503 -0.00000000000E+00 -0.00000000000E+00 -0.11772715169E+01  0.11772715169E+01  0.00000000000E+00 0.  1.
          5    1    1    2  501    0  0.21157386601E+01 -0.49070086134E+01  0.68369535548E+02  0.68738915286E+02  0.47000000000E+01 0.  1.
         -5    1    1    2    0  503 -0.21157386601E+01  0.49070086134E+01  0.11763317001E+02  0.13748480297E+02  0.47000000000E+01 0.  1.
<mgrwt>
<rscale>  2 0.71165359E+01</rscale>
<asrwt>0</asrwt>
<pdfrwt beam="1">  1       21 0.12509245E-01 0.71165359E+01</pdfrwt>
<pdfrwt beam="2">  1       21 0.18111876E-03 0.71165359E+01</pdfrwt>
<totfact> 0.92970230E+08</totfact>
</mgrwt>
</event>
<event>
 4    1  0.3964155E+006  0.7298466E+01  0.7546771E-02  0.2271916E+00
         21   -1    0    0  501  502  0.00000000000E+00  0.00000000000E+00  0.39597849029E+02  0.39597849029E+02  0.00000000000E+00 0. -1.
         21   -1    0    0  502  503 -0.00000000000E+00 -0.00000000000E+00 -0.19951555206E+01  0.19951555206E+01  0.00000000000E+00 0. -1.
          5    1    1    2  501    0 -0.55409094884E+01  0.68987682864E+00  0.30671021898E+02  0.31527435549E+02  0.47000000000E+01 0. -1.
         -5    1    1    2    0  503  0.55409094884E+01 -0.68987682864E+00  0.69316716099E+01  0.10065569001E+02  0.47000000000E+01 0. -1.
<mgrwt>
<rscale>  2 0.72984661E+01</rscale>
<asrwt>0</asrwt>
<pdfrwt beam="1">  1       21 0.60919762E-02 0.72984661E+01</pdfrwt>
<pdfrwt beam="2">  1       21 0.30694703E-03 0.72984661E+01</pdfrwt>
<totfact> 0.13879152E+09</totfact>
</mgrwt>
</event>
<event>
 4    1  0.3964155E+006  0.7523643E+01  0.7546771E-02  0.2251231E+00
         21   -1    0    0  503  502  0.00000000000E+00  0.00000000000E+00  0.50717031117E+01  0.50717031117E+01  0.00000000000E+00 0.  1.
         21   -1    0    0  501  503 -0.00000000000E+00 -0.00000000000E+00 -0.13058828091E+02  0.13058828091E+02  0.00000000000E+00 0. -1.
          5    1    1    2  501    0  0.25341585428E+01  0.53003062945E+01 -0.74494412043E+01  0.10587699495E+02  0.47000000000E+01 0. -1.
         -5    1    1    2    0  502 -0.25341585428E+01 -0.53003062945E+01 -0.53768377529E+00  0.75428317082E+01  0.47000000000E+01 0.  1.
<mgrwt>
<rscale>  2 0.75236432E+01</rscale>
<asrwt>0</asrwt>
<pdfrwt beam="1">  1       21 0.78026201E-03 0.75236432E+01</pdfrwt>
<pdfrwt beam="2">  1       21 0.20090505E-02 0.75236432E+01</pdfrwt>
<totfact> 0.19838871E+09</totfact>
</mgrwt>
</event>
<event>
 4    1  0.3964155E+006  0.5521946E+01  0.7546771E-02  0.2482133E+00
         21   -1    0    0  503  502  0.00000000000E+00  0.00000000000E+00  0.12579739011E+02  0.12579739011E+02  0.00000000000E+00 0.  1.
         21   -1    0    0  501  503 -0.00000000000E+00 -0.00000000000E+00 -0.24289292150E+01  0.24289292150E+01  0.00000000000E+00 0.  1.
          5    1    1    2  501    0 -0.27721157817E+01  0.84691036170E+00  0.54172713325E+01  0.77355485751E+01  0.47000000000E+01 0.  1.
         -5    1    1    2    0  502  0.27721157817E+01 -0.84691036170E+00  0.47335384630E+01  0.72731196504E+01  0.47000000000E+01 0.  1.
<mgrwt>
<rscale>  2 0.55219456E+01</rscale>
<asrwt>0</asrwt>
<pdfrwt beam="1">  1       21 0.19353444E-02 0.55219456E+01</pdfrwt>
<pdfrwt beam="2">  1       21 0.37368143E-03 0.55219456E+01</pdfrwt>
<totfact> 0.45091314E+09</totfact>
</mgrwt>
</event>
<event>
 4    1  0.3964155E+006  0.5615908E+01  0.7546771E-02  0.2468266E+00
         21   -1    0    0  503  502  0.00000000000E+00  0.00000000000E+00  0.24271442949E+01  0.24271442949E+01  0.00000000000E+00 0. -1.
         21   -1    0    0  501  503 -0.00000000000E+00 -0.00000000000E+00 -0.15203329453E+02  0.15203329453E+02  0.00000000000E+00 0. -1.
          5    1    1    2  501    0 -0.48096023200E+00  0.30359673315E+01 -0.97484890869E+01  0.11250398209E+02  0.47000000000E+01 0. -1.
         -5    1    1    2    0  502  0.48096023200E+00 -0.30359673315E+01 -0.30276960713E+01  0.63800755390E+01  0.47000000000E+01 0. -1.
<mgrwt>
<rscale>  2 0.56159078E+01</rscale>
<asrwt>0</asrwt>
<pdfrwt beam="1">  1       21 0.37340680E-03 0.56159078E+01</pdfrwt>
<pdfrwt beam="2">  1       21 0.23389738E-02 0.56159078E+01</pdfrwt>
<totfact> 0.34966654E+09</totfact>
</mgrwt>
</event>
<event>
 4    1  0.3964155E+006  0.7566130E+01  0.7546771E-02  0.2247441E+00
         21   -1    0    0  503  502  0.00000000000E+00  0.00000000000E+00  0.35631078444E+00  0.35631078444E+00  0.00000000000E+00 0.  1.
         21   -1    0    0  501  503 -0.00000000000E+00 -0.00000000000E+00 -0.23593805945E+03  0.23593805945E+03  0.00000000000E+00 0. -1.
          5    1    1    2  501    0 -0.54905156295E+01  0.22384273386E+01 -0.18452485364E+03  0.18467990667E+03  0.47000000000E+01 0. -1.
         -5    1    1    2    0  502  0.54905156295E+01 -0.22384273386E+01 -0.51056895032E+02  0.51614463566E+02  0.47000000000E+01 0.  1.
<mgrwt>
<rscale>  2 0.75661297E+01</rscale>
<asrwt>0</asrwt>
<pdfrwt beam="1">  1       21 0.54817250E-04 0.75661297E+01</pdfrwt>
<pdfrwt beam="2">  1       21 0.36298027E-01 0.75661297E+01</pdfrwt>
<totfact> 0.84462123E+08</totfact>
</mgrwt>
</event>
<event>
 4    1  0.3964155E+006  0.4875002E+01  0.7546771E-02  0.2589818E+00
         21   -1    0    0  501  502  0.00000000000E+00  0.00000000000E+00  0.90027368827E-01  0.90027368827E-01  0.00000000000E+00 0. -1.
         21   -1    0    0  502  503 -0.00000000000E+00 -0.00000000000E+00 -0.46274088215E+03  0.46274088215E+03  0.00000000000E+00 0. -1.
          5    1    1    2  501    0 -0.12732336966E+01  0.23350620294E+00 -0.79660151577E+02  0.79809181166E+02  0.47000000000E+01 0. -1.
         -5    1    1    2    0  503  0.12732336966E+01 -0.23350620294E+00 -0.38299070320E+03  0.38302172835E+03  0.47000000000E+01 0. -1.
<mgrwt>
<rscale>  2 0.48750025E+01</rscale>
<asrwt>0</asrwt>
<pdfrwt beam="1">  1       21 0.13850237E-04 0.48750025E+01</pdfrwt>
<pdfrwt beam="2">  1       21 0.71191559E-01 0.48750025E+01</pdfrwt>
<totfact> 0.11386424E+09</totfact>
</mgrwt>
</event>
<event>
 4    1  0.3964155E+006  0.3217057E+02  0.7546771E-02  0.1575265E+00
         21   -1    0    0  503  502  0.00000000000E+00  0.00000000000E+00  0.73966373767E+02  0.73966373767E+02  0.00000000000E+00 0. -1.
         21   -1    0    0  501  503 -0.00000000000E+00 -0.00000000000E+00 -0.64011046549E+02  0.64011046549E+02  0.00000000000E+00 0.  1.
          5    1    1    2  501    0  0.31765149423E+02  0.19573306565E+01 -0.56006598771E+02  0.64588582328E+02  0.47000000000E+01 0.  1.
         -5    1    1    2    0  502 -0.31765149423E+02 -0.19573306565E+01  0.65961925989E+02  0.73388837988E+02  0.47000000000E+01 0. -1.
<mgrwt>
<rscale>  2 0.32170574E+02</rscale>
<asrwt>0</asrwt>
<pdfrwt beam="1">  1       21 0.11379442E-01 0.32170574E+02</pdfrwt>
<pdfrwt beam="2">  1       21 0.98478534E-02 0.32170574E+02</pdfrwt>
<totfact> 0.47057785E+06</totfact>
</mgrwt>
</event>
<event>
 4    1  0.3964155E+006  0.5094418E+01  0.7546771E-02  0.2550672E+00
         21   -1    0    0  501  502  0.00000000000E+00  0.00000000000E+00  0.22170700792E+02  0.22170700792E+02  0.00000000000E+00 0. -1.
         21   -1    0    0  502  503 -0.00000000000E+00 -0.00000000000E+00 -0.11746822470E+01  0.11746822470E+01  0.00000000000E+00 0.  1.
          5    1    1    2  501    0  0.19362953598E+01 -0.33742700908E+00  0.11185840622E+02  0.12291302906E+02  0.47000000000E+01 0. -1.
         -5    1    1    2    0  503 -0.19362953598E+01  0.33742700908E+00  0.98101779239E+01  0.11054080134E+02  0.47000000000E+01 0.  1.
<mgrwt>
<rscale>  2 0.50944182E+01</rscale>
<asrwt>0</asrwt>
<pdfrwt beam="1">  1       21 0.34108767E-02 0.50944182E+01</pdfrwt>
<pdfrwt beam="2">  1       21 0.18072036E-03 0.50944182E+01</pdfrwt>
<totfact> 0.49469981E+09</totfact>
</mgrwt>
</event>
<event>
 4    1  0.3964155E+006  0.1065666E+02  0.7546771E-02  0.2039436E+00
         21   -1    0    0  501  502  0.00000000000E+00  0.00000000000E+00  0.11170218375E+03  0.11170218375E+03  0.00000000000E+00 0. -1.
         21   -1    0    0  502  503 -0.00000000000E+00 -0.00000000000E+00 -0.16361720163E+01  0.16361720163E+01  0.00000000000E+00 0.  1.
          5    1    1    2  501    0 -0.91656483467E+01 -0.27322598710E+01  0.89903130337E+02  0.90532520113E+02  0.47000000000E+01 0. -1.
         -5    1    1    2    0  503  0.91656483467E+01  0.27322598710E+01  0.20162881395E+02  0.22805835651E+02  0.47000000000E+01 0.  1.
<mgrwt>
<rscale>  2 0.10656658E+02</rscale>
<asrwt>0</asrwt>
<pdfrwt beam="1">  1       21 0.17184945E-01 0.10656658E+02</pdfrwt>
<pdfrwt beam="2">  1       21 0.25171886E-03 0.10656658E+02</pdfrwt>
<totfact> 0.44708696E+08</totfact>
</mgrwt>
</event>
<event>
 4    1  0.3964155E+006  0.6038663E+01  0.7546771E-02  0.2410419E+00
         21   -1    0    0  503  502  0.00000000000E+00  0.00000000000E+00  0.14950336853E+03  0.14950336853E+03  0.00000000000E+00 0.  1.
         21   -1    0    0  501  503 -0.00000000000E+00 -0.00000000000E+00 -0.28501686585E+00  0.28501686585E+00  0.00000000000E+00 0. -1.
          5    1    1    2  501    0 -0.11341644407E+01 -0.36178888377E+01  0.46166716283E+02  0.46559973592E+02  0.47000000000E+01 0. -1.
         -5    1    1    2    0  502  0.11341644407E+01  0.36178888377E+01  0.10305163538E+03  0.10322841180E+03  0.47000000000E+01 0.  1.
<mgrwt>
<rscale>  2 0.60386628E+01</rscale>
<asrwt>0</asrwt>
<pdfrwt beam="1">  1       21 0.23000456E-01 0.60386628E+01</pdfrwt>
<pdfrwt beam="2">  1       21 0.43848868E-04 0.60386628E+01</pdfrwt>
<totfact> 0.21011422E+09</totfact>
</mgrwt>
</event>
<event>
 4    1  0.3964155E+006  0.6568283E+01  0.7546771E-02  0.2346851E+00
         21   -1    0    0  501  502  0.00000000000E+00  0.00000000000E+00  0.10731672771E+02  0.10731672771E+02  0.00000000000E+00 0.  1.
         21   -1    0    0  502  503 -0.00000000000E+00 -0.00000000000E+00 -0.74931813549E+01  0.74931813549E+01  0.00000000000E+00 0.  1.
          5    1    1    2  501    0 -0.16207600829E+01  0.42924905396E+01  0.78230596975E+01  0.10214822627E+02  0.47000000000E+01 0.  1.
         -5    1    1    2    0  503  0.16207600829E+01 -0.42924905396E+01 -0.45845682814E+01  0.80100314984E+01  0.47000000000E+01 0.  1.
<mgrwt>
<rscale>  2 0.65682827E+01</rscale>
<asrwt>0</asrwt>
<pdfrwt beam="1">  1       21 0.16510266E-02 0.65682827E+01</pdfrwt>
<pdfrwt beam="2">  1       21 0.11527971E-02 0.65682827E+01</pdfrwt>
<totfact> 0.13643193E+09</totfact>
</mgrwt>
</event>
<event>
 4    1  0.3964155E+006  0.5971457E+01  0.7546771E-02  0.2419153E+00
         21   -1    0    0  501  502  0.00000000000E+00  0.00000000000E+00  0.20173533587E+01  0.20173533587E+01  0.00000000000E+00 0. -1.
         21   -1    0    0  502  503 -0.00000000000E+00 -0.00000000000E+00 -0.18235625635E+02  0.18235625635E+02  0.00000000000E+00 0. -1.
          5    1    1    2  501    0 -0.36682375782E+01  0.33515898438E+00 -0.63348163355E+01  0.87056416467E+01  0.47000000000E+01 0. -1.
         -5    1    1    2    0  503  0.36682375782E+01 -0.33515898438E+00 -0.98834559407E+01  0.11547337347E+02  0.47000000000E+01 0. -1.
<mgrwt>
<rscale>  2 0.59714570E+01</rscale>
<asrwt>0</asrwt>
<pdfrwt beam="1">  1       21 0.31036205E-03 0.59714570E+01</pdfrwt>
<pdfrwt beam="2">  1       21 0.28054809E-02 0.59714570E+01</pdfrwt>
<totfact> 0.36672990E+09</totfact>
</mgrwt>
</event>
<event>
 4    1  0.3964155E+006  0.5793823E+01  0.7546771E-02  0.2443056E+00
         21   -1    0    0  501  502  0.00000000000E+00  0.00000000000E+00  0.99633522083E+02  0.99633522083E+02  0.00000000000E+00 0.  1.
         21   -1    0    0  502  503 -0.00000000000E+00 -0.00000000000E+00 -0.39843036385E+00  0.39843036385E+00  0.00000000000E+00 0.  1.
          5    1    1    2  501    0 -0.28580195394E+00 -0.33758998533E+01  0.69269772992E+02  0.69511652498E+02  0.47000000000E+01 0.  1.
         -5    1    1    2    0  503  0.28580195394E+00  0.33758998533E+01  0.29965318727E+02  0.30520299950E+02  0.47000000000E+01 0.  1.
<mgrwt>
<rscale>  2 0.57938228E+01</rscale>
<asrwt>0</asrwt>
<pdfrwt beam="1">  1       21 0.15328214E-01 0.57938228E+01</pdfrwt>
<pdfrwt beam="2">  1       21 0.61297058E-04 0.57938228E+01</pdfrwt>
<totfact> 0.24893705E+09</totfact>
</mgrwt>
</event>
<event>
 4    1  0.3964155E+006  0.5277640E+01  0.7546771E-02  0.2520138E+00
         21   -1    0    0  501  502  0.00000000000E+00  0.00000000000E+00  0.92024257767E+01  0.92024257767E+01  0.00000000000E+00 0. -1.
         21   -1    0    0  502  503 -0.00000000000E+00 -0.00000000000E+00 -0.30746154309E+01  0.30746154309E+01  0.00000000000E+00 0. -1.
          5    1    1    2  501    0  0.41904309159E+00  0.23638721433E+01  0.38297775852E+01  0.65207886773E+01  0.47000000000E+01 0. -1.
         -5    1    1    2    0  503 -0.41904309159E+00 -0.23638721433E+01  0.22980327606E+01  0.57562525302E+01  0.47000000000E+01 0. -1.
<mgrwt>
<rscale>  2 0.52776404E+01</rscale>
<asrwt>0</asrwt>
<pdfrwt beam="1">  1       21 0.14157578E-02 0.52776404E+01</pdfrwt>
<pdfrwt beam="2">  1       21 0.47301776E-03 0.52776404E+01</pdfrwt>
<totfact> 0.48573803E+09</totfact>
</mgrwt>
</event>
<event>
 4    1  0.3964155E+006  0.6841973E+01  0.7546771E-02  0.2317226E+00
         21   -1    0    0  501  502  0.00000000000E+00  0.00000000000E+00  0.50067187780E+01  0.50067187780E+01  0.00000000000E+00 0.  1.
         21   -1    0    0  502  503 -0.00000000000E+00 -0.00000000000E+00 -0.30093381963E+02  0.30093381963E+02  0.00000000000E+00 0.  1.
          5    1    1    2  501    0  0.18493744350E+01 -0.46154534602E+01  0.20274590898E+01  0.71360484026E+01  0.47000000000E+01 0.  1.
         -5    1    1    2    0  503 -0.18493744350E+01  0.46154534602E+01 -0.27114122275E+02  0.27964052338E+02  0.47000000000E+01 0.  1.
<mgrwt>
<rscale>  2 0.68419731E+01</rscale>
<asrwt>0</asrwt>
<pdfrwt beam="1">  1       21 0.77026442E-03 0.68419731E+01</pdfrwt>
<pdfrwt beam="2">  1       21 0.46297511E-02 0.68419731E+01</pdfrwt>
<totfact> 0.55167569E+08</totfact>
</mgrwt>
</event>
<event>
 4    1  0.3964155E+006  0.7160507E+01  0.7546771E-02  0.2285110E+00
         21   -1    0    0  503  502  0.00000000000E+00  0.00000000000E+00  0.34297275108E+02  0.34297275108E+02  0.00000000000E+00 0. -1.
         21   -1    0    0  501  503 -0.00000000000E+00 -0.00000000000E+00 -0.15121394694E+01  0.15121394694E+01  0.00000000000E+00 0.  1.
          5    1    1    2  501    0  0.50002296711E+00  0.53789254464E+01  0.18301309227E+02  0.19652246216E+02  0.47000000000E+01 0. -1.
         -5    1    1    2    0  502 -0.50002296711E+00 -0.53789254464E+01  0.14483826412E+02  0.16157168361E+02  0.47000000000E+01 0. -1.
<mgrwt>
<rscale>  2 0.71605071E+01</rscale>
<asrwt>0</asrwt>
<pdfrwt beam="1">  1       21 0.52765033E-02 0.71605071E+01</pdfrwt>
<pdfrwt beam="2">  1       21 0.23263687E-03 0.71605071E+01</pdfrwt>
<totfact> 0.24951658E+09</totfact>
</mgrwt>
</event>
<event>
 4    1  0.3964155E+006  0.6108525E+01  0.7546771E-02  0.2401509E+00
         21   -1    0    0  503  502  0.00000000000E+00  0.00000000000E+00  0.10065227229E+01  0.10065227229E+01  0.00000000000E+00 0.  1.
         21   -1    0    0  501  503 -0.00000000000E+00 -0.00000000000E+00 -0.43715508383E+02  0.43715508383E+02  0.00000000000E+00 0. -1.
          5    1    1    2  501    0  0.10367086415E+01  0.37615567999E+01 -0.30071430247E+02  0.30685582795E+02  0.47000000000E+01 0.  1.
         -5    1    1    2    0  502 -0.10367086415E+01 -0.37615567999E+01 -0.12637555413E+02  0.14036448311E+02  0.47000000000E+01 0.  1.
<mgrwt>
<rscale>  2 0.61085247E+01</rscale>
<asrwt>0</asrwt>
<pdfrwt beam="1">  1       21 0.15484961E-03 0.61085247E+01</pdfrwt>
<pdfrwt beam="2">  1       21 0.67254645E-02 0.61085247E+01</pdfrwt>
<totfact> 0.26590017E+09</totfact>
</mgrwt>
</event>
<event>
 4    1  0.3964155E+006  0.1185042E+02  0.7546771E-02  0.1982817E+00
         21   -1    0    0  503  502  0.00000000000E+00  0.00000000000E+00  0.34560354057E+02  0.34560354057E+02  0.00000000000E+00 0. -1.
         21   -1    0    0  501  503 -0.00000000000E+00 -0.00000000000E+00 -0.15007648380E+02  0.15007648380E+02  0.00000000000E+00 0.  1.
          5    1    1    2  501    0 -0.67920220369E+01 -0.84976984341E+01 -0.11388152719E+02  0.16435402775E+02  0.47000000000E+01 0.  1.
         -5    1    1    2    0  502  0.67920220369E+01  0.84976984341E+01  0.30940858397E+02  0.33132599662E+02  0.47000000000E+01 0. -1.
<mgrwt>
<rscale>  2 0.11850419E+02</rscale>
<asrwt>0</asrwt>
<pdfrwt beam="1">  1       21 0.53169775E-02 0.11850419E+02</pdfrwt>
<pdfrwt beam="2">  1       21 0.23088690E-02 0.11850419E+02</pdfrwt>
<totfact> 0.12284967E+08</totfact>
</mgrwt>
</event>
<event>
 4    1  0.3964155E+006  0.5502008E+01  0.7546771E-02  0.2485126E+00
         21   -1    0    0  503  502  0.00000000000E+00  0.00000000000E+00  0.29579691926E+03  0.29579691926E+03  0.00000000000E+00 0. -1.
         21   -1    0    0  501  503 -0.00000000000E+00 -0.00000000000E+00 -0.42893985060E+00  0.42893985060E+00  0.00000000000E+00 0.  1.
          5    1    1    2  501    0 -0.20090991267E+01 -0.20360790813E+01  0.18442420040E+02  0.19245647670E+02  0.47000000000E+01 0.  1.
         -5    1    1    2    0  502  0.20090991267E+01  0.20360790813E+01  0.27692555937E+03  0.27698021145E+03  0.47000000000E+01 0.  1.
<mgrwt>
<rscale>  2 0.55020085E+01</rscale>
<asrwt>0</asrwt>
<pdfrwt beam="1">  1       21 0.45507055E-01 0.55020085E+01</pdfrwt>
<pdfrwt beam="2">  1       21 0.65990983E-04 0.55020085E+01</pdfrwt>
<totfact> 0.35645014E+08</totfact>
</mgrwt>
</event>
<event>
 4    1  0.3964155E+006  0.5625188E+01  0.7546771E-02  0.2466918E+00
         21   -1    0    0  501  502  0.00000000000E+00  0.00000000000E+00  0.46737382147E+01  0.46737382147E+01  0.00000000000E+00 0. -1.
         21   -1    0    0  502  503 -0.00000000000E+00 -0.00000000000E+00 -0.75965596910E+01  0.75965596910E+01  0.00000000000E+00 0. -1.
          5    1    1    2  501    0 -0.28926972207E+00  0.30771846556E+01  0.56192272376E+00  0.56531849009E+01  0.47000000000E+01 0. -1.
         -5    1    1    2    0  503  0.28926972207E+00 -0.30771846556E+01 -0.34847442001E+01  0.66171130047E+01  0.47000000000E+01 0. -1.
<mgrwt>
<rscale>  2 0.56251882E+01</rscale>
<asrwt>0</asrwt>
<pdfrwt beam="1">  1       21 0.71903665E-03 0.56251882E+01</pdfrwt>
<pdfrwt beam="2">  1       21 0.11687015E-02 0.56251882E+01</pdfrwt>
<totfact> 0.37932874E+09</totfact>
</mgrwt>
</event>
<event>
 4    1  0.3964155E+006  0.6282398E+01  0.7546771E-02  0.2380057E+00
         21   -1    0    0  501  502  0.00000000000E+00  0.00000000000E+00  0.23553159290E+01  0.23553159290E+01  0.00000000000E+00 0.  1.
         21   -1    0    0  502  503 -0.00000000000E+00 -0.00000000000E+00 -0.44801497670E+02  0.44801497670E+02  0.00000000000E+00 0. -1.
          5    1    1    2  501    0 -0.11007640849E+01 -0.40208018895E+01 -0.25683002941E+01  0.67870977454E+01  0.47000000000E+01 0.  1.
         -5    1    1    2    0  503  0.11007640849E+01  0.40208018895E+01 -0.39877881447E+02  0.40369715853E+02  0.47000000000E+01 0. -1.
<mgrwt>
<rscale>  2 0.62823984E+01</rscale>
<asrwt>0</asrwt>
<pdfrwt beam="1">  1       21 0.36235631E-03 0.62823984E+01</pdfrwt>
<pdfrwt beam="2">  1       21 0.68925379E-02 0.62823984E+01</pdfrwt>
<totfact> 0.81874656E+08</totfact>
</mgrwt>
</event>
<event>
 4    1  0.3964155E+006  0.5472556E+01  0.7546771E-02  0.2489583E+00
         21   -1    0    0  501  502  0.00000000000E+00  0.00000000000E+00  0.89941797275E+00  0.89941797275E+00  0.00000000000E+00 0.  1.
         21   -1    0    0  502  503 -0.00000000000E+00 -0.00000000000E+00 -0.49373687480E+02  0.49373687480E+02  0.00000000000E+00 0.  1.
          5    1    1    2  501    0 -0.26088419895E+01  0.10260686565E+01 -0.98940717672E+01  0.11306702859E+02  0.47000000000E+01 0.  1.
         -5    1    1    2    0  503  0.26088419895E+01 -0.10260686565E+01 -0.38580197741E+02  0.38966402594E+02  0.47000000000E+01 0.  1.
<mgrwt>
<rscale>  2 0.54725564E+01</rscale>
<asrwt>0</asrwt>
<pdfrwt beam="1">  1       21 0.13837197E-03 0.54725564E+01</pdfrwt>
<pdfrwt beam="2">  1       21 0.75959533E-02 0.54725564E+01</pdfrwt>
<totfact> 0.23414610E+09</totfact>
</mgrwt>
</event>
<event>
 4    1  0.3964155E+006  0.6397675E+01  0.7546771E-02  0.2366371E+00
         21   -1    0    0  501  502  0.00000000000E+00  0.00000000000E+00  0.14752443240E+03  0.14752443240E+03  0.00000000000E+00 0. -1.
         21   -1    0    0  502  503 -0.00000000000E+00 -0.00000000000E+00 -0.63707291432E+00  0.63707291432E+00  0.00000000000E+00 0.  1.
          5    1    1    2  501    0 -0.29298548751E+01  0.32025302751E+01  0.12910277561E+03  0.12926119649E+03  0.47000000000E+01 0. -1.
         -5    1    1    2    0  503  0.29298548751E+01 -0.32025302751E+01  0.17784583881E+02  0.18900308822E+02  0.47000000000E+01 0.  1.
<mgrwt>
<rscale>  2 0.63976753E+01</rscale>
<asrwt>0</asrwt>
<pdfrwt beam="1">  1       21 0.22696039E-01 0.63976753E+01</pdfrwt>
<pdfrwt beam="2">  1       21 0.98011335E-04 0.63976753E+01</pdfrwt>
<totfact> 0.76287311E+08</totfact>
</mgrwt>
</event>
<event>
 4    1  0.3964155E+006  0.5119045E+01  0.7546771E-02  0.2546459E+00
         21   -1    0    0  501  502  0.00000000000E+00  0.00000000000E+00  0.42480512037E+01  0.42480512037E+01  0.00000000000E+00 0.  1.
         21   -1    0    0  502  503 -0.00000000000E+00 -0.00000000000E+00 -0.10197233251E+02  0.10197233251E+02  0.00000000000E+00 0. -1.
          5    1    1    2  501    0  0.11208973530E+00  0.20253528068E+01  0.15651665045E+01  0.53529771425E+01  0.47000000000E+01 0.  1.
         -5    1    1    2    0  503 -0.11208973530E+00 -0.20253528068E+01 -0.75143485517E+01  0.90923073121E+01  0.47000000000E+01 0. -1.
<mgrwt>
<rscale>  2 0.51190446E+01</rscale>
<asrwt>0</asrwt>
<pdfrwt beam="1">  1       21 0.65354635E-03 0.51190446E+01</pdfrwt>
<pdfrwt beam="2">  1       21 0.15688051E-02 0.51190446E+01</pdfrwt>
<totfact> 0.26075915E+09</totfact>
</mgrwt>
</event>
<event>
 4    1  0.3964155E+006  0.6841212E+01  0.7546771E-02  0.2317306E+00
         21   -1    0    0  503  502  0.00000000000E+00  0.00000000000E+00  0.15696472663E+03  0.15696472663E+03  0.00000000000E+00 0.  1.
         21   -1    0    0  501  503 -0.00000000000E+00 -0.00000000000E+00 -0.30404663314E+01  0.30404663314E+01  0.00000000000E+00 0. -1.
          5    1    1    2  501    0  0.17712595106E+01 -0.46448707477E+01  0.98355090932E+00  0.69115524239E+01  0.47000000000E+01 0. -1.
         -5    1    1    2    0  502 -0.17712595106E+01  0.46448707477E+01  0.15294070939E+03  0.15309364054E+03  0.47000000000E+01 0.  1.
<mgrwt>
<rscale>  2 0.68412122E+01</rscale>
<asrwt>0</asrwt>
<pdfrwt beam="1">  1       21 0.24148413E-01 0.68412122E+01</pdfrwt>
<pdfrwt beam="2">  1       21 0.46776417E-03 0.68412122E+01</pdfrwt>
<totfact> 0.84272739E+07</totfact>
</mgrwt>
</event>
<event>
 4    1  0.3964155E+006  0.6584777E+01  0.7546771E-02  0.2345008E+00
         21   -1    0    0  503  502  0.00000000000E+00  0.00000000000E+00  0.39310779741E+03  0.39310779741E+03  0.00000000000E+00 0. -1.
         21   -1    0    0  501  503 -0.00000000000E+00 -0.00000000000E+00 -0.35836699932E+00  0.35836699932E+00  0.00000000000E+00 0.  1.
          5    1    1    2  501    0  0.40576511396E+01 -0.21919759458E+01  0.32693440642E+02  0.33349967801E+02  0.47000000000E+01 0.  1.
         -5    1    1    2    0  502 -0.40576511396E+01  0.21919759458E+01  0.36005598977E+03  0.36011619661E+03  0.47000000000E+01 0. -1.
<mgrwt>
<rscale>  2 0.65847772E+01</rscale>
<asrwt>0</asrwt>
<pdfrwt beam="1">  1       21 0.60477778E-01 0.65847772E+01</pdfrwt>
<pdfrwt beam="2">  1       21 0.55133699E-04 0.65847772E+01</pdfrwt>
<totfact> 0.30542315E+08</totfact>
</mgrwt>
</event>
<event>
 4    1  0.3964155E+006  0.5800608E+01  0.7546771E-02  0.2442120E+00
         21   -1    0    0  503  502  0.00000000000E+00  0.00000000000E+00  0.85727664749E+01  0.85727664749E+01  0.00000000000E+00 0. -1.
         21   -1    0    0  501  503 -0.00000000000E+00 -0.00000000000E+00 -0.12760224399E+02  0.12760224399E+02  0.00000000000E+00 0.  1.
          5    1    1    2  501    0 -0.53895056222E+00  0.33565733880E+01 -0.10969465757E+02  0.12408715953E+02  0.47000000000E+01 0.  1.
         -5    1    1    2    0  502  0.53895056222E+00 -0.33565733880E+01  0.67820078327E+01  0.89242749207E+01  0.47000000000E+01 0. -1.
<mgrwt>
<rscale>  2 0.58006080E+01</rscale>
<asrwt>0</asrwt>
<pdfrwt beam="1">  1       21 0.13188871E-02 0.58006080E+01</pdfrwt>
<pdfrwt beam="2">  1       21 0.19631114E-02 0.58006080E+01</pdfrwt>
<totfact> 0.79468602E+08</totfact>
</mgrwt>
</event>
<event>
 4    1  0.3964155E+006  0.4946785E+01  0.7546771E-02  0.2576681E+00
         21   -1    0    0  503  502  0.00000000000E+00  0.00000000000E+00  0.22859558097E+02  0.22859558097E+02  0.00000000000E+00 0.  1.
         21   -1    0    0  501  503 -0.00000000000E+00 -0.00000000000E+00 -0.24940812270E+01  0.24940812270E+01  0.00000000000E+00 0.  1.
          5    1    1    2  501    0  0.59697950585E-01  0.15417909364E+01  0.60530145118E+00  0.49836806663E+01  0.47000000000E+01 0.  1.
         -5    1    1    2    0  502 -0.59697950585E-01 -0.15417909364E+01  0.19760175419E+02  0.20369958658E+02  0.47000000000E+01 0.  1.
<mgrwt>
<rscale>  2 0.49467851E+01</rscale>
<asrwt>0</asrwt>
<pdfrwt beam="1">  1       21 0.35168549E-02 0.49467851E+01</pdfrwt>
<pdfrwt beam="2">  1       21 0.38370482E-03 0.49467851E+01</pdfrwt>
<totfact> 0.16573106E+09</totfact>
</mgrwt>
</event>
<event>
 4    1  0.3964155E+006  0.6903879E+01  0.7546771E-02  0.2310795E+00
         21   -1    0    0  503  502  0.00000000000E+00  0.00000000000E+00  0.27450957252E+02  0.27450957252E+02  0.00000000000E+00 0.  1.
         21   -1    0    0  501  503 -0.00000000000E+00 -0.00000000000E+00 -0.55189082453E+01  0.55189082453E+01  0.00000000000E+00 0.  1.
          5    1    1    2  501    0 -0.40776020079E+01 -0.29911036918E+01 -0.26815461162E+01  0.74063640880E+01  0.47000000000E+01 0.  1.
         -5    1    1    2    0  502  0.40776020079E+01  0.29911036918E+01  0.24613595123E+02  0.25563501409E+02  0.47000000000E+01 0.  1.
<mgrwt>
<rscale>  2 0.69038786E+01</rscale>
<asrwt>0</asrwt>
<pdfrwt beam="1">  1       21 0.42232241E-02 0.69038786E+01</pdfrwt>
<pdfrwt beam="2">  1       21 0.84906282E-03 0.69038786E+01</pdfrwt>
<totfact> 0.55456311E+08</totfact>
</mgrwt>
</event>
<event>
 4    1  0.3964155E+006  0.5133749E+01  0.7546771E-02  0.2543960E+00
         21   -1    0    0  503  502  0.00000000000E+00  0.00000000000E+00  0.11735289305E+02  0.11735289305E+02  0.00000000000E+00 0. -1.
         21   -1    0    0  501  503 -0.00000000000E+00 -0.00000000000E+00 -0.27862024162E+01  0.27862024162E+01  0.00000000000E+00 0.  1.
          5    1    1    2  501    0 -0.11529002656E+01 -0.17135345293E+01  0.12769414495E+01  0.52901757127E+01  0.47000000000E+01 0.  1.
         -5    1    1    2    0  502  0.11529002656E+01  0.17135345293E+01  0.76721454389E+01  0.92313160081E+01  0.47000000000E+01 0. -1.
<mgrwt>
<rscale>  2 0.51337491E+01</rscale>
<asrwt>0</asrwt>
<pdfrwt beam="1">  1       21 0.18054291E-02 0.51337491E+01</pdfrwt>
<pdfrwt beam="2">  1       21 0.42864653E-03 0.51337491E+01</pdfrwt>
<totfact> 0.38328218E+09</totfact>
</mgrwt>
</event>
<event>
 4    1  0.3964155E+006  0.5750375E+01  0.7546771E-02  0.2449091E+00
         21   -1    0    0  501  502  0.00000000000E+00  0.00000000000E+00  0.87766507560E+02  0.87766507560E+02  0.00000000000E+00 0. -1.
         21   -1    0    0  502  503 -0.00000000000E+00 -0.00000000000E+00 -0.37860555953E+00  0.37860555953E+00  0.00000000000E+00 0. -1.
          5    1    1    2  501    0 -0.21403538159E+01 -0.25289722314E+01  0.40615974694E+02  0.41021021627E+02  0.47000000000E+01 0.  1.
         -5    1    1    2    0  503  0.21403538159E+01  0.25289722314E+01  0.46771927306E+02  0.47124091492E+02  0.47000000000E+01 0.  1.
<mgrwt>
<rscale>  2 0.57503752E+01</rscale>
<asrwt>0</asrwt>
<pdfrwt beam="1">  1       21 0.13502523E-01 0.57503752E+01</pdfrwt>
<pdfrwt beam="2">  1       21 0.58247079E-04 0.57503752E+01</pdfrwt>
<totfact> 0.32301102E+09</totfact>
</mgrwt>
</event>
<event>
 4    1  0.3964155E+006  0.5474837E+01  0.7546771E-02  0.2489236E+00
         21   -1    0    0  501  502  0.00000000000E+00  0.00000000000E+00  0.12040176562E+02  0.12040176562E+02  0.00000000000E+00 0.  1.
         21   -1    0    0  502  503 -0.00000000000E+00 -0.00000000000E+00 -0.44627437959E+02  0.44627437959E+02  0.00000000000E+00 0.  1.
          5    1    1    2  501    0  0.18872745387E+01 -0.20789496741E+01  0.11238554086E+02  0.12501157342E+02  0.47000000000E+01 0.  1.
         -5    1    1    2    0  503 -0.18872745387E+01  0.20789496741E+01 -0.43825815483E+02  0.44166457178E+02  0.47000000000E+01 0.  1.
<mgrwt>
<rscale>  2 0.54748367E+01</rscale>
<asrwt>0</asrwt>
<pdfrwt beam="1">  1       21 0.18523349E-02 0.54748367E+01</pdfrwt>
<pdfrwt beam="2">  1       21 0.68657596E-02 0.54748367E+01</pdfrwt>
<totfact> 0.75556422E+07</totfact>
</mgrwt>
</event>
<event>
 4    1  0.3964155E+006  0.6251712E+01  0.7546771E-02  0.2383771E+00
         21   -1    0    0  501  502  0.00000000000E+00  0.00000000000E+00  0.86603432574E+00  0.86603432574E+00  0.00000000000E+00 0.  1.
         21   -1    0    0  502  503 -0.00000000000E+00 -0.00000000000E+00 -0.57132449403E+02  0.57132449403E+02  0.00000000000E+00 0.  1.
          5    1    1    2  501    0 -0.28952909660E+01 -0.29344841129E+01 -0.14841376597E+02  0.16104358605E+02  0.47000000000E+01 0.  1.
         -5    1    1    2    0  503  0.28952909660E+01  0.29344841129E+01 -0.41425038480E+02  0.41894125124E+02  0.47000000000E+01 0.  1.
<mgrwt>
<rscale>  2 0.62517123E+01</rscale>
<asrwt>0</asrwt>
<pdfrwt beam="1">  1       21 0.13323612E-03 0.62517123E+01</pdfrwt>
<pdfrwt beam="2">  1       21 0.87896030E-02 0.62517123E+01</pdfrwt>
<totfact> 0.22147851E+09</totfact>
</mgrwt>
</event>
<event>
 4    1  0.3964155E+006  0.6097350E+01  0.7546771E-02  0.2402923E+00
         21   -1    0    0  501  502  0.00000000000E+00  0.00000000000E+00  0.36468941282E+02  0.36468941282E+02  0.00000000000E+00 0. -1.
         21   -1    0    0  502  503 -0.00000000000E+00 -0.00000000000E+00 -0.10724417335E+01  0.10724417335E+01  0.00000000000E+00 0.  1.
          5    1    1    2  501    0  0.75327183033E+00 -0.38105455426E+01  0.21871393698E+02  0.22705407684E+02  0.47000000000E+01 0. -1.
         -5    1    1    2    0  503 -0.75327183033E+00  0.38105455426E+01  0.13525105850E+02  0.14835975332E+02  0.47000000000E+01 0.  1.
<mgrwt>
<rscale>  2 0.60973499E+01</rscale>
<asrwt>0</asrwt>
<pdfrwt beam="1">  1       21 0.56106054E-02 0.60973499E+01</pdfrwt>
<pdfrwt beam="2">  1       21 0.16499106E-03 0.60973499E+01</pdfrwt>
<totfact> 0.31957476E+09</totfact>
</mgrwt>
</event>
<event>
 4    1  0.3964155E+006  0.8514906E+01  0.7546771E-02  0.2170878E+00
         21   -1    0    0  501  502  0.00000000000E+00  0.00000000000E+00  0.27157963978E+01  0.27157963978E+01  0.00000000000E+00 0.  1.
         21   -1    0    0  502  503 -0.00000000000E+00 -0.00000000000E+00 -0.54194204281E+02  0.54194204281E+02  0.00000000000E+00 0. -1.
          5    1    1    2  501    0  0.22773581548E+01  0.67251215812E+01 -0.54704788885E+01  0.10120758851E+02  0.47000000000E+01 0.  1.
         -5    1    1    2    0  503 -0.22773581548E+01 -0.67251215812E+01 -0.46007928994E+02  0.46789241828E+02  0.47000000000E+01 0. -1.
<mgrwt>
<rscale>  2 0.85149058E+01</rscale>
<asrwt>0</asrwt>
<pdfrwt beam="1">  1       21 0.41781485E-03 0.85149058E+01</pdfrwt>
<pdfrwt beam="2">  1       21 0.83375694E-02 0.85149058E+01</pdfrwt>
<totfact> 0.61658852E+08</totfact>
</mgrwt>
</event>
<event>
 4    1  0.3964155E+006  0.5458298E+01  0.7546771E-02  0.2491755E+00
         21   -1    0    0  503  502  0.00000000000E+00  0.00000000000E+00  0.34764052640E+00  0.34764052640E+00  0.00000000000E+00 0. -1.
         21   -1    0    0  501  503 -0.00000000000E+00 -0.00000000000E+00 -0.16709738316E+03  0.16709738316E+03  0.00000000000E+00 0. -1.
          5    1    1    2  501    0 -0.36614954527E+00 -0.27511729190E+01 -0.14180823967E+03  0.14191324764E+03  0.47000000000E+01 0. -1.
         -5    1    1    2    0  502  0.36614954527E+00  0.27511729190E+01 -0.24941502970E+02  0.25531776051E+02  0.47000000000E+01 0. -1.
<mgrwt>
<rscale>  2 0.54582981E+01</rscale>
<asrwt>0</asrwt>
<pdfrwt beam="1">  1       21 0.53483148E-04 0.54582981E+01</pdfrwt>
<pdfrwt beam="2">  1       21 0.25707294E-01 0.54582981E+01</pdfrwt>
<totfact> 0.12371217E+09</totfact>
</mgrwt>
</event>
<event>
 4    1  0.3964155E+006  0.6620251E+01  0.7546771E-02  0.2341070E+00
         21   -1    0    0  503  502  0.00000000000E+00  0.00000000000E+00  0.23158044611E+00  0.23158044611E+00  0.00000000000E+00 0. -1.
         21   -1    0    0  501  503 -0.00000000000E+00 -0.00000000000E+00 -0.40152631019E+03  0.40152631019E+03  0.00000000000E+00 0.  1.
          5    1    1    2  501    0  0.45865323763E+00 -0.46397580344E+01 -0.34670465616E+03  0.34676785653E+03  0.47000000000E+01 0.  1.
         -5    1    1    2    0  502 -0.45865323763E+00  0.46397580344E+01 -0.54590073583E+02  0.54990034108E+02  0.47000000000E+01 0. -1.
<mgrwt>
<rscale>  2 0.66202506E+01</rscale>
<asrwt>0</asrwt>
<pdfrwt beam="1">  1       21 0.35627628E-04 0.66202506E+01</pdfrwt>
<pdfrwt beam="2">  1       21 0.61773509E-01 0.66202506E+01</pdfrwt>
<totfact> 0.52930628E+08</totfact>
</mgrwt>
</event>
<event>
 4    1  0.3964155E+006  0.6493834E+01  0.7546771E-02  0.2355264E+00
         21   -1    0    0  501  502  0.00000000000E+00  0.00000000000E+00  0.24301528094E+00  0.24301528094E+00  0.00000000000E+00 0. -1.
         21   -1    0    0  502  503 -0.00000000000E+00 -0.00000000000E+00 -0.18149620264E+03  0.18149620264E+03  0.00000000000E+00 0.  1.
          5    1    1    2  501    0  0.20657450743E+01 -0.39765033481E+01 -0.10966687584E+03  0.10985897113E+03  0.47000000000E+01 0.  1.
         -5    1    1    2    0  503 -0.20657450743E+01  0.39765033481E+01 -0.71586311520E+02  0.71880246791E+02  0.47000000000E+01 0.  1.
<mgrwt>
<rscale>  2 0.64938341E+01</rscale>
<asrwt>0</asrwt>
<pdfrwt beam="1">  1       21 0.37386884E-04 0.64938341E+01</pdfrwt>
<pdfrwt beam="2">  1       21 0.27922554E-01 0.64938341E+01</pdfrwt>
<totfact> 0.19954714E+09</totfact>
</mgrwt>
</event>
<event>
 4    1  0.3964155E+006  0.5357038E+01  0.7546771E-02  0.2507463E+00
         21   -1    0    0  501  502  0.00000000000E+00  0.00000000000E+00  0.33096475446E+01  0.33096475446E+01  0.00000000000E+00 0. -1.
         21   -1    0    0  502  503 -0.00000000000E+00 -0.00000000000E+00 -0.86922802286E+01  0.86922802286E+01  0.00000000000E+00 0. -1.
          5    1    1    2  501    0 -0.15460147722E+01 -0.20537021025E+01 -0.23941839800E+01  0.58677057639E+01  0.47000000000E+01 0. -1.
         -5    1    1    2    0  503  0.15460147722E+01  0.20537021025E+01 -0.29884487041E+01  0.61342220092E+01  0.47000000000E+01 0. -1.
<mgrwt>
<rscale>  2 0.53570378E+01</rscale>
<asrwt>0</asrwt>
<pdfrwt beam="1">  1       21 0.50917655E-03 0.53570378E+01</pdfrwt>
<pdfrwt beam="2">  1       21 0.13372739E-02 0.53570378E+01</pdfrwt>
<totfact> 0.48294538E+09</totfact>
</mgrwt>
</event>
<event>
 4    1  0.3964155E+006  0.5827798E+01  0.7546771E-02  0.2438389E+00
         21   -1    0    0  501  502  0.00000000000E+00  0.00000000000E+00  0.30889228729E+02  0.30889228729E+02  0.00000000000E+00 0.  1.
         21   -1    0    0  502  503 -0.00000000000E+00 -0.00000000000E+00 -0.19901710245E+01  0.19901710245E+01  0.00000000000E+00 0.  1.
          5    1    1    2  501    0 -0.31328242455E+01 -0.14347967858E+01  0.25447263140E+02  0.26106061191E+02  0.47000000000E+01 0.  1.
         -5    1    1    2    0  503  0.31328242455E+01  0.14347967858E+01  0.34517945639E+01  0.67733385624E+01  0.47000000000E+01 0.  1.
<mgrwt>
<rscale>  2 0.58277980E+01</rscale>
<asrwt>0</asrwt>
<pdfrwt beam="1">  1       21 0.47521887E-02 0.58277980E+01</pdfrwt>
<pdfrwt beam="2">  1       21 0.30618018E-03 0.58277980E+01</pdfrwt>
<totfact> 0.16919546E+09</totfact>
</mgrwt>
</event>
<event>
 4    1  0.3964155E+006  0.6178014E+01  0.7546771E-02  0.2392815E+00
         21   -1    0    0  503  502  0.00000000000E+00  0.00000000000E+00  0.15717329111E+00  0.15717329111E+00  0.00000000000E+00 0. -1.
         21   -1    0    0  501  503 -0.00000000000E+00 -0.00000000000E+00 -0.27919123585E+03  0.27919123585E+03  0.00000000000E+00 0. -1.
          5    1    1    2  501    0 -0.35389080222E+01  0.18852004795E+01 -0.89117194296E+02  0.89331081769E+02  0.47000000000E+01 0.  1.
         -5    1    1    2    0  502  0.35389080222E+01 -0.18852004795E+01 -0.18991686826E+03  0.19001732737E+03  0.47000000000E+01 0.  1.
<mgrwt>
<rscale>  2 0.61780135E+01</rscale>
<asrwt>0</asrwt>
<pdfrwt beam="1">  1       21 0.24180413E-04 0.61780135E+01</pdfrwt>
<pdfrwt beam="2">  1       21 0.42952664E-01 0.61780135E+01</pdfrwt>
<totfact> 0.16414129E+09</totfact>
</mgrwt>
</event>
<event>
 4    1  0.3964155E+006  0.5235384E+01  0.7546771E-02  0.2527018E+00
         21   -1    0    0  501  502  0.00000000000E+00  0.00000000000E+00  0.80840589172E+02  0.80840589172E+02  0.00000000000E+00 0.  1.
         21   -1    0    0  502  503 -0.00000000000E+00 -0.00000000000E+00 -0.35429678078E+00  0.35429678078E+00  0.00000000000E+00 0.  1.
          5    1    1    2  501    0 -0.98353904131E+00 -0.20861197807E+01  0.48664100984E+02  0.48944907492E+02  0.47000000000E+01 0.  1.
         -5    1    1    2    0  503  0.98353904131E+00  0.20861197807E+01  0.31822191407E+02  0.32249978461E+02  0.47000000000E+01 0.  1.
<mgrwt>
<rscale>  2 0.52353839E+01</rscale>
<asrwt>0</asrwt>
<pdfrwt beam="1">  1       21 0.12436999E-01 0.52353839E+01</pdfrwt>
<pdfrwt beam="2">  1       21 0.54507262E-04 0.52353839E+01</pdfrwt>
<totfact> 0.36775041E+09</totfact>
</mgrwt>
</event>
<event>
 4    1  0.3964155E+006  0.6995939E+01  0.7546771E-02  0.2301403E+00
         21   -1    0    0  501  502  0.00000000000E+00  0.00000000000E+00  0.21272803599E+01  0.21272803599E+01  0.00000000000E+00 0. -1.
         21   -1    0    0  502  503 -0.00000000000E+00 -0.00000000000E+00 -0.37119140023E+02  0.37119140023E+02  0.00000000000E+00 0.  1.
          5    1    1    2  501    0  0.11883923487E+01  0.50438961370E+01 -0.53965928924E+01  0.88355180641E+01  0.47000000000E+01 0. -1.
         -5    1    1    2    0  503 -0.11883923487E+01 -0.50438961370E+01 -0.29595266770E+02  0.30410902318E+02  0.47000000000E+01 0.  1.
<mgrwt>
<rscale>  2 0.69959392E+01</rscale>
<asrwt>0</asrwt>
<pdfrwt beam="1">  1       21 0.32727393E-03 0.69959392E+01</pdfrwt>
<pdfrwt beam="2">  1       21 0.57106365E-02 0.69959392E+01</pdfrwt>
<totfact> 0.13573945E+09</totfact>
</mgrwt>
</event>
<event>
 4    1  0.3964155E+006  0.8190817E+01  0.7546771E-02  0.2195421E+00
         21   -1    0    0  501  502  0.00000000000E+00  0.00000000000E+00  0.18772778645E+02  0.18772778645E+02  0.00000000000E+00 0.  1.
         21   -1    0    0  502  503 -0.00000000000E+00 -0.00000000000E+00 -0.38946179358E+01  0.38946179358E+01  0.00000000000E+00 0.  1.
          5    1    1    2  501    0  0.32471684413E+01  0.58698700301E+01  0.10692147498E+02  0.13468908463E+02  0.47000000000E+01 0.  1.
         -5    1    1    2    0  503 -0.32471684413E+01 -0.58698700301E+01  0.41860132114E+01  0.91984881183E+01  0.47000000000E+01 0.  1.
<mgrwt>
<rscale>  2 0.81908166E+01</rscale>
<asrwt>0</asrwt>
<pdfrwt beam="1">  1       21 0.28881198E-02 0.81908166E+01</pdfrwt>
<pdfrwt beam="2">  1       21 0.59917200E-03 0.81908166E+01</pdfrwt>
<totfact> 0.18003498E+09</totfact>
</mgrwt>
</event>
<event>
 4    1  0.3964155E+006  0.6619417E+01  0.7546771E-02  0.2341162E+00
         21   -1    0    0  503  502  0.00000000000E+00  0.00000000000E+00  0.29359405900E+03  0.29359405900E+03  0.00000000000E+00 0. -1.
         21   -1    0    0  501  503 -0.00000000000E+00 -0.00000000000E+00 -0.49457201596E+00  0.49457201596E+00  0.00000000000E+00 0. -1.
          5    1    1    2  501    0 -0.22960608501E+01 -0.40564507096E+01  0.23678466805E+02  0.24586306717E+02  0.47000000000E+01 0. -1.
         -5    1    1    2    0  502  0.22960608501E+01  0.40564507096E+01  0.26942102018E+03  0.26950232430E+03  0.47000000000E+01 0. -1.
<mgrwt>
<rscale>  2 0.66194175E+01</rscale>
<asrwt>0</asrwt>
<pdfrwt beam="1">  1       21 0.45168177E-01 0.66194175E+01</pdfrwt>
<pdfrwt beam="2">  1       21 0.76088237E-04 0.66194175E+01</pdfrwt>
<totfact> 0.33862046E+08</totfact>
</mgrwt>
</event>
<event>
 4    1  0.3964155E+006  0.5048237E+01  0.7546771E-02  0.2558667E+00
         21   -1    0    0  501  502  0.00000000000E+00  0.00000000000E+00  0.76097089800E+00  0.76097089800E+00  0.00000000000E+00 0.  1.
         21   -1    0    0  502  503 -0.00000000000E+00 -0.00000000000E+00 -0.17393064920E+03  0.17393064920E+03  0.00000000000E+00 0.  1.
          5    1    1    2  501    0  0.22946792352E+00 -0.18281263378E+01 -0.80972721617E+01  0.95420395040E+01  0.47000000000E+01 0.  1.
         -5    1    1    2    0  503 -0.22946792352E+00  0.18281263378E+01 -0.16507240615E+03  0.16514958060E+03  0.47000000000E+01 0.  1.
<mgrwt>
<rscale>  2 0.50482375E+01</rscale>
<asrwt>0</asrwt>
<pdfrwt beam="1">  1       21 0.11707245E-03 0.50482375E+01</pdfrwt>
<pdfrwt beam="2">  1       21 0.26758561E-01 0.50482375E+01</pdfrwt>
<totfact> 0.38265768E+08</totfact>
</mgrwt>
</event>
<event>
 4    1  0.3964155E+006  0.5085800E+01  0.7546771E-02  0.2552154E+00
         21   -1    0    0  501  502  0.00000000000E+00  0.00000000000E+00  0.13821695531E+02  0.13821695531E+02  0.00000000000E+00 0. -1.
         21   -1    0    0  502  503 -0.00000000000E+00 -0.00000000000E+00 -0.19277062955E+01  0.19277062955E+01  0.00000000000E+00 0. -1.
          5    1    1    2  501    0 -0.18869692603E+01 -0.46336380626E+00  0.72933163882E+01  0.88914466171E+01  0.47000000000E+01 0.  1.
         -5    1    1    2    0  503  0.18869692603E+01  0.46336380626E+00  0.46006728471E+01  0.68579552093E+01  0.47000000000E+01 0.  1.
<mgrwt>
<rscale>  2 0.50857997E+01</rscale>
<asrwt>0</asrwt>
<pdfrwt beam="1">  1       21 0.21264146E-02 0.50857997E+01</pdfrwt>
<pdfrwt beam="2">  1       21 0.29657021E-03 0.50857997E+01</pdfrwt>
<totfact> 0.49748261E+09</totfact>
</mgrwt>
</event>
<event>
 4    1  0.3964155E+006  0.6850974E+01  0.7546771E-02  0.2316285E+00
         21   -1    0    0  503  502  0.00000000000E+00  0.00000000000E+00  0.31955717779E+01  0.31955717779E+01  0.00000000000E+00 0. -1.
         21   -1    0    0  501  503 -0.00000000000E+00 -0.00000000000E+00 -0.14785074892E+02  0.14785074892E+02  0.00000000000E+00 0. -1.
          5    1    1    2  501    0  0.31962960524E+01  0.38248574231E+01 -0.65240701534E+01  0.94604087717E+01  0.47000000000E+01 0. -1.
         -5    1    1    2    0  502 -0.31962960524E+01 -0.38248574231E+01 -0.50654329609E+01  0.85202378983E+01  0.47000000000E+01 0. -1.
<mgrwt>
<rscale>  2 0.68509739E+01</rscale>
<asrwt>0</asrwt>
<pdfrwt beam="1">  1       21 0.49162645E-03 0.68509739E+01</pdfrwt>
<pdfrwt beam="2">  1       21 0.22746268E-02 0.68509739E+01</pdfrwt>
<totfact> 0.29546633E+09</totfact>
</mgrwt>
</event>
<event>
 4    1  0.3964155E+006  0.1313285E+02  0.7546771E-02  0.1931040E+00
         21   -1    0    0  501  502  0.00000000000E+00  0.00000000000E+00  0.96708965659E+01  0.96708965659E+01  0.00000000000E+00 0. -1.
         21   -1    0    0  502  503 -0.00000000000E+00 -0.00000000000E+00 -0.66091425688E+02  0.66091425688E+02  0.00000000000E+00 0.  1.
          5    1    1    2  501    0  0.12446241230E+00 -0.12262397360E+02  0.41589589050E+01  0.13775660386E+02  0.47000000000E+01 0. -1.
         -5    1    1    2    0  503 -0.12446241230E+00  0.12262397360E+02 -0.60579488027E+02  0.61986661868E+02  0.47000000000E+01 0.  1.
<mgrwt>
<rscale>  2 0.13132855E+02</rscale>
<asrwt>0</asrwt>
<pdfrwt beam="1">  1       21 0.14878302E-02 0.13132855E+02</pdfrwt>
<pdfrwt beam="2">  1       21 0.10167912E-01 0.13132855E+02</pdfrwt>
<totfact> 0.88582529E+07</totfact>
</mgrwt>
</event>
<event>
 4    1  0.3964155E+006  0.5668747E+01  0.7546771E-02  0.2460639E+00
         21   -1    0    0  503  502  0.00000000000E+00  0.00000000000E+00  0.26837051140E-01  0.26837051140E-01  0.00000000000E+00 0.  1.
         21   -1    0    0  501  503 -0.00000000000E+00 -0.00000000000E+00 -0.21823568540E+04  0.21823568540E+04  0.00000000000E+00 0.  1.
          5    1    1    2  501    0  0.19380703484E+01  0.25077028056E+01 -0.18242372766E+04  0.18242460843E+04  0.47000000000E+01 0.  1.
         -5    1    1    2    0  502 -0.19380703484E+01 -0.25077028056E+01 -0.35809274030E+03  0.35813760672E+03  0.47000000000E+01 0.  1.
<mgrwt>
<rscale>  2 0.56687468E+01</rscale>
<asrwt>0</asrwt>
<pdfrwt beam="1">  1       21 0.41278417E-05 0.56687468E+01</pdfrwt>
<pdfrwt beam="2">  1       21 0.33582329E+00 0.56687468E+01</pdfrwt>
<totfact> 0.21603756E+08</totfact>
</mgrwt>
</event>
<event>
 4    1  0.3964155E+006  0.6715826E+01  0.7546771E-02  0.2330633E+00
         21   -1    0    0  503  502  0.00000000000E+00  0.00000000000E+00  0.57902788559E+01  0.57902788559E+01  0.00000000000E+00 0.  1.
         21   -1    0    0  501  503 -0.00000000000E+00 -0.00000000000E+00 -0.86696374172E+01  0.86696374172E+01  0.00000000000E+00 0.  1.
          5    1    1    2  501    0  0.47971106781E+01  0.67921552464E-02 -0.37435373751E+01  0.76887182983E+01  0.47000000000E+01 0.  1.
         -5    1    1    2    0  502 -0.47971106781E+01 -0.67921552464E-02  0.86417881380E+00  0.67711979748E+01  0.47000000000E+01 0.  1.
<mgrwt>
<rscale>  2 0.67158259E+01</rscale>
<asrwt>0</asrwt>
<pdfrwt beam="1">  1       21 0.89081214E-03 0.67158259E+01</pdfrwt>
<pdfrwt beam="2">  1       21 0.13337904E-02 0.67158259E+01</pdfrwt>
<totfact> 0.27189719E+09</totfact>
</mgrwt>
</event>
<event>
 4    1  0.3964155E+006  0.7655307E+01  0.7546771E-02  0.2239597E+00
         21   -1    0    0  501  502  0.00000000000E+00  0.00000000000E+00  0.16055469910E+01  0.16055469910E+01  0.00000000000E+00 0. -1.
         21   -1    0    0  502  503 -0.00000000000E+00 -0.00000000000E+00 -0.36510927682E+02  0.36510927682E+02  0.00000000000E+00 0. -1.
          5    1    1    2  501    0  0.57474818898E+01 -0.18655252483E+01 -0.17770271232E+02  0.19349063858E+02  0.47000000000E+01 0. -1.
         -5    1    1    2    0  503 -0.57474818898E+01  0.18655252483E+01 -0.17135109459E+02  0.18767410815E+02  0.47000000000E+01 0. -1.
<mgrwt>
<rscale>  2 0.76553075E+01</rscale>
<asrwt>0</asrwt>
<pdfrwt beam="1">  1       21 0.24700725E-03 0.76553075E+01</pdfrwt>
<pdfrwt beam="2">  1       21 0.56170653E-02 0.76553075E+01</pdfrwt>
<totfact> 0.21967789E+09</totfact>
</mgrwt>
</event>
<event>
 4    1  0.3964155E+006  0.5995555E+01  0.7546771E-02  0.2416002E+00
         21   -1    0    0  503  502  0.00000000000E+00  0.00000000000E+00  0.48119407766E+01  0.48119407766E+01  0.00000000000E+00 0. -1.
         21   -1    0    0  501  503 -0.00000000000E+00 -0.00000000000E+00 -0.75806297437E+01  0.75806297437E+01  0.00000000000E+00 0.  1.
          5    1    1    2  501    0 -0.34407263024E+01 -0.14205928834E+01 -0.21318398794E+01  0.63632871144E+01  0.47000000000E+01 0. -1.
         -5    1    1    2    0  502  0.34407263024E+01  0.14205928834E+01 -0.63684908766E+00  0.60292834059E+01  0.47000000000E+01 0. -1.
<mgrwt>
<rscale>  2 0.59955552E+01</rscale>
<asrwt>0</asrwt>
<pdfrwt beam="1">  1       21 0.74029858E-03 0.59955552E+01</pdfrwt>
<pdfrwt beam="2">  1       21 0.11662507E-02 0.59955552E+01</pdfrwt>
<totfact> 0.38734493E+09</totfact>
</mgrwt>
</event>
<event>
 4    1  0.3964155E+006  0.5987267E+01  0.7546771E-02  0.2417084E+00
         21   -1    0    0  501  502  0.00000000000E+00  0.00000000000E+00  0.14924042992E+01  0.14924042992E+01  0.00000000000E+00 0. -1.
         21   -1    0    0  502  503 -0.00000000000E+00 -0.00000000000E+00 -0.39635828881E+02  0.39635828881E+02  0.00000000000E+00 0.  1.
          5    1    1    2  501    0  0.36797438964E+01 -0.46567133321E+00 -0.61639683358E+01  0.85931292658E+01  0.47000000000E+01 0. -1.
         -5    1    1    2    0  503 -0.36797438964E+01  0.46567133321E+00 -0.31979456246E+02  0.32535103914E+02  0.47000000000E+01 0.  1.
<mgrwt>
<rscale>  2 0.59872669E+01</rscale>
<asrwt>0</asrwt>
<pdfrwt beam="1">  1       21 0.22960065E-03 0.59872669E+01</pdfrwt>
<pdfrwt beam="2">  1       21 0.60978201E-02 0.59872669E+01</pdfrwt>
<totfact> 0.17722805E+09</totfact>
</mgrwt>
</event>
<event>
 4    1  0.3964155E+006  0.9378608E+01  0.7546771E-02  0.2112178E+00
         21   -1    0    0  503  502  0.00000000000E+00  0.00000000000E+00  0.66645930154E+02  0.66645930154E+02  0.00000000000E+00 0. -1.
         21   -1    0    0  501  503 -0.00000000000E+00 -0.00000000000E+00 -0.13837808316E+01  0.13837808316E+01  0.00000000000E+00 0.  1.
          5    1    1    2  501    0 -0.16810537303E+01  0.79399212367E+01  0.25316126922E+02  0.26997491980E+02  0.47000000000E+01 0. -1.
         -5    1    1    2    0  502  0.16810537303E+01 -0.79399212367E+01  0.39946022400E+02  0.41032219005E+02  0.47000000000E+01 0.  1.
<mgrwt>
<rscale>  2 0.93786082E+01</rscale>
<asrwt>0</asrwt>
<pdfrwt beam="1">  1       21 0.10253218E-01 0.93786082E+01</pdfrwt>
<pdfrwt beam="2">  1       21 0.21288941E-03 0.93786082E+01</pdfrwt>
<totfact> 0.12168038E+09</totfact>
</mgrwt>
</event>
<event>
 4    1  0.3964155E+006  0.8999121E+01  0.7546771E-02  0.2136865E+00
         21   -1    0    0  501  502  0.00000000000E+00  0.00000000000E+00  0.14489691200E+01  0.14489691200E+01  0.00000000000E+00 0. -1.
         21   -1    0    0  502  503 -0.00000000000E+00 -0.00000000000E+00 -0.68301575816E+02  0.68301575816E+02  0.00000000000E+00 0.  1.
          5    1    1    2  501    0 -0.59571019737E+01  0.48380896965E+01 -0.18560098517E+02  0.20626716482E+02  0.47000000000E+01 0. -1.
         -5    1    1    2    0  503  0.59571019737E+01 -0.48380896965E+01 -0.48292508179E+02  0.49123828455E+02  0.47000000000E+01 0.  1.
<mgrwt>
<rscale>  2 0.89991208E+01</rscale>
<asrwt>0</asrwt>
<pdfrwt beam="1">  1       21 0.22291828E-03 0.89991208E+01</pdfrwt>
<pdfrwt beam="2">  1       21 0.10507937E-01 0.89991208E+01</pdfrwt>
<totfact> 0.10703325E+09</totfact>
</mgrwt>
</event>
<event>
 4    1  0.3964155E+006  0.1383429E+02  0.7546771E-02  0.1905875E+00
         21   -1    0    0  501  502  0.00000000000E+00  0.00000000000E+00  0.78431148945E+03  0.78431148945E+03  0.00000000000E+00 0.  1.
         21   -1    0    0  502  503 -0.00000000000E+00 -0.00000000000E+00 -0.63727597631E+00  0.63727597631E+00  0.00000000000E+00 0.  1.
          5    1    1    2  501    0  0.27983677096E+01  0.12706956743E+02  0.70014543917E+03  0.70028210287E+03  0.47000000000E+01 0.  1.
         -5    1    1    2    0  503 -0.27983677096E+01 -0.12706956743E+02  0.83528774304E+02  0.84666662555E+02  0.47000000000E+01 0.  1.
<mgrwt>
<rscale>  2 0.13834291E+02</rscale>
<asrwt>0</asrwt>
<pdfrwt beam="1">  1       21 0.12066253E+00 0.13834291E+02</pdfrwt>
<pdfrwt beam="2">  1       21 0.98043085E-04 0.13834291E+02</pdfrwt>
<totfact> 0.47390821E+07</totfact>
</mgrwt>
</event>
<event>
 4    1  0.3964155E+006  0.6422224E+01  0.7546771E-02  0.2363509E+00
         21   -1    0    0  503  502  0.00000000000E+00  0.00000000000E+00  0.92577150166E+03  0.92577150166E+03  0.00000000000E+00 0. -1.
         21   -1    0    0  501  503 -0.00000000000E+00 -0.00000000000E+00 -0.12809559582E+00  0.12809559582E+00  0.00000000000E+00 0.  1.
          5    1    1    2  501    0  0.30472790753E+01 -0.31415036165E+01  0.88949281617E+02  0.89180825601E+02  0.47000000000E+01 0.  1.
         -5    1    1    2    0  502 -0.30472790753E+01  0.31415036165E+01  0.83669412445E+03  0.83671877166E+03  0.47000000000E+01 0. -1.
<mgrwt>
<rscale>  2 0.64222235E+01</rscale>
<asrwt>0</asrwt>
<pdfrwt beam="1">  1       21 0.14242103E+00 0.64222235E+01</pdfrwt>
<pdfrwt beam="2">  1       21 0.19707756E-04 0.64222235E+01</pdfrwt>
<totfact> 0.21374908E+08</totfact>
</mgrwt>
</event>
<event>
 4    1  0.3964155E+006  0.5323482E+01  0.7546771E-02  0.2512781E+00
         21   -1    0    0  503  502  0.00000000000E+00  0.00000000000E+00  0.32306727186E+01  0.32306727186E+01  0.00000000000E+00 0.  1.
         21   -1    0    0  501  503 -0.00000000000E+00 -0.00000000000E+00 -0.17606055636E+02  0.17606055636E+02  0.00000000000E+00 0.  1.
          5    1    1    2  501    0  0.15143153816E+01 -0.19890463281E+01 -0.14567559567E+02  0.15509779112E+02  0.47000000000E+01 0.  1.
         -5    1    1    2    0  502 -0.15143153816E+01  0.19890463281E+01  0.19217664933E+00  0.53269492427E+01  0.47000000000E+01 0.  1.
<mgrwt>
<rscale>  2 0.53234816E+01</rscale>
<asrwt>0</asrwt>
<pdfrwt beam="1">  1       21 0.49702657E-03 0.53234816E+01</pdfrwt>
<pdfrwt beam="2">  1       21 0.27086239E-02 0.53234816E+01</pdfrwt>
<totfact> 0.18173128E+09</totfact>
</mgrwt>
</event>
<event>
 4    1  0.3964155E+006  0.5668430E+01  0.7546771E-02  0.2460685E+00
         21   -1    0    0  503  502  0.00000000000E+00  0.00000000000E+00  0.77167889324E+01  0.77167889324E+01  0.00000000000E+00 0. -1.
         21   -1    0    0  501  503 -0.00000000000E+00 -0.00000000000E+00 -0.84979747260E+02  0.84979747260E+02  0.00000000000E+00 0.  1.
          5    1    1    2  501    0 -0.17723801638E+01  0.26267416084E+01 -0.83830013142E+02  0.84021438968E+02  0.47000000000E+01 0.  1.
         -5    1    1    2    0  502  0.17723801638E+01 -0.26267416084E+01  0.65670548140E+01  0.86750972244E+01  0.47000000000E+01 0. -1.
<mgrwt>
<rscale>  2 0.56684304E+01</rscale>
<asrwt>0</asrwt>
<pdfrwt beam="1">  1       21 0.11871983E-02 0.56684304E+01</pdfrwt>
<pdfrwt beam="2">  1       21 0.13073807E-01 0.56684304E+01</pdfrwt>
<totfact> 0.54471832E+07</totfact>
</mgrwt>
</event>
<event>
 4    1  0.3964155E+006  0.6326785E+01  0.7546771E-02  0.2374738E+00
         21   -1    0    0  503  502  0.00000000000E+00  0.00000000000E+00  0.17296313323E+00  0.17296313323E+00  0.00000000000E+00 0. -1.
         21   -1    0    0  501  503 -0.00000000000E+00 -0.00000000000E+00 -0.24793909001E+03  0.24793909001E+03  0.00000000000E+00 0. -1.
          5    1    1    2  501    0  0.41451025538E+01  0.86967389199E+00 -0.15589827398E+03  0.15602660042E+03  0.47000000000E+01 0. -1.
         -5    1    1    2    0  502 -0.41451025538E+01 -0.86967389199E+00 -0.91867852893E+02  0.92085452722E+02  0.47000000000E+01 0. -1.
<mgrwt>
<rscale>  2 0.63267850E+01</rscale>
<asrwt>0</asrwt>
<pdfrwt beam="1">  1       21 0.26609645E-04 0.63267850E+01</pdfrwt>
<pdfrwt beam="2">  1       21 0.38144573E-01 0.63267850E+01</pdfrwt>
<totfact> 0.18101982E+09</totfact>
</mgrwt>
</event>
<event>
 4    1  0.3964155E+006  0.5349926E+01  0.7546771E-02  0.2508585E+00
         21   -1    0    0  503  502  0.00000000000E+00  0.00000000000E+00  0.35753542461E+03  0.35753542461E+03  0.00000000000E+00 0. -1.
         21   -1    0    0  501  503 -0.00000000000E+00 -0.00000000000E+00 -0.12529306383E+00  0.12529306383E+00  0.00000000000E+00 0. -1.
          5    1    1    2  501    0  0.22055874861E+01  0.12911593815E+01  0.71246673192E+02  0.71447254318E+02  0.47000000000E+01 0. -1.
         -5    1    1    2    0  502 -0.22055874861E+01 -0.12911593815E+01  0.28616345835E+03  0.28621346335E+03  0.47000000000E+01 0. -1.
<mgrwt>
<rscale>  2 0.53499260E+01</rscale>
<asrwt>0</asrwt>
<pdfrwt beam="1">  1       21 0.55004633E-01 0.53499260E+01</pdfrwt>
<pdfrwt beam="2">  1       21 0.19276142E-04 0.53499260E+01</pdfrwt>
<totfact> 0.12762772E+09</totfact>
</mgrwt>
</event>
<event>
 4    1  0.3964155E+006  0.6093673E+01  0.7546771E-02  0.2403389E+00
         21   -1    0    0  501  502  0.00000000000E+00  0.00000000000E+00  0.98643175501E+01  0.98643175501E+01  0.00000000000E+00 0. -1.
         21   -1    0    0  502  503 -0.00000000000E+00 -0.00000000000E+00 -0.47681281974E+01  0.47681281974E+01  0.00000000000E+00 0.  1.
          5    1    1    2  501    0  0.12373400909E+01  0.36758450108E+01  0.59049264667E+01  0.84853405130E+01  0.47000000000E+01 0.  1.
         -5    1    1    2    0  503 -0.12373400909E+01 -0.36758450108E+01 -0.80873711401E+00  0.61471052345E+01  0.47000000000E+01 0.  1.
<mgrwt>
<rscale>  2 0.60936727E+01</rscale>
<asrwt>0</asrwt>
<pdfrwt beam="1">  1       21 0.15175873E-02 0.60936727E+01</pdfrwt>
<pdfrwt beam="2">  1       21 0.73355818E-03 0.60936727E+01</pdfrwt>
<totfact> 0.27376232E+09</totfact>
</mgrwt>
</event>
<event>
 4    1  0.3964155E+006  0.6178255E+01  0.7546771E-02  0.2392785E+00
         21   -1    0    0  501  502  0.00000000000E+00  0.00000000000E+00  0.20605149111E+03  0.20605149111E+03  0.00000000000E+00 0.  1.
         21   -1    0    0  502  503 -0.00000000000E+00 -0.00000000000E+00 -0.34633325489E+02  0.34633325489E+02  0.00000000000E+00 0. -1.
          5    1    1    2  501    0  0.19002025216E+01 -0.35312985886E+01  0.20572921184E+03  0.20582196054E+03  0.47000000000E+01 0.  1.
         -5    1    1    2    0  503 -0.19002025216E+01  0.35312985886E+01 -0.34311046220E+02  0.34862856051E+02  0.47000000000E+01 0. -1.
<mgrwt>
<rscale>  2 0.61782554E+01</rscale>
<asrwt>0</asrwt>
<pdfrwt beam="1">  1       21 0.31700229E-01 0.61782554E+01</pdfrwt>
<pdfrwt beam="2">  1       21 0.53282040E-02 0.61782554E+01</pdfrwt>
<totfact> 0.15426214E+06</totfact>
</mgrwt>
</event>
<event>
 4    1  0.3964155E+006  0.5590359E+01  0.7546771E-02  0.2471997E+00
         21   -1    0    0  503  502  0.00000000000E+00  0.00000000000E+00  0.26769804235E+02  0.26769804235E+02  0.00000000000E+00 0.  1.
         21   -1    0    0  501  503 -0.00000000000E+00 -0.00000000000E+00 -0.22520745206E+01  0.22520745206E+01  0.00000000000E+00 0.  1.
          5    1    1    2  501    0  0.28725579795E+01 -0.95421618780E+00  0.21884809351E+01  0.60034628908E+01  0.47000000000E+01 0.  1.
         -5    1    1    2    0  502 -0.28725579795E+01  0.95421618780E+00  0.22329248780E+02  0.23018415865E+02  0.47000000000E+01 0.  1.
<mgrwt>
<rscale>  2 0.55903594E+01</rscale>
<asrwt>0</asrwt>
<pdfrwt beam="1">  1       21 0.41184312E-02 0.55903594E+01</pdfrwt>
<pdfrwt beam="2">  1       21 0.34647302E-03 0.55903594E+01</pdfrwt>
<totfact> 0.17001020E+09</totfact>
</mgrwt>
</event>
<event>
 4    1  0.3964155E+006  0.5045875E+01  0.7546771E-02  0.2559079E+00
         21   -1    0    0  501  502  0.00000000000E+00  0.00000000000E+00  0.28405371853E+03  0.28405371853E+03  0.00000000000E+00 0. -1.
         21   -1    0    0  502  503 -0.00000000000E+00 -0.00000000000E+00 -0.23358657065E+00  0.23358657065E+00  0.00000000000E+00 0. -1.
          5    1    1    2  501    0  0.12281027930E+01  0.13647768991E+01  0.25349700038E+03  0.25354721465E+03  0.47000000000E+01 0. -1.
         -5    1    1    2    0  503 -0.12281027930E+01 -0.13647768991E+01  0.30323131575E+02  0.30740090452E+02  0.47000000000E+01 0. -1.
<mgrwt>
<rscale>  2 0.50458748E+01</rscale>
<asrwt>0</asrwt>
<pdfrwt beam="1">  1       21 0.43700296E-01 0.50458748E+01</pdfrwt>
<pdfrwt beam="2">  1       21 0.35936623E-04 0.50458748E+01</pdfrwt>
<totfact> 0.80121232E+08</totfact>
</mgrwt>
</event>
<event>
 4    1  0.3964155E+006  0.6154974E+01  0.7546771E-02  0.2395680E+00
         21   -1    0    0  503  502  0.00000000000E+00  0.00000000000E+00  0.36645089462E+03  0.36645089462E+03  0.00000000000E+00 0. -1.
         21   -1    0    0  501  503 -0.00000000000E+00 -0.00000000000E+00 -0.13783155524E+00  0.13783155524E+00  0.00000000000E+00 0.  1.
          5    1    1    2  501    0 -0.25770123271E+01 -0.30253458796E+01  0.91517833788E+02  0.91724574741E+02  0.47000000000E+01 0.  1.
         -5    1    1    2    0  502  0.25770123271E+01  0.30253458796E+01  0.27479522928E+03  0.27486415144E+03  0.47000000000E+01 0. -1.
<mgrwt>
<rscale>  2 0.61549744E+01</rscale>
<asrwt>0</asrwt>
<pdfrwt beam="1">  1       21 0.56376281E-01 0.61549744E+01</pdfrwt>
<pdfrwt beam="2">  1       21 0.21205148E-04 0.61549744E+01</pdfrwt>
<totfact> 0.11952532E+09</totfact>
</mgrwt>
</event>
<event>
 4    1  0.3964155E+006  0.5381952E+01  0.7546771E-02  0.2503552E+00
         21   -1    0    0  503  502  0.00000000000E+00  0.00000000000E+00  0.23753010552E+02  0.23753010552E+02  0.00000000000E+00 0.  1.
         21   -1    0    0  501  503 -0.00000000000E+00 -0.00000000000E+00 -0.14631680865E+01  0.14631680865E+01  0.00000000000E+00 0.  1.
          5    1    1    2  501    0  0.25833155400E+01 -0.44931876745E+00  0.59991126096E+01  0.80594515097E+01  0.47000000000E+01 0.  1.
         -5    1    1    2    0  502 -0.25833155400E+01  0.44931876745E+00  0.16290729856E+02  0.17156727129E+02  0.47000000000E+01 0.  1.
<mgrwt>
<rscale>  2 0.53819519E+01</rscale>
<asrwt>0</asrwt>
<pdfrwt beam="1">  1       21 0.36543090E-02 0.53819519E+01</pdfrwt>
<pdfrwt beam="2">  1       21 0.22510280E-03 0.53819519E+01</pdfrwt>
<totfact> 0.35189951E+09</totfact>
</mgrwt>
</event>
<event>
 4    1  0.3964155E+006  0.4909141E+01  0.7546771E-02  0.2583529E+00
         21   -1    0    0  503  502  0.00000000000E+00  0.00000000000E+00  0.17234220887E+00  0.17234220887E+00  0.00000000000E+00 0.  1.
         21   -1    0    0  501  503 -0.00000000000E+00 -0.00000000000E+00 -0.44442453931E+03  0.44442453931E+03  0.00000000000E+00 0.  1.
          5    1    1    2  501    0  0.13294248196E+01  0.49223666286E+00 -0.40615841320E+03  0.40618807993E+03  0.47000000000E+01 0.  1.
         -5    1    1    2    0  502 -0.13294248196E+01 -0.49223666286E+00 -0.38093783900E+02  0.38408801584E+02  0.47000000000E+01 0.  1.
<mgrwt>
<rscale>  2 0.49091412E+01</rscale>
<asrwt>0</asrwt>
<pdfrwt beam="1">  1       21 0.26514263E-04 0.49091412E+01</pdfrwt>
<pdfrwt beam="2">  1       21 0.68372807E-01 0.49091412E+01</pdfrwt>
<totfact> 0.52329991E+08</totfact>
</mgrwt>
</event>
<event>
 4    1  0.3964155E+006  0.6118725E+01  0.7546771E-02  0.2400223E+00
         21   -1    0    0  503  502  0.00000000000E+00  0.00000000000E+00  0.31951491330E+00  0.31951491330E+00  0.00000000000E+00 0. -1.
         21   -1    0    0  501  503 -0.00000000000E+00 -0.00000000000E+00 -0.11760734483E+03  0.11760734483E+03  0.00000000000E+00 0.  1.
          5    1    1    2  501    0 -0.30430363206E+01  0.24675338653E+01 -0.62223692709E+02  0.62523809287E+02  0.47000000000E+01 0.  1.
         -5    1    1    2    0  502  0.30430363206E+01 -0.24675338653E+01 -0.55064137209E+02  0.55403050457E+02  0.47000000000E+01 0.  1.
<mgrwt>
<rscale>  2 0.61187248E+01</rscale>
<asrwt>0</asrwt>
<pdfrwt beam="1">  1       21 0.49156082E-04 0.61187248E+01</pdfrwt>
<pdfrwt beam="2">  1       21 0.18093459E-01 0.61187248E+01</pdfrwt>
<totfact> 0.26888146E+09</totfact>
</mgrwt>
</event>
<event>
 4    1  0.3964155E+006  0.5497203E+01  0.7546771E-02  0.2485851E+00
         21   -1    0    0  501  502  0.00000000000E+00  0.00000000000E+00  0.50351463810E+01  0.50351463810E+01  0.00000000000E+00 0.  1.
         21   -1    0    0  502  503 -0.00000000000E+00 -0.00000000000E+00 -0.73715007901E+01  0.73715007901E+01  0.00000000000E+00 0.  1.
          5    1    1    2  501    0  0.18973000237E+01 -0.21282599187E+01  0.15059464911E+01  0.56997467045E+01  0.47000000000E+01 0.  1.
         -5    1    1    2    0  503 -0.18973000237E+01  0.21282599187E+01 -0.38423009002E+01  0.67069004666E+01  0.47000000000E+01 0.  1.
<mgrwt>
<rscale>  2 0.54972027E+01</rscale>
<asrwt>0</asrwt>
<pdfrwt beam="1">  1       21 0.77463791E-03 0.54972027E+01</pdfrwt>
<pdfrwt beam="2">  1       21 0.11340770E-02 0.54972027E+01</pdfrwt>
<totfact> 0.34907048E+09</totfact>
</mgrwt>
</event>
<event>
 4    1  0.3964155E+006  0.9535174E+01  0.7546771E-02  0.2102448E+00
         21   -1    0    0  501  502  0.00000000000E+00  0.00000000000E+00  0.37165746068E+00  0.37165746068E+00  0.00000000000E+00 0. -1.
         21   -1    0    0  502  503 -0.00000000000E+00 -0.00000000000E+00 -0.31223592475E+03  0.31223592475E+03  0.00000000000E+00 0. -1.
          5    1    1    2  501    0  0.43024190225E+01  0.70935698918E+01 -0.83202399878E+02  0.83746993312E+02  0.47000000000E+01 0. -1.
         -5    1    1    2    0  503 -0.43024190225E+01 -0.70935698918E+01 -0.22866186741E+03  0.22886058890E+03  0.47000000000E+01 0. -1.
<mgrwt>
<rscale>  2 0.95351740E+01</rscale>
<asrwt>0</asrwt>
<pdfrwt beam="1">  1       21 0.57177932E-04 0.95351740E+01</pdfrwt>
<pdfrwt beam="2">  1       21 0.48036412E-01 0.95351740E+01</pdfrwt>
<totfact> 0.55001214E+08</totfact>
</mgrwt>
</event>
<event>
 4    1  0.3964155E+006  0.4891664E+01  0.7546771E-02  0.2586739E+00
         21   -1    0    0  501  502  0.00000000000E+00  0.00000000000E+00  0.16380836021E+01  0.16380836021E+01  0.00000000000E+00 0.  1.
         21   -1    0    0  502  503 -0.00000000000E+00 -0.00000000000E+00 -0.42199250926E+02  0.42199250926E+02  0.00000000000E+00 0.  1.
          5    1    1    2  501    0 -0.56242515016E+00 -0.12337153536E+01 -0.25570191670E+01  0.55196668961E+01  0.47000000000E+01 0.  1.
         -5    1    1    2    0  503  0.56242515016E+00  0.12337153536E+01 -0.38004148157E+02  0.38317667632E+02  0.47000000000E+01 0.  1.
<mgrwt>
<rscale>  2 0.48916639E+01</rscale>
<asrwt>0</asrwt>
<pdfrwt beam="1">  1       21 0.25201287E-03 0.48916639E+01</pdfrwt>
<pdfrwt beam="2">  1       21 0.64921922E-02 0.48916639E+01</pdfrwt>
<totfact> 0.11869309E+09</totfact>
</mgrwt>
</event>
<event>
 4    1  0.3964155E+006  0.4786687E+01  0.7546771E-02  0.2606446E+00
         21   -1    0    0  503  502  0.00000000000E+00  0.00000000000E+00  0.99224967291E+01  0.99224967291E+01  0.00000000000E+00 0.  1.
         21   -1    0    0  501  503 -0.00000000000E+00 -0.00000000000E+00 -0.10475643886E+02  0.10475643886E+02  0.00000000000E+00 0.  1.
          5    1    1    2  501    0  0.89651379592E+00  0.13651466211E+00 -0.92816721706E+01  0.10443266324E+02  0.47000000000E+01 0.  1.
         -5    1    1    2    0  502 -0.89651379592E+00 -0.13651466211E+00  0.87285250134E+01  0.99548742910E+01  0.47000000000E+01 0.  1.
<mgrwt>
<rscale>  2 0.47866871E+01</rscale>
<asrwt>0</asrwt>
<pdfrwt beam="1">  1       21 0.15265380E-02 0.47866871E+01</pdfrwt>
<pdfrwt beam="2">  1       21 0.16116375E-02 0.47866871E+01</pdfrwt>
<totfact> 0.72055914E+08</totfact>
</mgrwt>
</event>
<event>
 4    1  0.3964155E+006  0.5403862E+01  0.7546771E-02  0.2500137E+00
         21   -1    0    0  501  502  0.00000000000E+00  0.00000000000E+00  0.39174556958E+03  0.39174556958E+03  0.00000000000E+00 0.  1.
         21   -1    0    0  502  503 -0.00000000000E+00 -0.00000000000E+00 -0.14056093605E+00  0.14056093605E+00  0.00000000000E+00 0. -1.
          5    1    1    2  501    0 -0.20857779886E+01  0.16617017181E+01  0.33008826255E+03  0.33013249279E+03  0.47000000000E+01 0.  1.
         -5    1    1    2    0  503  0.20857779886E+01 -0.16617017181E+01  0.61516746088E+02  0.61753637720E+02  0.47000000000E+01 0. -1.
<mgrwt>
<rscale>  2 0.54038618E+01</rscale>
<asrwt>0</asrwt>
<pdfrwt beam="1">  1       21 0.60267675E-01 0.54038618E+01</pdfrwt>
<pdfrwt beam="2">  1       21 0.21625073E-04 0.54038618E+01</pdfrwt>
<totfact> 0.93465570E+08</totfact>
</mgrwt>
</event>
<event>
 4    1  0.3964155E+006  0.5384444E+01  0.7546771E-02  0.2503162E+00
         21   -1    0    0  501  502  0.00000000000E+00  0.00000000000E+00  0.25532575182E+01  0.25532575182E+01  0.00000000000E+00 0.  1.
         21   -1    0    0  502  503 -0.00000000000E+00 -0.00000000000E+00 -0.41748463216E+02  0.41748463216E+02  0.00000000000E+00 0.  1.
          5    1    1    2  501    0  0.24729589333E+01  0.88696993461E+00 -0.69766219853E+00  0.54294543090E+01  0.47000000000E+01 0.  1.
         -5    1    1    2    0  503 -0.24729589333E+01 -0.88696993461E+00 -0.38497543499E+02  0.38872266425E+02  0.47000000000E+01 0.  1.
<mgrwt>
<rscale>  2 0.53844444E+01</rscale>
<asrwt>0</asrwt>
<pdfrwt beam="1">  1       21 0.39280889E-03 0.53844444E+01</pdfrwt>
<pdfrwt beam="2">  1       21 0.64228398E-02 0.53844444E+01</pdfrwt>
<totfact> 0.71953052E+08</totfact>
</mgrwt>
</event>
<event>
 4    1  0.3964155E+006  0.5837665E+01  0.7546771E-02  0.2437043E+00
         21   -1    0    0  501  502  0.00000000000E+00  0.00000000000E+00  0.20876947317E+03  0.20876947317E+03  0.00000000000E+00 0. -1.
         21   -1    0    0  502  503 -0.00000000000E+00 -0.00000000000E+00 -0.18695451633E+00  0.18695451633E+00  0.00000000000E+00 0. -1.
          5    1    1    2  501    0 -0.15213457062E+01  0.31102794254E+01  0.14150620851E+03  0.14162657017E+03  0.47000000000E+01 0. -1.
         -5    1    1    2    0  503  0.15213457062E+01 -0.31102794254E+01  0.67076310147E+02  0.67329857521E+02  0.47000000000E+01 0. -1.
<mgrwt>
<rscale>  2 0.58376648E+01</rscale>
<asrwt>0</asrwt>
<pdfrwt beam="1">  1       21 0.32118194E-01 0.58376648E+01</pdfrwt>
<pdfrwt beam="2">  1       21 0.28762400E-04 0.58376648E+01</pdfrwt>
<totfact> 0.20598425E+09</totfact>
</mgrwt>
</event>
<event>
 4    1  0.3964155E+006  0.7870714E+01  0.7546771E-02  0.2221245E+00
         21   -1    0    0  503  502  0.00000000000E+00  0.00000000000E+00  0.16740983474E+01  0.16740983474E+01  0.00000000000E+00 0. -1.
         21   -1    0    0  501  503 -0.00000000000E+00 -0.00000000000E+00 -0.39465483827E+02  0.39465483827E+02  0.00000000000E+00 0. -1.
          5    1    1    2  501    0  0.33366092261E+01  0.53595878782E+01 -0.13758453746E+02  0.15850652758E+02  0.47000000000E+01 0. -1.
         -5    1    1    2    0  502 -0.33366092261E+01 -0.53595878782E+01 -0.24032931733E+02  0.25288929416E+02  0.47000000000E+01 0. -1.
<mgrwt>
<rscale>  2 0.78707143E+01</rscale>
<asrwt>0</asrwt>
<pdfrwt beam="1">  1       21 0.25755362E-03 0.78707143E+01</pdfrwt>
<pdfrwt beam="2">  1       21 0.60716122E-02 0.78707143E+01</pdfrwt>
<totfact> 0.18791812E+09</totfact>
</mgrwt>
</event>
<event>
 4    1  0.3964155E+006  0.8850533E+01  0.7546771E-02  0.2146987E+00
         21   -1    0    0  501  502  0.00000000000E+00  0.00000000000E+00  0.82541138741E+02  0.82541138741E+02  0.00000000000E+00 0.  1.
         21   -1    0    0  502  503 -0.00000000000E+00 -0.00000000000E+00 -0.10163833592E+01  0.10163833592E+01  0.00000000000E+00 0. -1.
          5    1    1    2  501    0 -0.64485947698E+01 -0.38285200166E+01  0.51519287327E+02  0.52273979251E+02  0.47000000000E+01 0.  1.
         -5    1    1    2    0  503  0.64485947698E+01  0.38285200166E+01  0.30005468054E+02  0.31283542849E+02  0.47000000000E+01 0. -1.
<mgrwt>
<rscale>  2 0.88505333E+01</rscale>
<asrwt>0</asrwt>
<pdfrwt beam="1">  1       21 0.12698631E-01 0.88505333E+01</pdfrwt>
<pdfrwt beam="2">  1       21 0.15636674E-03 0.88505333E+01</pdfrwt>
<totfact> 0.12822410E+09</totfact>
</mgrwt>
</event>
<event>
 4    1  0.3964155E+006  0.4866202E+01  0.7546771E-02  0.2591451E+00
         21   -1    0    0  501  502  0.00000000000E+00  0.00000000000E+00  0.21870576500E+02  0.21870576500E+02  0.00000000000E+00 0. -1.
         21   -1    0    0  502  503 -0.00000000000E+00 -0.00000000000E+00 -0.16913645776E+01  0.16913645776E+01  0.00000000000E+00 0. -1.
          5    1    1    2  501    0 -0.10744728654E+01 -0.65986751525E+00  0.17156701536E+02  0.17833460816E+02  0.47000000000E+01 0. -1.
         -5    1    1    2    0  503  0.10744728654E+01  0.65986751525E+00  0.30225103868E+01  0.57284802622E+01  0.47000000000E+01 0. -1.
<mgrwt>
<rscale>  2 0.48662015E+01</rscale>
<asrwt>0</asrwt>
<pdfrwt beam="1">  1       21 0.33647039E-02 0.48662015E+01</pdfrwt>
<pdfrwt beam="2">  1       21 0.26020995E-03 0.48662015E+01</pdfrwt>
<totfact> 0.29435366E+09</totfact>
</mgrwt>
</event>
<event>
 4    1  0.3964155E+006  0.3159597E+02  0.7546771E-02  0.1581089E+00
         21   -1    0    0  501  502  0.00000000000E+00  0.00000000000E+00  0.86139746821E+01  0.86139746821E+01  0.00000000000E+00 0. -1.
         21   -1    0    0  502  503 -0.00000000000E+00 -0.00000000000E+00 -0.52699110322E+03  0.52699110322E+03  0.00000000000E+00 0.  1.
          5    1    1    2  501    0 -0.31192370576E+02  0.18031353491E+01 -0.22659005091E+02  0.38881046681E+02  0.47000000000E+01 0. -1.
         -5    1    1    2    0  503  0.31192370576E+02 -0.18031353491E+01 -0.49571812345E+03  0.49672403123E+03  0.47000000000E+01 0.  1.
<mgrwt>
<rscale>  2 0.31595969E+02</rscale>
<asrwt>0</asrwt>
<pdfrwt beam="1">  1       21 0.13252268E-02 0.31595969E+02</pdfrwt>
<pdfrwt beam="2">  1       21 0.81075558E-01 0.31595969E+02</pdfrwt>
<totfact> 0.29267168E+06</totfact>
</mgrwt>
</event>
<event>
 4    1  0.3964155E+006  0.4993407E+01  0.7546771E-02  0.2568325E+00
         21   -1    0    0  501  502  0.00000000000E+00  0.00000000000E+00  0.33322233203E+01  0.33322233203E+01  0.00000000000E+00 0.  1.
         21   -1    0    0  502  503 -0.00000000000E+00 -0.00000000000E+00 -0.14323346426E+02  0.14323346426E+02  0.00000000000E+00 0.  1.
          5    1    1    2  501    0  0.11094140529E+01 -0.12701628959E+01  0.60510441859E+00  0.50299368465E+01  0.47000000000E+01 0.  1.
         -5    1    1    2    0  503 -0.11094140529E+01  0.12701628959E+01 -0.11596227524E+02  0.12625632900E+02  0.47000000000E+01 0.  1.
<mgrwt>
<rscale>  2 0.49934070E+01</rscale>
<asrwt>0</asrwt>
<pdfrwt beam="1">  1       21 0.51264973E-03 0.49934070E+01</pdfrwt>
<pdfrwt beam="2">  1       21 0.22035918E-02 0.49934070E+01</pdfrwt>
<totfact> 0.21965669E+09</totfact>
</mgrwt>
</event>
<event>
 4    1  0.3964155E+006  0.5902171E+01  0.7546771E-02  0.2428333E+00
         21   -1    0    0  503  502  0.00000000000E+00  0.00000000000E+00  0.84423924112E+02  0.84423924112E+02  0.00000000000E+00 0. -1.
         21   -1    0    0  501  503 -0.00000000000E+00 -0.00000000000E+00 -0.45410650366E+00  0.45410650366E+00  0.00000000000E+00 0.  1.
          5    1    1    2  501    0  0.16260628935E+01  0.31782913997E+01  0.29158603084E+02  0.29749953791E+02  0.47000000000E+01 0.  1.
         -5    1    1    2    0  502 -0.16260628935E+01 -0.31782913997E+01  0.54811214524E+02  0.55128076824E+02  0.47000000000E+01 0.  1.
<mgrwt>
<rscale>  2 0.59021705E+01</rscale>
<asrwt>0</asrwt>
<pdfrwt beam="1">  1       21 0.12988284E-01 0.59021705E+01</pdfrwt>
<pdfrwt beam="2">  1       21 0.69862606E-04 0.59021705E+01</pdfrwt>
<totfact> 0.27527390E+09</totfact>
</mgrwt>
</event>
<event>
 4    1  0.3964155E+006  0.4987470E+01  0.7546771E-02  0.2569381E+00
         21   -1    0    0  501  502  0.00000000000E+00  0.00000000000E+00  0.10910268036E+02  0.10910268036E+02  0.00000000000E+00 0.  1.
         21   -1    0    0  502  503 -0.00000000000E+00 -0.00000000000E+00 -0.24766912456E+01  0.24766912456E+01  0.00000000000E+00 0.  1.
          5    1    1    2  501    0  0.33430419259E+00  0.16349614357E+01  0.61033216769E+01  0.78819663588E+01  0.47000000000E+01 0.  1.
         -5    1    1    2    0  503 -0.33430419259E+00 -0.16349614357E+01  0.23302551139E+01  0.55049929233E+01  0.47000000000E+01 0.  1.
<mgrwt>
<rscale>  2 0.49874701E+01</rscale>
<asrwt>0</asrwt>
<pdfrwt beam="1">  1       21 0.16785027E-02 0.49874701E+01</pdfrwt>
<pdfrwt beam="2">  1       21 0.38102943E-03 0.49874701E+01</pdfrwt>
<totfact> 0.48432096E+09</totfact>
</mgrwt>
</event>
<event>
 4    1  0.3964155E+006  0.6306293E+01  0.7546771E-02  0.2377186E+00
         21   -1    0    0  501  502  0.00000000000E+00  0.00000000000E+00  0.46022589898E+01  0.46022589898E+01  0.00000000000E+00 0.  1.
         21   -1    0    0  502  503 -0.00000000000E+00 -0.00000000000E+00 -0.14226905885E+02  0.14226905885E+02  0.00000000000E+00 0.  1.
          5    1    1    2  501    0 -0.26596459571E+01  0.32566268627E+01  0.10867306055E+01  0.63992435919E+01  0.47000000000E+01 0.  1.
         -5    1    1    2    0  503  0.26596459571E+01 -0.32566268627E+01 -0.10711377501E+02  0.12429921283E+02  0.47000000000E+01 0.  1.
<mgrwt>
<rscale>  2 0.63062933E+01</rscale>
<asrwt>0</asrwt>
<pdfrwt beam="1">  1       21 0.70803984E-03 0.63062933E+01</pdfrwt>
<pdfrwt beam="2">  1       21 0.21887548E-02 0.63062933E+01</pdfrwt>
<totfact> 0.17512756E+09</totfact>
</mgrwt>
</event>
<event>
 4    1  0.3964155E+006  0.6095647E+01  0.7546771E-02  0.2403139E+00
         21   -1    0    0  501  502  0.00000000000E+00  0.00000000000E+00  0.32934475668E+01  0.32934475668E+01  0.00000000000E+00 0.  1.
         21   -1    0    0  502  503 -0.00000000000E+00 -0.00000000000E+00 -0.22535786334E+02  0.22535786334E+02  0.00000000000E+00 0. -1.
          5    1    1    2  501    0 -0.38247710107E+01 -0.66184902910E+00 -0.49490415216E+00  0.61157049913E+01  0.47000000000E+01 0.  1.
         -5    1    1    2    0  503  0.38247710107E+01  0.66184902910E+00 -0.18747434615E+02  0.19713528910E+02  0.47000000000E+01 0. -1.
<mgrwt>
<rscale>  2 0.60956474E+01</rscale>
<asrwt>0</asrwt>
<pdfrwt beam="1">  1       21 0.50668425E-03 0.60956474E+01</pdfrwt>
<pdfrwt beam="2">  1       21 0.34670440E-02 0.60956474E+01</pdfrwt>
<totfact> 0.13925906E+09</totfact>
</mgrwt>
</event>
<event>
 4    1  0.3964155E+006  0.9268181E+01  0.7546771E-02  0.2119196E+00
         21   -1    0    0  503  502  0.00000000000E+00  0.00000000000E+00  0.17975035894E+02  0.17975035894E+02  0.00000000000E+00 0. -1.
         21   -1    0    0  501  503 -0.00000000000E+00 -0.00000000000E+00 -0.48881397868E+01  0.48881397868E+01  0.00000000000E+00 0. -1.
          5    1    1    2  501    0 -0.65821967669E+01 -0.45259102001E+01  0.48337655157E+01  0.10452964483E+02  0.47000000000E+01 0. -1.
         -5    1    1    2    0  502  0.65821967669E+01  0.45259102001E+01  0.82531305915E+01  0.12410211198E+02  0.47000000000E+01 0. -1.
<mgrwt>
<rscale>  2 0.92681809E+01</rscale>
<asrwt>0</asrwt>
<pdfrwt beam="1">  1       21 0.27653901E-02 0.92681809E+01</pdfrwt>
<pdfrwt beam="2">  1       21 0.75202151E-03 0.92681809E+01</pdfrwt>
<totfact> 0.15069500E+09</totfact>
</mgrwt>
</event>
<event>
 4    1  0.3964155E+006  0.6867068E+01  0.7546771E-02  0.2314608E+00
         21   -1    0    0  503  502  0.00000000000E+00  0.00000000000E+00  0.19090255106E+02  0.19090255106E+02  0.00000000000E+00 0.  1.
         21   -1    0    0  501  503 -0.00000000000E+00 -0.00000000000E+00 -0.45482809372E+01  0.45482809372E+01  0.00000000000E+00 0. -1.
          5    1    1    2  501    0  0.48212476827E+01  0.13498856671E+01  0.15260105674E+02  0.16734020608E+02  0.47000000000E+01 0.  1.
         -5    1    1    2    0  502 -0.48212476827E+01 -0.13498856671E+01 -0.71813150536E+00  0.69045154349E+01  0.47000000000E+01 0. -1.
<mgrwt>
<rscale>  2 0.68670678E+01</rscale>
<asrwt>0</asrwt>
<pdfrwt beam="1">  1       21 0.29369623E-02 0.68670678E+01</pdfrwt>
<pdfrwt beam="2">  1       21 0.69973554E-03 0.68670678E+01</pdfrwt>
<totfact> 0.12413438E+09</totfact>
</mgrwt>
</event>
<event>
 4    1  0.3964155E+006  0.5935375E+01  0.7546771E-02  0.2423911E+00
         21   -1    0    0  503  502  0.00000000000E+00  0.00000000000E+00  0.24439640220E+02  0.24439640220E+02  0.00000000000E+00 0.  1.
         21   -1    0    0  501  503 -0.00000000000E+00 -0.00000000000E+00 -0.29867878962E+01  0.29867878962E+01  0.00000000000E+00 0. -1.
          5    1    1    2  501    0  0.27245559527E+01  0.23907058165E+01  0.86254409584E+00  0.59977213805E+01  0.47000000000E+01 0. -1.
         -5    1    1    2    0  502 -0.27245559527E+01 -0.23907058165E+01  0.20590308228E+02  0.21428706735E+02  0.47000000000E+01 0.  1.
<mgrwt>
<rscale>  2 0.59353753E+01</rscale>
<asrwt>0</asrwt>
<pdfrwt beam="1">  1       21 0.37599445E-02 0.59353753E+01</pdfrwt>
<pdfrwt beam="2">  1       21 0.45950585E-03 0.59353753E+01</pdfrwt>
<totfact> 0.13853457E+09</totfact>
</mgrwt>
</event>
<event>
 4    1  0.3964155E+006  0.5762768E+01  0.7546771E-02  0.2447362E+00
         21   -1    0    0  501  502  0.00000000000E+00  0.00000000000E+00  0.44598263467E+02  0.44598263467E+02  0.00000000000E+00 0. -1.
         21   -1    0    0  502  503 -0.00000000000E+00 -0.00000000000E+00 -0.17778960435E+01  0.17778960435E+01  0.00000000000E+00 0.  1.
          5    1    1    2  501    0 -0.27282447827E+01 -0.19173340146E+01  0.39087500396E+02  0.39510026278E+02  0.47000000000E+01 0. -1.
         -5    1    1    2    0  503  0.27282447827E+01  0.19173340146E+01  0.37328670281E+01  0.68661332326E+01  0.47000000000E+01 0.  1.
<mgrwt>
<rscale>  2 0.57627675E+01</rscale>
<asrwt>0</asrwt>
<pdfrwt beam="1">  1       21 0.68612705E-02 0.57627675E+01</pdfrwt>
<pdfrwt beam="2">  1       21 0.27352250E-03 0.57627675E+01</pdfrwt>
<totfact> 0.11327642E+09</totfact>
</mgrwt>
</event>
<event>
 4    1  0.3964155E+006  0.9550190E+01  0.7546771E-02  0.2101529E+00
         21   -1    0    0  503  502  0.00000000000E+00  0.00000000000E+00  0.10535343312E+03  0.10535343312E+03  0.00000000000E+00 0.  1.
         21   -1    0    0  501  503 -0.00000000000E+00 -0.00000000000E+00 -0.88013861355E+00  0.88013861355E+00  0.00000000000E+00 0. -1.
          5    1    1    2  501    0 -0.83059469569E+01  0.35688373080E+00  0.45437056311E+02  0.46429863310E+02  0.47000000000E+01 0. -1.
         -5    1    1    2    0  502  0.83059469569E+01 -0.35688373080E+00  0.59036238197E+02  0.59803708424E+02  0.47000000000E+01 0.  1.
<mgrwt>
<rscale>  2 0.95501896E+01</rscale>
<asrwt>0</asrwt>
<pdfrwt beam="1">  1       21 0.16208211E-01 0.95501896E+01</pdfrwt>
<pdfrwt beam="2">  1       21 0.13540602E-03 0.95501896E+01</pdfrwt>
<totfact> 0.11034372E+09</totfact>
</mgrwt>
</event>
<event>
 4    1  0.3964155E+006  0.5400479E+01  0.7546771E-02  0.2500663E+00
         21   -1    0    0  503  502  0.00000000000E+00  0.00000000000E+00  0.51675060063E+02  0.51675060063E+02  0.00000000000E+00 0.  1.
         21   -1    0    0  501  503 -0.00000000000E+00 -0.00000000000E+00 -0.34685870667E+01  0.34685870667E+01  0.00000000000E+00 0. -1.
          5    1    1    2  501    0 -0.18544716171E+01 -0.19068585053E+01 -0.11258668735E+01  0.55165886701E+01  0.47000000000E+01 0. -1.
         -5    1    1    2    0  502  0.18544716171E+01  0.19068585053E+01  0.49332339870E+02  0.49627058460E+02  0.47000000000E+01 0.  1.
<mgrwt>
<rscale>  2 0.54004791E+01</rscale>
<asrwt>0</asrwt>
<pdfrwt beam="1">  1       21 0.79500087E-02 0.54004791E+01</pdfrwt>
<pdfrwt beam="2">  1       21 0.53362882E-03 0.54004791E+01</pdfrwt>
<totfact> 0.34388942E+08</totfact>
</mgrwt>
</event>
<event>
 4    1  0.3964155E+006  0.4917054E+01  0.7546771E-02  0.2582082E+00
         21   -1    0    0  503  502  0.00000000000E+00  0.00000000000E+00  0.77492770915E+01  0.77492770915E+01  0.00000000000E+00 0. -1.
         21   -1    0    0  501  503 -0.00000000000E+00 -0.00000000000E+00 -0.34026190174E+01  0.34026190174E+01  0.00000000000E+00 0.  1.
          5    1    1    2  501    0 -0.92048463650E+00  0.11136106926E+01  0.56622183039E+00  0.49495482523E+01  0.47000000000E+01 0.  1.
         -5    1    1    2    0  502  0.92048463650E+00 -0.11136106926E+01  0.37804362437E+01  0.62023478565E+01  0.47000000000E+01 0. -1.
<mgrwt>
<rscale>  2 0.49170541E+01</rscale>
<asrwt>0</asrwt>
<pdfrwt beam="1">  1       21 0.11921965E-02 0.49170541E+01</pdfrwt>
<pdfrwt beam="2">  1       21 0.52347985E-03 0.49170541E+01</pdfrwt>
<totfact> 0.49934095E+09</totfact>
</mgrwt>
</event>
<event>
 4    1  0.3964155E+006  0.6926956E+01  0.7546771E-02  0.2308421E+00
         21   -1    0    0  501  502  0.00000000000E+00  0.00000000000E+00  0.12272135716E+02  0.12272135716E+02  0.00000000000E+00 0. -1.
         21   -1    0    0  502  503 -0.00000000000E+00 -0.00000000000E+00 -0.82799314341E+01  0.82799314341E+01  0.00000000000E+00 0.  1.
          5    1    1    2  501    0 -0.50329680012E+01  0.74963064998E+00  0.94615329026E+01  0.11726180874E+02  0.47000000000E+01 0. -1.
         -5    1    1    2    0  503  0.50329680012E+01 -0.74963064998E+00 -0.54693286205E+01  0.88258862768E+01  0.47000000000E+01 0.  1.
<mgrwt>
<rscale>  2 0.69269555E+01</rscale>
<asrwt>0</asrwt>
<pdfrwt beam="1">  1       21 0.18880209E-02 0.69269555E+01</pdfrwt>
<pdfrwt beam="2">  1       21 0.12738356E-02 0.69269555E+01</pdfrwt>
<totfact> 0.10148639E+09</totfact>
</mgrwt>
</event>
<event>
 4    1  0.3964155E+006  0.5015645E+01  0.7546771E-02  0.2564386E+00
         21   -1    0    0  501  502  0.00000000000E+00  0.00000000000E+00  0.23892217411E+01  0.23892217411E+01  0.00000000000E+00 0. -1.
         21   -1    0    0  502  503 -0.00000000000E+00 -0.00000000000E+00 -0.10592127440E+02  0.10592127440E+02  0.00000000000E+00 0. -1.
          5    1    1    2  501    0 -0.14002946297E+01  0.10516019083E+01 -0.46015755717E+01  0.68067017979E+01  0.47000000000E+01 0. -1.
         -5    1    1    2    0  503  0.14002946297E+01 -0.10516019083E+01 -0.36013301277E+01  0.61746473836E+01  0.47000000000E+01 0. -1.
<mgrwt>
<rscale>  2 0.50156447E+01</rscale>
<asrwt>0</asrwt>
<pdfrwt beam="1">  1       21 0.36757258E-03 0.50156447E+01</pdfrwt>
<pdfrwt beam="2">  1       21 0.16295581E-02 0.50156447E+01</pdfrwt>
<totfact> 0.53355919E+09</totfact>
</mgrwt>
</event>
<event>
 4    1  0.3964155E+006  0.7609374E+01  0.7546771E-02  0.2243618E+00
         21   -1    0    0  503  502  0.00000000000E+00  0.00000000000E+00  0.70733495180E+01  0.70733495180E+01  0.00000000000E+00 0.  1.
         21   -1    0    0  501  503 -0.00000000000E+00 -0.00000000000E+00 -0.93836816892E+01  0.93836816892E+01  0.00000000000E+00 0.  1.
          5    1    1    2  501    0  0.59217333343E+01  0.86350444090E+00 -0.40948614472E+01  0.86412068528E+01  0.47000000000E+01 0.  1.
         -5    1    1    2    0  502 -0.59217333343E+01 -0.86350444090E+00  0.17845292760E+01  0.78158243544E+01  0.47000000000E+01 0.  1.
<mgrwt>
<rscale>  2 0.76093735E+01</rscale>
<asrwt>0</asrwt>
<pdfrwt beam="1">  1       21 0.10882076E-02 0.76093735E+01</pdfrwt>
<pdfrwt beam="2">  1       21 0.14436433E-02 0.76093735E+01</pdfrwt>
<totfact> 0.20096911E+09</totfact>
</mgrwt>
</event>
<event>
 4    1  0.3964155E+006  0.1244362E+02  0.7546771E-02  0.1957850E+00
         21   -1    0    0  503  502  0.00000000000E+00  0.00000000000E+00  0.19143775936E+04  0.19143775936E+04  0.00000000000E+00 0. -1.
         21   -1    0    0  501  503 -0.00000000000E+00 -0.00000000000E+00 -0.26863479784E+00  0.26863479784E+00  0.00000000000E+00 0.  1.
          5    1    1    2  501    0  0.11307973343E+02  0.22098340760E+01  0.15672717224E+03  0.15722038718E+03  0.47000000000E+01 0.  1.
         -5    1    1    2    0  502 -0.11307973343E+02 -0.22098340760E+01  0.17573817866E+04  0.17574258412E+04  0.47000000000E+01 0. -1.
<mgrwt>
<rscale>  2 0.12443618E+02</rscale>
<asrwt>0</asrwt>
<pdfrwt beam="1">  1       21 0.29450871E+00 0.12443618E+02</pdfrwt>
<pdfrwt beam="2">  1       21 0.41329963E-04 0.12443618E+02</pdfrwt>
<totfact> 0.17050840E+07</totfact>
</mgrwt>
</event>
<event>
 4    1  0.3964155E+006  0.5069453E+01  0.7546771E-02  0.2554978E+00
         21   -1    0    0  501  502  0.00000000000E+00  0.00000000000E+00  0.10874427386E+04  0.10874427386E+04  0.00000000000E+00 0.  1.
         21   -1    0    0  502  503 -0.00000000000E+00 -0.00000000000E+00 -0.70114130113E+00  0.70114130113E+00  0.00000000000E+00 0.  1.
          5    1    1    2  501    0  0.18777265931E+01 -0.28895822250E+00  0.10781948339E+04  0.10782067516E+04  0.47000000000E+01 0.  1.
         -5    1    1    2    0  503 -0.18777265931E+01  0.28895822250E+00  0.85467633265E+01  0.99371282256E+01  0.47000000000E+01 0.  1.
<mgrwt>
<rscale>  2 0.50694530E+01</rscale>
<asrwt>0</asrwt>
<pdfrwt beam="1">  1       21 0.16729753E+00 0.50694530E+01</pdfrwt>
<pdfrwt beam="2">  1       21 0.10786876E-03 0.50694530E+01</pdfrwt>
<totfact> 0.13756230E+07</totfact>
</mgrwt>
</event>
<event>
 4    1  0.3964155E+006  0.4732461E+01  0.7546771E-02  0.2616922E+00
         21   -1    0    0  503  502  0.00000000000E+00  0.00000000000E+00  0.19604926905E+01  0.19604926905E+01  0.00000000000E+00 0.  1.
         21   -1    0    0  501  503 -0.00000000000E+00 -0.00000000000E+00 -0.15319394542E+02  0.15319394542E+02  0.00000000000E+00 0.  1.
          5    1    1    2  501    0  0.44721045300E+00 -0.32586516292E+00 -0.11036370791E+02  0.12008233240E+02  0.47000000000E+01 0.  1.
         -5    1    1    2    0  502 -0.44721045300E+00  0.32586516292E+00 -0.23225310599E+01  0.52716539926E+01  0.47000000000E+01 0.  1.
<mgrwt>
<rscale>  2 0.47324608E+01</rscale>
<asrwt>0</asrwt>
<pdfrwt beam="1">  1       21 0.30161426E-03 0.47324608E+01</pdfrwt>
<pdfrwt beam="2">  1       21 0.23568299E-02 0.47324608E+01</pdfrwt>
<totfact> 0.38915301E+09</totfact>
</mgrwt>
</event>
<event>
 4    1  0.3964155E+006  0.7765047E+01  0.7546771E-02  0.2230144E+00
         21   -1    0    0  501  502  0.00000000000E+00  0.00000000000E+00  0.50536625059E+02  0.50536625059E+02  0.00000000000E+00 0.  1.
         21   -1    0    0  502  503 -0.00000000000E+00 -0.00000000000E+00 -0.92006256757E+01  0.92006256757E+01  0.00000000000E+00 0. -1.
          5    1    1    2  501    0  0.49710772045E+01 -0.36734644583E+01  0.48532762320E+02  0.49150025108E+02  0.47000000000E+01 0.  1.
         -5    1    1    2    0  503 -0.49710772045E+01  0.36734644583E+01 -0.71967629368E+01  0.10587225627E+02  0.47000000000E+01 0. -1.
<mgrwt>
<rscale>  2 0.77650467E+01</rscale>
<asrwt>0</asrwt>
<pdfrwt beam="1">  1       21 0.77748653E-02 0.77650467E+01</pdfrwt>
<pdfrwt beam="2">  1       21 0.14154809E-02 0.77650467E+01</pdfrwt>
<totfact> 0.11419629E+08</totfact>
</mgrwt>
</event>
<event>
 4    1  0.3964155E+006  0.5458014E+01  0.7546771E-02  0.2491798E+00
         21   -1    0    0  501  502  0.00000000000E+00  0.00000000000E+00  0.31438289550E+01  0.31438289550E+01  0.00000000000E+00 0.  1.
         21   -1    0    0  502  503 -0.00000000000E+00 -0.00000000000E+00 -0.98658720753E+01  0.98658720753E+01  0.00000000000E+00 0.  1.
          5    1    1    2  501    0 -0.10040709493E+01  0.25868424638E+01 -0.20673928556E+01  0.58364394645E+01  0.47000000000E+01 0.  1.
         -5    1    1    2    0  503  0.10040709493E+01 -0.25868424638E+01 -0.46546502647E+01  0.71732615658E+01  0.47000000000E+01 0.  1.
<mgrwt>
<rscale>  2 0.54580136E+01</rscale>
<asrwt>0</asrwt>
<pdfrwt beam="1">  1       21 0.48366600E-03 0.54580136E+01</pdfrwt>
<pdfrwt beam="2">  1       21 0.15178265E-02 0.54580136E+01</pdfrwt>
<totfact> 0.44162817E+09</totfact>
</mgrwt>
</event>
<event>
 4    1  0.3964155E+006  0.5124259E+01  0.7546771E-02  0.2545571E+00
         21   -1    0    0  501  502  0.00000000000E+00  0.00000000000E+00  0.83674773467E+03  0.83674773467E+03  0.00000000000E+00 0. -1.
         21   -1    0    0  502  503 -0.00000000000E+00 -0.00000000000E+00 -0.39556751243E-01  0.39556751243E-01  0.00000000000E+00 0. -1.
          5    1    1    2  501    0 -0.18879799354E+01  0.77689269947E+00  0.60856570024E+03  0.60858727356E+03  0.47000000000E+01 0. -1.
         -5    1    1    2    0  503  0.18879799354E+01 -0.77689269947E+00  0.22814247768E+03  0.22820001786E+03  0.47000000000E+01 0. -1.
<mgrwt>
<rscale>  2 0.51242590E+01</rscale>
<asrwt>0</asrwt>
<pdfrwt beam="1">  1       21 0.12871625E+00 0.51242590E+01</pdfrwt>
<pdfrwt beam="2">  1       21 0.60863242E-05 0.51242590E+01</pdfrwt>
<totfact> 0.10934546E+09</totfact>
</mgrwt>
</event>
<event>
 4    1  0.3964155E+006  0.5415892E+01  0.7546771E-02  0.2498272E+00
         21   -1    0    0  503  502  0.00000000000E+00  0.00000000000E+00  0.45674973128E+03  0.45674973128E+03  0.00000000000E+00 0.  1.
         21   -1    0    0  501  503 -0.00000000000E+00 -0.00000000000E+00 -0.16271206087E+00  0.16271206087E+00  0.00000000000E+00 0.  1.
          5    1    1    2  501    0 -0.19796001949E+01 -0.18229300245E+01  0.50548869156E+02  0.50838175260E+02  0.47000000000E+01 0.  1.
         -5    1    1    2    0  502  0.19796001949E+01  0.18229300245E+01  0.40603815007E+03  0.40607426809E+03  0.47000000000E+01 0.  1.
<mgrwt>
<rscale>  2 0.54158924E+01</rscale>
<asrwt>0</asrwt>
<pdfrwt beam="1">  1       21 0.70268163E-01 0.54158924E+01</pdfrwt>
<pdfrwt beam="2">  1       21 0.25032990E-04 0.54158924E+01</pdfrwt>
<totfact> 0.57907148E+08</totfact>
</mgrwt>
</event>
<event>
 4    1  0.3964155E+006  0.6196433E+01  0.7546771E-02  0.2390538E+00
         21   -1    0    0  503  502  0.00000000000E+00  0.00000000000E+00  0.87604252608E+01  0.87604252608E+01  0.00000000000E+00 0.  1.
         21   -1    0    0  501  503 -0.00000000000E+00 -0.00000000000E+00 -0.43833851859E+01  0.43833851859E+01  0.00000000000E+00 0.  1.
          5    1    1    2  501    0  0.36363798073E+01 -0.17557100776E+01  0.22599965331E+01  0.65957077186E+01  0.47000000000E+01 0.  1.
         -5    1    1    2    0  502 -0.36363798073E+01  0.17557100776E+01  0.21170435419E+01  0.65481027281E+01  0.47000000000E+01 0.  1.
<mgrwt>
<rscale>  2 0.61964325E+01</rscale>
<asrwt>0</asrwt>
<pdfrwt beam="1">  1       21 0.13477577E-02 0.61964325E+01</pdfrwt>
<pdfrwt beam="2">  1       21 0.67436696E-03 0.61964325E+01</pdfrwt>
<totfact> 0.37023637E+09</totfact>
</mgrwt>
</event>
<event>
 4    1  0.3964155E+006  0.1039345E+02  0.7546771E-02  0.2053264E+00
         21   -1    0    0  501  502  0.00000000000E+00  0.00000000000E+00  0.32139041088E+02  0.32139041088E+02  0.00000000000E+00 0.  1.
         21   -1    0    0  502  503 -0.00000000000E+00 -0.00000000000E+00 -0.42754507503E+01  0.42754507503E+01  0.00000000000E+00 0. -1.
          5    1    1    2  501    0  0.79968960501E+01  0.46886452294E+01  0.22351575849E+02  0.24649882017E+02  0.47000000000E+01 0.  1.
         -5    1    1    2    0  503 -0.79968960501E+01 -0.46886452294E+01  0.55120144887E+01  0.11764609821E+02  0.47000000000E+01 0. -1.
<mgrwt>
<rscale>  2 0.10393447E+02</rscale>
<asrwt>0</asrwt>
<pdfrwt beam="1">  1       21 0.49444677E-02 0.10393447E+02</pdfrwt>
<pdfrwt beam="2">  1       21 0.65776167E-03 0.10393447E+02</pdfrwt>
<totfact> 0.81274535E+08</totfact>
</mgrwt>
</event>
<event>
 4    1  0.3964155E+006  0.6978926E+01  0.7546771E-02  0.2303124E+00
         21   -1    0    0  503  502  0.00000000000E+00  0.00000000000E+00  0.18284226477E+01  0.18284226477E+01  0.00000000000E+00 0.  1.
         21   -1    0    0  501  503 -0.00000000000E+00 -0.00000000000E+00 -0.74801753460E+02  0.74801753460E+02  0.00000000000E+00 0.  1.
          5    1    1    2  501    0  0.50156324904E+01 -0.12078244258E+01 -0.67231657139E+02  0.67592907400E+02  0.47000000000E+01 0.  1.
         -5    1    1    2    0  502 -0.50156324904E+01  0.12078244258E+01 -0.57416736729E+01  0.90372687074E+01  0.47000000000E+01 0.  1.
<mgrwt>
<rscale>  2 0.69789261E+01</rscale>
<asrwt>0</asrwt>
<pdfrwt beam="1">  1       21 0.28129581E-03 0.69789261E+01</pdfrwt>
<pdfrwt beam="2">  1       21 0.11507961E-01 0.69789261E+01</pdfrwt>
<totfact> 0.57032958E+08</totfact>
</mgrwt>
</event>
<event>
 4    1  0.3964155E+006  0.7319214E+01  0.7546771E-02  0.2269967E+00
         21   -1    0    0  501  502  0.00000000000E+00  0.00000000000E+00  0.15801797543E+02  0.15801797543E+02  0.00000000000E+00 0.  1.
         21   -1    0    0  502  503 -0.00000000000E+00 -0.00000000000E+00 -0.89942717704E+01  0.89942717704E+01  0.00000000000E+00 0.  1.
          5    1    1    2  501    0 -0.38424724568E+01 -0.40885568323E+01  0.13190154175E+02  0.15084795614E+02  0.47000000000E+01 0.  1.
         -5    1    1    2    0  503  0.38424724568E+01  0.40885568323E+01 -0.63826284022E+01  0.97112736998E+01  0.47000000000E+01 0.  1.
<mgrwt>
<rscale>  2 0.73192139E+01</rscale>
<asrwt>0</asrwt>
<pdfrwt beam="1">  1       21 0.24310458E-02 0.73192139E+01</pdfrwt>
<pdfrwt beam="2">  1       21 0.13837341E-02 0.73192139E+01</pdfrwt>
<totfact> 0.64887069E+08</totfact>
</mgrwt>
</event>
<event>
 4    1  0.3964155E+006  0.4720418E+01  0.7546771E-02  0.2619277E+00
         21   -1    0    0  501  502  0.00000000000E+00  0.00000000000E+00  0.19281493106E+01  0.19281493106E+01  0.00000000000E+00 0.  1.
         21   -1    0    0  502  503 -0.00000000000E+00 -0.00000000000E+00 -0.28651262884E+02  0.28651262884E+02  0.00000000000E+00 0.  1.
          5    1    1    2  501    0 -0.40741565187E-01  0.43667311142E+00 -0.15512585859E+01  0.49687771616E+01  0.47000000000E+01 0.  1.
         -5    1    1    2    0  503  0.40741565187E-01 -0.43667311142E+00 -0.25171854987E+02  0.25610635033E+02  0.47000000000E+01 0.  1.
<mgrwt>
<rscale>  2 0.47204177E+01</rscale>
<asrwt>0</asrwt>
<pdfrwt beam="1">  1       21 0.29663834E-03 0.47204177E+01</pdfrwt>
<pdfrwt beam="2">  1       21 0.44078868E-02 0.47204177E+01</pdfrwt>
<totfact> 0.16190999E+09</totfact>
</mgrwt>
</event>
<event>
 4    1  0.3964155E+006  0.8012850E+01  0.7546771E-02  0.2209573E+00
         21   -1    0    0  503  502  0.00000000000E+00  0.00000000000E+00  0.37261974568E+01  0.37261974568E+01  0.00000000000E+00 0. -1.
         21   -1    0    0  501  503 -0.00000000000E+00 -0.00000000000E+00 -0.23469733404E+02  0.23469733404E+02  0.00000000000E+00 0. -1.
          5    1    1    2  501    0 -0.39905440635E+00  0.64773855932E+01 -0.16882627133E+02  0.18687666186E+02  0.47000000000E+01 0. -1.
         -5    1    1    2    0  502  0.39905440635E+00 -0.64773855932E+01 -0.28609088138E+01  0.85082646752E+01  0.47000000000E+01 0. -1.
<mgrwt>
<rscale>  2 0.80128502E+01</rscale>
<asrwt>0</asrwt>
<pdfrwt beam="1">  1       21 0.57326114E-03 0.80128502E+01</pdfrwt>
<pdfrwt beam="2">  1       21 0.36107283E-02 0.80128502E+01</pdfrwt>
<totfact> 0.13551174E+09</totfact>
</mgrwt>
</event>
<event>
 4    1  0.3964155E+006  0.6342505E+01  0.7546771E-02  0.2372869E+00
         21   -1    0    0  501  502  0.00000000000E+00  0.00000000000E+00  0.15716173974E+02  0.15716173974E+02  0.00000000000E+00 0. -1.
         21   -1    0    0  502  503 -0.00000000000E+00 -0.00000000000E+00 -0.30253946944E+01  0.30253946944E+01  0.00000000000E+00 0.  1.
          5    1    1    2  501    0 -0.71246052475E+00  0.41987816721E+01  0.10022230354E+02  0.11860542517E+02  0.47000000000E+01 0. -1.
         -5    1    1    2    0  503  0.71246052475E+00 -0.41987816721E+01  0.26685489256E+01  0.68810261515E+01  0.47000000000E+01 0.  1.
<mgrwt>
<rscale>  2 0.63425048E+01</rscale>
<asrwt>0</asrwt>
<pdfrwt beam="1">  1       21 0.24178729E-02 0.63425048E+01</pdfrwt>
<pdfrwt beam="2">  1       21 0.46544534E-03 0.63425048E+01</pdfrwt>
<totfact> 0.27386596E+09</totfact>
</mgrwt>
</event>
<event>
 4    1  0.3964155E+006  0.1381305E+02  0.7546771E-02  0.1906608E+00
         21   -1    0    0  501  502  0.00000000000E+00  0.00000000000E+00  0.43319769827E+01  0.43319769827E+01  0.00000000000E+00 0. -1.
         21   -1    0    0  502  503 -0.00000000000E+00 -0.00000000000E+00 -0.45325490112E+02  0.45325490112E+02  0.00000000000E+00 0.  1.
          5    1    1    2  501    0 -0.12357876222E+02 -0.39991622543E+01 -0.24670550750E+02  0.28274307733E+02  0.47000000000E+01 0.  1.
         -5    1    1    2    0  503  0.12357876222E+02  0.39991622543E+01 -0.16322962380E+02  0.21383159362E+02  0.47000000000E+01 0. -1.
<mgrwt>
<rscale>  2 0.13813052E+02</rscale>
<asrwt>0</asrwt>
<pdfrwt beam="1">  1       21 0.66645801E-03 0.13813052E+02</pdfrwt>
<pdfrwt beam="2">  1       21 0.69731522E-02 0.13813052E+02</pdfrwt>
<totfact> 0.53875833E+08</totfact>
</mgrwt>
</event>
<event>
 4    1  0.3964155E+006  0.6457821E+01  0.7546771E-02  0.2359392E+00
         21   -1    0    0  501  502  0.00000000000E+00  0.00000000000E+00  0.14194385719E+03  0.14194385719E+03  0.00000000000E+00 0.  1.
         21   -1    0    0  502  503 -0.00000000000E+00 -0.00000000000E+00 -0.57512257811E+00  0.57512257811E+00  0.00000000000E+00 0.  1.
          5    1    1    2  501    0  0.30322566919E+01 -0.32278286243E+01  0.12052262772E+03  0.12069551462E+03  0.47000000000E+01 0.  1.
         -5    1    1    2    0  503 -0.30322566919E+01  0.32278286243E+01  0.20846106896E+02  0.21823465146E+02  0.47000000000E+01 0.  1.
<mgrwt>
<rscale>  2 0.64578215E+01</rscale>
<asrwt>0</asrwt>
<pdfrwt beam="1">  1       21 0.21837489E-01 0.64578215E+01</pdfrwt>
<pdfrwt beam="2">  1       21 0.88480509E-04 0.64578215E+01</pdfrwt>
<totfact> 0.93921403E+08</totfact>
</mgrwt>
</event>
<event>
 4    1  0.3964155E+006  0.9232248E+01  0.7546771E-02  0.2121509E+00
         21   -1    0    0  503  502  0.00000000000E+00  0.00000000000E+00  0.25828050336E+02  0.25828050336E+02  0.00000000000E+00 0.  1.
         21   -1    0    0  501  503 -0.00000000000E+00 -0.00000000000E+00 -0.48813292397E+01  0.48813292397E+01  0.00000000000E+00 0.  1.
          5    1    1    2  501    0 -0.77309597258E+01 -0.18375716746E+01  0.17341268282E+01  0.93937002186E+01  0.47000000000E+01 0.  1.
         -5    1    1    2    0  502  0.77309597258E+01  0.18375716746E+01  0.19212594268E+02  0.21315679357E+02  0.47000000000E+01 0.  1.
<mgrwt>
<rscale>  2 0.92322483E+01</rscale>
<asrwt>0</asrwt>
<pdfrwt beam="1">  1       21 0.39735461E-02 0.92322483E+01</pdfrwt>
<pdfrwt beam="2">  1       21 0.75097375E-03 0.92322483E+01</pdfrwt>
<totfact> 0.87484173E+08</totfact>
</mgrwt>
</event>
<event>
 4    1  0.3964155E+006  0.5723047E+01  0.7546771E-02  0.2452926E+00
         21   -1    0    0  503  502  0.00000000000E+00  0.00000000000E+00  0.94009171126E+02  0.94009171126E+02  0.00000000000E+00 0.  1.
         21   -1    0    0  501  503 -0.00000000000E+00 -0.00000000000E+00 -0.86725278613E+00  0.86725278613E+00  0.00000000000E+00 0.  1.
          5    1    1    2  501    0 -0.11084328186E+01  0.30715864736E+01  0.98786168485E+01  0.11416669287E+02  0.47000000000E+01 0.  1.
         -5    1    1    2    0  502  0.11084328186E+01 -0.30715864736E+01  0.83263301492E+02  0.83459754625E+02  0.47000000000E+01 0.  1.
<mgrwt>
<rscale>  2 0.57230470E+01</rscale>
<asrwt>0</asrwt>
<pdfrwt beam="1">  1       21 0.14462941E-01 0.57230470E+01</pdfrwt>
<pdfrwt beam="2">  1       21 0.13342358E-03 0.57230470E+01</pdfrwt>
<totfact> 0.95229446E+08</totfact>
</mgrwt>
</event>
<event>
 4    1  0.3964155E+006  0.6011942E+01  0.7546771E-02  0.2413872E+00
         21   -1    0    0  503  502  0.00000000000E+00  0.00000000000E+00  0.50527705658E+00  0.50527705658E+00  0.00000000000E+00 0. -1.
         21   -1    0    0  501  503 -0.00000000000E+00 -0.00000000000E+00 -0.72388367165E+02  0.72388367165E+02  0.00000000000E+00 0.  1.
          5    1    1    2  501    0 -0.21020814949E+01 -0.31039810388E+01 -0.39905896028E+02  0.40356213682E+02  0.47000000000E+01 0. -1.
         -5    1    1    2    0  502  0.21020814949E+01  0.31039810388E+01 -0.31977194080E+02  0.32537430540E+02  0.47000000000E+01 0. -1.
<mgrwt>
<rscale>  2 0.60119419E+01</rscale>
<asrwt>0</asrwt>
<pdfrwt beam="1">  1       21 0.77734917E-04 0.60119419E+01</pdfrwt>
<pdfrwt beam="2">  1       21 0.11136674E-01 0.60119419E+01</pdfrwt>
<totfact> 0.30773009E+09</totfact>
</mgrwt>
</event>
<event>
 4    1  0.3964155E+006  0.6641951E+01  0.7546771E-02  0.2338679E+00
         21   -1    0    0  503  502  0.00000000000E+00  0.00000000000E+00  0.12313755040E+03  0.12313755040E+03  0.00000000000E+00 0. -1.
         21   -1    0    0  501  503 -0.00000000000E+00 -0.00000000000E+00 -0.36041953504E+00  0.36041953504E+00  0.00000000000E+00 0.  1.
          5    1    1    2  501    0  0.22967963396E+01 -0.40927062757E+01  0.66165991361E+02  0.66498525779E+02  0.47000000000E+01 0. -1.
         -5    1    1    2    0  502 -0.22967963396E+01  0.40927062757E+01  0.56611139505E+02  0.56999444157E+02  0.47000000000E+01 0.  1.
<mgrwt>
<rscale>  2 0.66419514E+01</rscale>
<asrwt>0</asrwt>
<pdfrwt beam="1">  1       21 0.18944205E-01 0.66419514E+01</pdfrwt>
<pdfrwt beam="2">  1       21 0.55449257E-04 0.66419514E+01</pdfrwt>
<totfact> 0.22671106E+09</totfact>
</mgrwt>
</event>
<event>
 4    1  0.3964155E+006  0.2291213E+02  0.7546771E-02  0.1692938E+00
         21   -1    0    0  501  502  0.00000000000E+00  0.00000000000E+00  0.84648315432E+02  0.84648315432E+02  0.00000000000E+00 0.  1.
         21   -1    0    0  502  503 -0.00000000000E+00 -0.00000000000E+00 -0.65999246890E+01  0.65999246890E+01  0.00000000000E+00 0. -1.
          5    1    1    2  501    0 -0.70500899363E+01  0.21287837272E+02  0.27817588990E+02  0.36038646493E+02  0.47000000000E+01 0. -1.
         -5    1    1    2    0  503  0.70500899363E+01 -0.21287837272E+02  0.50230801753E+02  0.55209593628E+02  0.47000000000E+01 0.  1.
<mgrwt>
<rscale>  2 0.22912132E+02</rscale>
<asrwt>0</asrwt>
<pdfrwt beam="1">  1       21 0.13022817E-01 0.22912132E+02</pdfrwt>
<pdfrwt beam="2">  1       21 0.10153731E-02 0.22912132E+02</pdfrwt>
<totfact> 0.12541120E+08</totfact>
</mgrwt>
</event>
<event>
 4    1  0.3964155E+006  0.1505885E+02  0.7546771E-02  0.1866278E+00
         21   -1    0    0  501  502  0.00000000000E+00  0.00000000000E+00  0.13321586311E+02  0.13321586311E+02  0.00000000000E+00 0. -1.
         21   -1    0    0  502  503 -0.00000000000E+00 -0.00000000000E+00 -0.19500028957E+02  0.19500028957E+02  0.00000000000E+00 0. -1.
          5    1    1    2  501    0  0.14257233002E+02  0.11874927769E+01 -0.89385724015E+01  0.17511907621E+02  0.47000000000E+01 0. -1.
         -5    1    1    2    0  503 -0.14257233002E+02 -0.11874927769E+01  0.27601297560E+01  0.15309707647E+02  0.47000000000E+01 0. -1.
<mgrwt>
<rscale>  2 0.15058846E+02</rscale>
<asrwt>0</asrwt>
<pdfrwt beam="1">  1       21 0.20494748E-02 0.15058846E+02</pdfrwt>
<pdfrwt beam="2">  1       21 0.30000045E-02 0.15058846E+02</pdfrwt>
<totfact> 0.39264370E+08</totfact>
</mgrwt>
</event>
<event>
 4    1  0.3964155E+006  0.6219204E+01  0.7546771E-02  0.2387738E+00
         21   -1    0    0  501  502  0.00000000000E+00  0.00000000000E+00  0.17997144216E+03  0.17997144216E+03  0.00000000000E+00 0. -1.
         21   -1    0    0  502  503 -0.00000000000E+00 -0.00000000000E+00 -0.22862519274E+00  0.22862519274E+00  0.00000000000E+00 0. -1.
          5    1    1    2  501    0  0.39852099739E+01 -0.84059221126E+00  0.11193573806E+03  0.11210837591E+03  0.47000000000E+01 0. -1.
         -5    1    1    2    0  503 -0.39852099739E+01  0.84059221126E+00  0.67807078903E+02  0.68091691440E+02  0.47000000000E+01 0. -1.
<mgrwt>
<rscale>  2 0.62192036E+01</rscale>
<asrwt>0</asrwt>
<pdfrwt beam="1">  1       21 0.27687801E-01 0.62192036E+01</pdfrwt>
<pdfrwt beam="2">  1       21 0.35173250E-04 0.62192036E+01</pdfrwt>
<totfact> 0.21248642E+09</totfact>
</mgrwt>
</event>
<event>
 4    1  0.3964155E+006  0.6217272E+01  0.7546771E-02  0.2387975E+00
         21   -1    0    0  501  502  0.00000000000E+00  0.00000000000E+00  0.57801031144E+00  0.57801031144E+00  0.00000000000E+00 0.  1.
         21   -1    0    0  502  503 -0.00000000000E+00 -0.00000000000E+00 -0.15926408317E+03  0.15926408317E+03  0.00000000000E+00 0. -1.
          5    1    1    2  501    0 -0.89269278243E+00 -0.39708394811E+01 -0.18471752921E+02  0.19490000579E+02  0.47000000000E+01 0.  1.
         -5    1    1    2    0  503  0.89269278243E+00  0.39708394811E+01 -0.14021431993E+03  0.14035209290E+03  0.47000000000E+01 0. -1.
<mgrwt>
<rscale>  2 0.62172716E+01</rscale>
<asrwt>0</asrwt>
<pdfrwt beam="1">  1       21 0.88924628E-04 0.62172716E+01</pdfrwt>
<pdfrwt beam="2">  1       21 0.24502176E-01 0.62172716E+01</pdfrwt>
<totfact> 0.75079595E+08</totfact>
</mgrwt>
</event>
<event>
 4    1  0.3964155E+006  0.5037853E+01  0.7546771E-02  0.2560482E+00
         21   -1    0    0  501  502  0.00000000000E+00  0.00000000000E+00  0.11626606923E+01  0.11626606923E+01  0.00000000000E+00 0. -1.
         21   -1    0    0  502  503 -0.00000000000E+00 -0.00000000000E+00 -0.23936428135E+02  0.23936428135E+02  0.00000000000E+00 0. -1.
          5    1    1    2  501    0 -0.17987942074E+01  0.23303303097E+00 -0.76633697840E+01  0.91709978432E+01  0.47000000000E+01 0. -1.
         -5    1    1    2    0  503  0.17987942074E+01 -0.23303303097E+00 -0.15110397658E+02  0.15928090984E+02  0.47000000000E+01 0. -1.
<mgrwt>
<rscale>  2 0.50378532E+01</rscale>
<asrwt>0</asrwt>
<pdfrwt beam="1">  1       21 0.17887088E-03 0.50378532E+01</pdfrwt>
<pdfrwt beam="2">  1       21 0.36825272E-02 0.50378532E+01</pdfrwt>
<totfact> 0.44384176E+09</totfact>
</mgrwt>
</event>
<event>
 4    1  0.3964155E+006  0.5058103E+01  0.7546771E-02  0.2556949E+00
         21   -1    0    0  503  502  0.00000000000E+00  0.00000000000E+00  0.42734074160E+00  0.42734074160E+00  0.00000000000E+00 0.  1.
         21   -1    0    0  501  503 -0.00000000000E+00 -0.00000000000E+00 -0.95884123461E+02  0.95884123461E+02  0.00000000000E+00 0.  1.
          5    1    1    2  501    0 -0.70544939507E+00 -0.17311109267E+01 -0.77241701692E+02  0.77407137166E+02  0.47000000000E+01 0.  1.
         -5    1    1    2    0  502  0.70544939507E+00  0.17311109267E+01 -0.18215081028E+02  0.18904327037E+02  0.47000000000E+01 0.  1.
<mgrwt>
<rscale>  2 0.50581028E+01</rscale>
<asrwt>0</asrwt>
<pdfrwt beam="1">  1       21 0.65744652E-04 0.50581028E+01</pdfrwt>
<pdfrwt beam="2">  1       21 0.14751421E-01 0.50581028E+01</pdfrwt>
<totfact> 0.21309200E+09</totfact>
</mgrwt>
</event>
<event>
 4    1  0.3964155E+006  0.5472275E+01  0.7546771E-02  0.2489626E+00
         21   -1    0    0  501  502  0.00000000000E+00  0.00000000000E+00  0.28725954175E+01  0.28725954175E+01  0.00000000000E+00 0.  1.
         21   -1    0    0  502  503 -0.00000000000E+00 -0.00000000000E+00 -0.10949949838E+02  0.10949949838E+02  0.00000000000E+00 0. -1.
          5    1    1    2  501    0 -0.11999392499E+01 -0.25329698633E+01 -0.25249165389E+01  0.60266901414E+01  0.47000000000E+01 0.  1.
         -5    1    1    2    0  503  0.11999392499E+01  0.25329698633E+01 -0.55524378818E+01  0.77958551143E+01  0.47000000000E+01 0. -1.
<mgrwt>
<rscale>  2 0.54722747E+01</rscale>
<asrwt>0</asrwt>
<pdfrwt beam="1">  1       21 0.44193776E-03 0.54722747E+01</pdfrwt>
<pdfrwt beam="2">  1       21 0.16846076E-02 0.54722747E+01</pdfrwt>
<totfact> 0.43244890E+09</totfact>
</mgrwt>
</event>
<event>
 4    1  0.3964155E+006  0.4974822E+01  0.7546771E-02  0.2571640E+00
         21   -1    0    0  503  502  0.00000000000E+00  0.00000000000E+00  0.74454588433E+03  0.74454588433E+03  0.00000000000E+00 0.  1.
         21   -1    0    0  501  503 -0.00000000000E+00 -0.00000000000E+00 -0.85725043735E-01  0.85725043735E-01  0.00000000000E+00 0. -1.
          5    1    1    2  501    0  0.10218323591E+01 -0.12707137320E+01  0.80907219434E+02  0.81060021042E+02  0.47000000000E+01 0. -1.
         -5    1    1    2    0  502 -0.10218323591E+01  0.12707137320E+01  0.66355293986E+03  0.66357158834E+03  0.47000000000E+01 0.  1.
<mgrwt>
<rscale>  2 0.49748221E+01</rscale>
<asrwt>0</asrwt>
<pdfrwt beam="1">  1       21 0.11454034E+00 0.49748221E+01</pdfrwt>
<pdfrwt beam="2">  1       21 0.13189065E-04 0.49748221E+01</pdfrwt>
<totfact> 0.48661506E+08</totfact>
</mgrwt>
</event>
<event>
 4    1  0.3964155E+006  0.5089483E+01  0.7546771E-02  0.2551520E+00
         21   -1    0    0  503  502  0.00000000000E+00  0.00000000000E+00  0.11015527842E+03  0.11015527842E+03  0.00000000000E+00 0. -1.
         21   -1    0    0  501  503 -0.00000000000E+00 -0.00000000000E+00 -0.23909865286E+00  0.23909865286E+00  0.00000000000E+00 0. -1.
          5    1    1    2  501    0  0.19454606469E+01  0.16738999823E+00  0.62052908651E+02  0.62261274550E+02  0.47000000000E+01 0. -1.
         -5    1    1    2    0  502 -0.19454606469E+01 -0.16738999823E+00  0.47863271116E+02  0.48133102523E+02  0.47000000000E+01 0. -1.
<mgrwt>
<rscale>  2 0.50894829E+01</rscale>
<asrwt>0</asrwt>
<pdfrwt beam="1">  1       21 0.16946925E-01 0.50894829E+01</pdfrwt>
<pdfrwt beam="2">  1       21 0.36784496E-04 0.50894829E+01</pdfrwt>
<totfact> 0.37268848E+09</totfact>
</mgrwt>
</event>
<event>
 4    1  0.3964155E+006  0.6999251E+01  0.7546771E-02  0.2301069E+00
         21   -1    0    0  503  502  0.00000000000E+00  0.00000000000E+00  0.18420160552E+01  0.18420160552E+01  0.00000000000E+00 0.  1.
         21   -1    0    0  501  503 -0.00000000000E+00 -0.00000000000E+00 -0.58891839095E+02  0.58891839095E+02  0.00000000000E+00 0.  1.
          5    1    1    2  501    0  0.19046742585E+01  0.48240784414E+01 -0.51012831674E+02  0.51490761426E+02  0.47000000000E+01 0.  1.
         -5    1    1    2    0  502 -0.19046742585E+01 -0.48240784414E+01 -0.60369913656E+01  0.92430937239E+01  0.47000000000E+01 0.  1.
<mgrwt>
<rscale>  2 0.69992512E+01</rscale>
<asrwt>0</asrwt>
<pdfrwt beam="1">  1       21 0.28338713E-03 0.69992512E+01</pdfrwt>
<pdfrwt beam="2">  1       21 0.90602816E-02 0.69992512E+01</pdfrwt>
<totfact> 0.82027071E+08</totfact>
</mgrwt>
</event>
<event>
 4    1  0.3964155E+006  0.6408842E+01  0.7546771E-02  0.2365067E+00
         21   -1    0    0  503  502  0.00000000000E+00  0.00000000000E+00  0.72858815534E+01  0.72858815534E+01  0.00000000000E+00 0. -1.
         21   -1    0    0  501  503 -0.00000000000E+00 -0.00000000000E+00 -0.20088979774E+02  0.20088979774E+02  0.00000000000E+00 0.  1.
          5    1    1    2  501    0 -0.10831196841E+01  0.42202019611E+01 -0.18010714979E+02  0.19116984776E+02  0.47000000000E+01 0.  1.
         -5    1    1    2    0  502  0.10831196841E+01 -0.42202019611E+01  0.52076167587E+01  0.82578765520E+01  0.47000000000E+01 0. -1.
<mgrwt>
<rscale>  2 0.64088418E+01</rscale>
<asrwt>0</asrwt>
<pdfrwt beam="1">  1       21 0.11209049E-02 0.64088418E+01</pdfrwt>
<pdfrwt beam="2">  1       21 0.30906123E-02 0.64088418E+01</pdfrwt>
<totfact> 0.56158254E+08</totfact>
</mgrwt>
</event>
<event>
 4    1  0.3964155E+006  0.5635879E+01  0.7546771E-02  0.2465369E+00
         21   -1    0    0  501  502  0.00000000000E+00  0.00000000000E+00  0.48363006062E+02  0.48363006062E+02  0.00000000000E+00 0. -1.
         21   -1    0    0  502  503 -0.00000000000E+00 -0.00000000000E+00 -0.10928003134E+01  0.10928003134E+01  0.00000000000E+00 0.  1.
          5    1    1    2  501    0 -0.30631771934E+01  0.53858769958E+00  0.39254983191E+02  0.39657494078E+02  0.47000000000E+01 0.  1.
         -5    1    1    2    0  503  0.30631771934E+01 -0.53858769958E+00  0.80152225572E+01  0.97983122970E+01  0.47000000000E+01 0.  1.
<mgrwt>
<rscale>  2 0.56358789E+01</rscale>
<asrwt>0</asrwt>
<pdfrwt beam="1">  1       21 0.74404608E-02 0.56358789E+01</pdfrwt>
<pdfrwt beam="2">  1       21 0.16812316E-03 0.56358789E+01</pdfrwt>
<totfact> 0.19069128E+09</totfact>
</mgrwt>
</event>
<event>
 4    1  0.3964155E+006  0.5836630E+01  0.7546771E-02  0.2437184E+00
         21   -1    0    0  503  502  0.00000000000E+00  0.00000000000E+00  0.21605239652E+00  0.21605239652E+00  0.00000000000E+00 0. -1.
         21   -1    0    0  501  503 -0.00000000000E+00 -0.00000000000E+00 -0.10094945540E+04  0.10094945540E+04  0.00000000000E+00 0. -1.
          5    1    1    2  501    0 -0.14352282585E+01 -0.31490262607E+01 -0.96839415667E+03  0.96841174555E+03  0.47000000000E+01 0. -1.
         -5    1    1    2    0  502  0.14352282585E+01  0.31490262607E+01 -0.40884344888E+02  0.41298860801E+02  0.47000000000E+01 0. -1.
<mgrwt>
<rscale>  2 0.58366297E+01</rscale>
<asrwt>0</asrwt>
<pdfrwt beam="1">  1       21 0.33238516E-04 0.58366297E+01</pdfrwt>
<pdfrwt beam="2">  1       21 0.15530832E+00 0.58366297E+01</pdfrwt>
<totfact> 0.83666350E+07</totfact>
</mgrwt>
</event>
<event>
 4    1  0.3964155E+006  0.6922951E+01  0.7546771E-02  0.2308832E+00
         21   -1    0    0  501  502  0.00000000000E+00  0.00000000000E+00  0.61062508475E+00  0.61062508475E+00  0.00000000000E+00 0. -1.
         21   -1    0    0  502  503 -0.00000000000E+00 -0.00000000000E+00 -0.90075962692E+02  0.90075962692E+02  0.00000000000E+00 0. -1.
          5    1    1    2  501    0 -0.35048440752E+01  0.36814823287E+01 -0.28469815938E+02  0.29299448180E+02  0.47000000000E+01 0. -1.
         -5    1    1    2    0  503  0.35048440752E+01 -0.36814823287E+01 -0.60995521669E+02  0.61387139596E+02  0.47000000000E+01 0. -1.
<mgrwt>
<rscale>  2 0.69229505E+01</rscale>
<asrwt>0</asrwt>
<pdfrwt beam="1">  1       21 0.93942305E-04 0.69229505E+01</pdfrwt>
<pdfrwt beam="2">  1       21 0.13857843E-01 0.69229505E+01</pdfrwt>
<totfact> 0.18955964E+09</totfact>
</mgrwt>
</event>
<event>
 4    1  0.3964155E+006  0.8781061E+01  0.7546771E-02  0.2151812E+00
         21   -1    0    0  503  502  0.00000000000E+00  0.00000000000E+00  0.18834149380E+02  0.18834149380E+02  0.00000000000E+00 0. -1.
         21   -1    0    0  501  503 -0.00000000000E+00 -0.00000000000E+00 -0.70535580819E+01  0.70535580819E+01  0.00000000000E+00 0. -1.
          5    1    1    2  501    0 -0.25469420993E+01 -0.69663563232E+01 -0.24941200431E+01  0.91283990528E+01  0.47000000000E+01 0. -1.
         -5    1    1    2    0  502  0.25469420993E+01  0.69663563232E+01  0.14274711341E+02  0.16759308409E+02  0.47000000000E+01 0. -1.
<mgrwt>
<rscale>  2 0.87810611E+01</rscale>
<asrwt>0</asrwt>
<pdfrwt beam="1">  1       21 0.28975614E-02 0.87810611E+01</pdfrwt>
<pdfrwt beam="2">  1       21 0.10851628E-02 0.87810611E+01</pdfrwt>
<totfact> 0.80114851E+08</totfact>
</mgrwt>
</event>
<event>
 4    1  0.3964155E+006  0.8086340E+01  0.7546771E-02  0.2203668E+00
         21   -1    0    0  503  502  0.00000000000E+00  0.00000000000E+00  0.11519720220E+02  0.11519720220E+02  0.00000000000E+00 0.  1.
         21   -1    0    0  501  503 -0.00000000000E+00 -0.00000000000E+00 -0.56838215044E+01  0.56838215044E+01  0.00000000000E+00 0. -1.
          5    1    1    2  501    0 -0.41457766845E+01  0.51099351107E+01  0.32317374192E+01  0.87082161147E+01  0.47000000000E+01 0.  1.
         -5    1    1    2    0  502  0.41457766845E+01 -0.51099351107E+01  0.26041612960E+01  0.84953256094E+01  0.47000000000E+01 0. -1.
<mgrwt>
<rscale>  2 0.80863404E+01</rscale>
<asrwt>0</asrwt>
<pdfrwt beam="1">  1       21 0.17722646E-02 0.80863404E+01</pdfrwt>
<pdfrwt beam="2">  1       21 0.87443408E-03 0.80863404E+01</pdfrwt>
<totfact> 0.21336345E+09</totfact>
</mgrwt>
</event>
<event>
 4    1  0.3964155E+006  0.8528785E+01  0.7546771E-02  0.2169860E+00
         21   -1    0    0  501  502  0.00000000000E+00  0.00000000000E+00  0.39040394667E+02  0.39040394667E+02  0.00000000000E+00 0. -1.
         21   -1    0    0  502  503 -0.00000000000E+00 -0.00000000000E+00 -0.20353571865E+01  0.20353571865E+01  0.00000000000E+00 0.  1.
          5    1    1    2  501    0 -0.14483265711E+01  0.69679635019E+01  0.24475545978E+02  0.25918960553E+02  0.47000000000E+01 0.  1.
         -5    1    1    2    0  503  0.14483265711E+01 -0.69679635019E+01  0.12529491503E+02  0.15156791301E+02  0.47000000000E+01 0. -1.
<mgrwt>
<rscale>  2 0.85287845E+01</rscale>
<asrwt>0</asrwt>
<pdfrwt beam="1">  1       21 0.60062140E-02 0.85287845E+01</pdfrwt>
<pdfrwt beam="2">  1       21 0.31313190E-03 0.85287845E+01</pdfrwt>
<totfact> 0.15353355E+09</totfact>
</mgrwt>
</event>
<event>
 4    1  0.3964155E+006  0.6242441E+01  0.7546771E-02  0.2384899E+00
         21   -1    0    0  503  502  0.00000000000E+00  0.00000000000E+00  0.15276089187E+00  0.15276089187E+00  0.00000000000E+00 0. -1.
         21   -1    0    0  501  503 -0.00000000000E+00 -0.00000000000E+00 -0.26357797451E+03  0.26357797451E+03  0.00000000000E+00 0. -1.
          5    1    1    2  501    0 -0.23620515752E+01 -0.33613658004E+01 -0.10805181059E+03  0.10823198159E+03  0.47000000000E+01 0. -1.
         -5    1    1    2    0  502  0.23620515752E+01  0.33613658004E+01 -0.15537340303E+03  0.15549875381E+03  0.47000000000E+01 0. -1.
<mgrwt>
<rscale>  2 0.62424408E+01</rscale>
<asrwt>0</asrwt>
<pdfrwt beam="1">  1       21 0.23501610E-04 0.62424408E+01</pdfrwt>
<pdfrwt beam="2">  1       21 0.40550571E-01 0.62424408E+01</pdfrwt>
<totfact> 0.19014293E+09</totfact>
</mgrwt>
</event>
<event>
 4    1  0.3964155E+006  0.4887451E+01  0.7546771E-02  0.2587515E+00
         21   -1    0    0  503  502  0.00000000000E+00  0.00000000000E+00  0.60834206266E+03  0.60834206266E+03  0.00000000000E+00 0. -1.
         21   -1    0    0  501  503 -0.00000000000E+00 -0.00000000000E+00 -0.43894238497E-01  0.43894238497E-01  0.00000000000E+00 0. -1.
          5    1    1    2  501    0 -0.19084106949E+00  0.13269366596E+01  0.20537304418E+03  0.20543119154E+03  0.47000000000E+01 0. -1.
         -5    1    1    2    0  502  0.19084106949E+00 -0.13269366596E+01  0.40292512424E+03  0.40295476536E+03  0.47000000000E+01 0. -1.
<mgrwt>
<rscale>  2 0.48874514E+01</rscale>
<asrwt>0</asrwt>
<pdfrwt beam="1">  1       21 0.93584335E-01 0.48874514E+01</pdfrwt>
<pdfrwt beam="2">  1       21 0.67534470E-05 0.48874514E+01</pdfrwt>
<totfact> 0.17500267E+09</totfact>
</mgrwt>
</event>
<event>
 4    1  0.3964155E+006  0.5052449E+01  0.7546771E-02  0.2557933E+00
         21   -1    0    0  503  502  0.00000000000E+00  0.00000000000E+00  0.40200247044E+02  0.40200247044E+02  0.00000000000E+00 0.  1.
         21   -1    0    0  501  503 -0.00000000000E+00 -0.00000000000E+00 -0.75369968542E+00  0.75369968542E+00  0.00000000000E+00 0. -1.
          5    1    1    2  501    0 -0.18198136066E+01 -0.35428716834E+00  0.11597072764E+02  0.12649875005E+02  0.47000000000E+01 0.  1.
         -5    1    1    2    0  502  0.18198136066E+01  0.35428716834E+00  0.27849474595E+02  0.28304071724E+02  0.47000000000E+01 0. -1.
<mgrwt>
<rscale>  2 0.50524490E+01</rscale>
<asrwt>0</asrwt>
<pdfrwt beam="1">  1       21 0.61846517E-02 0.50524490E+01</pdfrwt>
<pdfrwt beam="2">  1       21 0.11595383E-03 0.50524490E+01</pdfrwt>
<totfact> 0.37276486E+09</totfact>
</mgrwt>
</event>
<event>
 4    1  0.3964155E+006  0.5900923E+01  0.7546771E-02  0.2428500E+00
         21   -1    0    0  503  502  0.00000000000E+00  0.00000000000E+00  0.10196316490E+03  0.10196316490E+03  0.00000000000E+00 0.  1.
         21   -1    0    0  501  503 -0.00000000000E+00 -0.00000000000E+00 -0.48293621775E+00  0.48293621775E+00  0.00000000000E+00 0. -1.
          5    1    1    2  501    0  0.19197172085E+01 -0.30075870812E+01  0.78460147128E+02  0.78681736010E+02  0.47000000000E+01 0.  1.
         -5    1    1    2    0  502 -0.19197172085E+01  0.30075870812E+01  0.23020081558E+02  0.23764365111E+02  0.47000000000E+01 0. -1.
<mgrwt>
<rscale>  2 0.59009232E+01</rscale>
<asrwt>0</asrwt>
<pdfrwt beam="1">  1       21 0.15686624E-01 0.59009232E+01</pdfrwt>
<pdfrwt beam="2">  1       21 0.74297961E-04 0.59009232E+01</pdfrwt>
<totfact> 0.18846287E+09</totfact>
</mgrwt>
</event>
<event>
 4    1  0.3964155E+006  0.7577677E+01  0.7546771E-02  0.2246417E+00
         21   -1    0    0  503  502  0.00000000000E+00  0.00000000000E+00  0.16516537433E+03  0.16516537433E+03  0.00000000000E+00 0.  1.
         21   -1    0    0  501  503 -0.00000000000E+00 -0.00000000000E+00 -0.13222526509E+01  0.13222526509E+01  0.00000000000E+00 0.  1.
          5    1    1    2  501    0 -0.43351661032E+01 -0.40666350363E+01  0.10454389767E+02  0.12911833761E+02  0.47000000000E+01 0.  1.
         -5    1    1    2    0  502  0.43351661032E+01  0.40666350363E+01  0.15338873191E+03  0.15357579322E+03  0.47000000000E+01 0.  1.
<mgrwt>
<rscale>  2 0.75776768E+01</rscale>
<asrwt>0</asrwt>
<pdfrwt beam="1">  1       21 0.25410041E-01 0.75776768E+01</pdfrwt>
<pdfrwt beam="2">  1       21 0.20342362E-03 0.75776768E+01</pdfrwt>
<totfact> 0.26077141E+08</totfact>
</mgrwt>
</event>
<event>
 4    1  0.3964155E+006  0.7316769E+01  0.7546771E-02  0.2270196E+00
         21   -1    0    0  501  502  0.00000000000E+00  0.00000000000E+00  0.92887582473E+01  0.92887582473E+01  0.00000000000E+00 0.  1.
         21   -1    0    0  502  503 -0.00000000000E+00 -0.00000000000E+00 -0.58095791588E+01  0.58095791588E+01  0.00000000000E+00 0.  1.
          5    1    1    2  501    0 -0.42888700525E+01  0.36125762801E+01  0.24124201986E+01  0.77042121545E+01  0.47000000000E+01 0.  1.
         -5    1    1    2    0  503  0.42888700525E+01 -0.36125762801E+01  0.10667588899E+01  0.73941252516E+01  0.47000000000E+01 0.  1.
<mgrwt>
<rscale>  2 0.73167693E+01</rscale>
<asrwt>0</asrwt>
<pdfrwt beam="1">  1       21 0.14290397E-02 0.73167693E+01</pdfrwt>
<pdfrwt beam="2">  1       21 0.89378141E-03 0.73167693E+01</pdfrwt>
<totfact> 0.26224562E+09</totfact>
</mgrwt>
</event>
<event>
 4    1  0.3964155E+006  0.1317364E+02  0.7546771E-02  0.1929521E+00
         21   -1    0    0  503  502  0.00000000000E+00  0.00000000000E+00  0.59742396414E+02  0.59742396414E+02  0.00000000000E+00 0. -1.
         21   -1    0    0  501  503 -0.00000000000E+00 -0.00000000000E+00 -0.29387438001E+01  0.29387438001E+01  0.00000000000E+00 0.  1.
          5    1    1    2  501    0  0.52093150543E+01  0.11149796022E+02  0.31765768749E+02  0.34389082263E+02  0.47000000000E+01 0.  1.
         -5    1    1    2    0  502 -0.52093150543E+01 -0.11149796022E+02  0.25037883865E+02  0.28292057951E+02  0.47000000000E+01 0.  1.
<mgrwt>
<rscale>  2 0.13173645E+02</rscale>
<asrwt>0</asrwt>
<pdfrwt beam="1">  1       21 0.91911370E-02 0.13173645E+02</pdfrwt>
<pdfrwt beam="2">  1       21 0.45211448E-03 0.13173645E+02</pdfrwt>
<totfact> 0.59560724E+08</totfact>
</mgrwt>
</event>
<event>
 4    1  0.3964155E+006  0.5168634E+01  0.7546771E-02  0.2538081E+00
         21   -1    0    0  501  502  0.00000000000E+00  0.00000000000E+00  0.35762916210E+00  0.35762916210E+00  0.00000000000E+00 0. -1.
         21   -1    0    0  502  503 -0.00000000000E+00 -0.00000000000E+00 -0.79406356231E+02  0.79406356231E+02  0.00000000000E+00 0. -1.
          5    1    1    2  501    0  0.12982600668E+01  0.17144376314E+01 -0.49234100349E+02  0.49504660516E+02  0.47000000000E+01 0.  1.
         -5    1    1    2    0  503 -0.12982600668E+01 -0.17144376314E+01 -0.29814626719E+02  0.30259324877E+02  0.47000000000E+01 0.  1.
<mgrwt>
<rscale>  2 0.51686338E+01</rscale>
<asrwt>0</asrwt>
<pdfrwt beam="1">  1       21 0.55019798E-04 0.51686338E+01</pdfrwt>
<pdfrwt beam="2">  1       21 0.12216379E-01 0.51686338E+01</pdfrwt>
<totfact> 0.36872557E+09</totfact>
</mgrwt>
</event>
<event>
 4    1  0.3964155E+006  0.4791005E+01  0.7546771E-02  0.2605620E+00
         21   -1    0    0  501  502  0.00000000000E+00  0.00000000000E+00  0.16308293201E+02  0.16308293201E+02  0.00000000000E+00 0. -1.
         21   -1    0    0  502  503 -0.00000000000E+00 -0.00000000000E+00 -0.14080971411E+01  0.14080971411E+01  0.00000000000E+00 0. -1.
          5    1    1    2  501    0 -0.80347953694E+00 -0.46706930961E+00  0.76342828972E+01  0.90131020443E+01  0.47000000000E+01 0. -1.
         -5    1    1    2    0  503  0.80347953694E+00  0.46706930961E+00  0.72659131626E+01  0.87032882977E+01  0.47000000000E+01 0. -1.
<mgrwt>
<rscale>  2 0.47910054E+01</rscale>
<asrwt>0</asrwt>
<pdfrwt beam="1">  1       21 0.25089680E-02 0.47910054E+01</pdfrwt>
<pdfrwt beam="2">  1       21 0.21663034E-03 0.47910054E+01</pdfrwt>
<totfact> 0.56385561E+09</totfact>
</mgrwt>
</event>
<event>
 4    1  0.3964155E+006  0.6326137E+01  0.7546771E-02  0.2374815E+00
         21   -1    0    0  501  502  0.00000000000E+00  0.00000000000E+00  0.14560485564E+02  0.14560485564E+02  0.00000000000E+00 0. -1.
         21   -1    0    0  502  503 -0.00000000000E+00 -0.00000000000E+00 -0.44251936617E+01  0.44251936617E+01  0.00000000000E+00 0. -1.
          5    1    1    2  501    0  0.34724239144E+01  0.24232792434E+01  0.10910866490E+02  0.12612177357E+02  0.47000000000E+01 0. -1.
         -5    1    1    2    0  503 -0.34724239144E+01 -0.24232792434E+01 -0.77557458703E+00  0.63735018689E+01  0.47000000000E+01 0. -1.
<mgrwt>
<rscale>  2 0.63261371E+01</rscale>
<asrwt>0</asrwt>
<pdfrwt beam="1">  1       21 0.22400747E-02 0.63261371E+01</pdfrwt>
<pdfrwt beam="2">  1       21 0.68079903E-03 0.63261371E+01</pdfrwt>
<totfact> 0.17941549E+09</totfact>
</mgrwt>
</event>
<event>
 4    1  0.3964155E+006  0.5564320E+01  0.7546771E-02  0.2475830E+00
         21   -1    0    0  503  502  0.00000000000E+00  0.00000000000E+00  0.16294125203E+01  0.16294125203E+01  0.00000000000E+00 0.  1.
         21   -1    0    0  501  503 -0.00000000000E+00 -0.00000000000E+00 -0.19550436442E+02  0.19550436442E+02  0.00000000000E+00 0.  1.
          5    1    1    2  501    0 -0.77695775849E+00  0.28754110643E+01 -0.10734643379E+02  0.12091080209E+02  0.47000000000E+01 0. -1.
         -5    1    1    2    0  502  0.77695775849E+00 -0.28754110643E+01 -0.71863805432E+01  0.90887687537E+01  0.47000000000E+01 0. -1.
<mgrwt>
<rscale>  2 0.55643196E+01</rscale>
<asrwt>0</asrwt>
<pdfrwt beam="1">  1       21 0.25067886E-03 0.55643196E+01</pdfrwt>
<pdfrwt beam="2">  1       21 0.30077593E-02 0.55643196E+01</pdfrwt>
<totfact> 0.41617845E+09</totfact>
</mgrwt>
</event>
<event>
 4    1  0.3964155E+006  0.5636467E+01  0.7546771E-02  0.2465284E+00
         21   -1    0    0  501  502  0.00000000000E+00  0.00000000000E+00  0.52014841141E+01  0.52014841141E+01  0.00000000000E+00 0. -1.
         21   -1    0    0  502  503 -0.00000000000E+00 -0.00000000000E+00 -0.31497015120E+02  0.31497015120E+02  0.00000000000E+00 0.  1.
          5    1    1    2  501    0 -0.26222147084E+00 -0.31001621140E+01  0.33265741563E+01  0.65449110651E+01  0.47000000000E+01 0. -1.
         -5    1    1    2    0  503  0.26222147084E+00  0.31001621140E+01 -0.29622105162E+02  0.30153588169E+02  0.47000000000E+01 0.  1.
<mgrwt>
<rscale>  2 0.56364674E+01</rscale>
<asrwt>0</asrwt>
<pdfrwt beam="1">  1       21 0.80022832E-03 0.56364674E+01</pdfrwt>
<pdfrwt beam="2">  1       21 0.48456947E-02 0.56364674E+01</pdfrwt>
<totfact> 0.42284325E+08</totfact>
</mgrwt>
</event>
<event>
 4    1  0.3964155E+006  0.1114786E+02  0.7546771E-02  0.2015001E+00
         21   -1    0    0  503  502  0.00000000000E+00  0.00000000000E+00  0.46193056450E+03  0.46193056450E+03  0.00000000000E+00 0. -1.
         21   -1    0    0  501  503 -0.00000000000E+00 -0.00000000000E+00 -0.42661686800E+01  0.42661686800E+01  0.00000000000E+00 0.  1.
          5    1    1    2  501    0 -0.83841495413E+01  0.56472047927E+01  0.32033497639E+01  0.11598979921E+02  0.47000000000E+01 0.  1.
         -5    1    1    2    0  502  0.83841495413E+01 -0.56472047927E+01  0.45446104606E+03  0.45459775326E+03  0.47000000000E+01 0. -1.
<mgrwt>
<rscale>  2 0.11147865E+02</rscale>
<asrwt>0</asrwt>
<pdfrwt beam="1">  1       21 0.71066201E-01 0.11147865E+02</pdfrwt>
<pdfrwt beam="2">  1       21 0.65633401E-03 0.11147865E+02</pdfrwt>
<totfact> 0.90652854E+06</totfact>
</mgrwt>
</event>
<event>
 4    1  0.3964155E+006  0.7606550E+01  0.7546771E-02  0.2243867E+00
         21   -1    0    0  503  502  0.00000000000E+00  0.00000000000E+00  0.19816705049E+01  0.19816705049E+01  0.00000000000E+00 0. -1.
         21   -1    0    0  501  503 -0.00000000000E+00 -0.00000000000E+00 -0.30826178599E+02  0.30826178599E+02  0.00000000000E+00 0.  1.
          5    1    1    2  501    0  0.68953060550E-01  0.59803719208E+01 -0.18192941453E+02  0.19719095354E+02  0.47000000000E+01 0.  1.
         -5    1    1    2    0  502 -0.68953060550E-01 -0.59803719208E+01 -0.10651566640E+02  0.13088753750E+02  0.47000000000E+01 0. -1.
<mgrwt>
<rscale>  2 0.76065500E+01</rscale>
<asrwt>0</asrwt>
<pdfrwt beam="1">  1       21 0.30487241E-03 0.76065500E+01</pdfrwt>
<pdfrwt beam="2">  1       21 0.47424886E-02 0.76065500E+01</pdfrwt>
<totfact> 0.21070082E+09</totfact>
</mgrwt>
</event>
<event>
 4    1  0.3964155E+006  0.6784435E+01  0.7546771E-02  0.2323290E+00
         21   -1    0    0  503  502  0.00000000000E+00  0.00000000000E+00  0.40025082761E+02  0.40025082761E+02  0.00000000000E+00 0.  1.
         21   -1    0    0  501  503 -0.00000000000E+00 -0.00000000000E+00 -0.15052319690E+01  0.15052319690E+01  0.00000000000E+00 0.  1.
          5    1    1    2  501    0  0.95006622523E+00 -0.47995760862E+01  0.91721839826E+01  0.11408659669E+02  0.47000000000E+01 0.  1.
         -5    1    1    2    0  502 -0.95006622523E+00  0.47995760862E+01  0.29347666809E+02  0.30121655060E+02  0.47000000000E+01 0.  1.
<mgrwt>
<rscale>  2 0.67844349E+01</rscale>
<asrwt>0</asrwt>
<pdfrwt beam="1">  1       21 0.61577042E-02 0.67844349E+01</pdfrwt>
<pdfrwt beam="2">  1       21 0.23157418E-03 0.67844349E+01</pdfrwt>
<totfact> 0.19093709E+09</totfact>
</mgrwt>
</event>
<event>
 4    1  0.3964155E+006  0.6144724E+01  0.7546771E-02  0.2396960E+00
         21   -1    0    0  503  502  0.00000000000E+00  0.00000000000E+00  0.15511293417E+03  0.15511293417E+03  0.00000000000E+00 0.  1.
         21   -1    0    0  501  503 -0.00000000000E+00 -0.00000000000E+00 -0.37361807645E+00  0.37361807645E+00  0.00000000000E+00 0.  1.
          5    1    1    2  501    0 -0.19674216825E+01 -0.34346593309E+01  0.31476205957E+02  0.32070378454E+02  0.47000000000E+01 0.  1.
         -5    1    1    2    0  502  0.19674216825E+01  0.34346593309E+01  0.12326311014E+03  0.12341617379E+03  0.47000000000E+01 0.  1.
<mgrwt>
<rscale>  2 0.61447240E+01</rscale>
<asrwt>0</asrwt>
<pdfrwt beam="1">  1       21 0.23863477E-01 0.61447240E+01</pdfrwt>
<pdfrwt beam="2">  1       21 0.57479828E-04 0.61447240E+01</pdfrwt>
<totfact> 0.13958914E+09</totfact>
</mgrwt>
</event>
<event>
 4    1  0.3964155E+006  0.5884038E+01  0.7546771E-02  0.2430765E+00
         21   -1    0    0  501  502  0.00000000000E+00  0.00000000000E+00  0.29654868807E+01  0.29654868807E+01  0.00000000000E+00 0.  1.
         21   -1    0    0  502  503 -0.00000000000E+00 -0.00000000000E+00 -0.29105204301E+02  0.29105204301E+02  0.00000000000E+00 0. -1.
          5    1    1    2  501    0  0.20922216452E+01 -0.28556102556E+01 -0.66062680945E+00  0.59210074418E+01  0.47000000000E+01 0.  1.
         -5    1    1    2    0  503 -0.20922216452E+01  0.28556102556E+01 -0.25479090610E+02  0.26149683740E+02  0.47000000000E+01 0. -1.
<mgrwt>
<rscale>  2 0.58840378E+01</rscale>
<asrwt>0</asrwt>
<pdfrwt beam="1">  1       21 0.45622875E-03 0.58840378E+01</pdfrwt>
<pdfrwt beam="2">  1       21 0.44777237E-02 0.58840378E+01</pdfrwt>
<totfact> 0.10746662E+09</totfact>
</mgrwt>
</event>
<event>
 4    1  0.3964155E+006  0.5144847E+01  0.7546771E-02  0.2542082E+00
         21   -1    0    0  501  502  0.00000000000E+00  0.00000000000E+00  0.20277177783E+00  0.20277177783E+00  0.00000000000E+00 0. -1.
         21   -1    0    0  502  503 -0.00000000000E+00 -0.00000000000E+00 -0.23630377582E+03  0.23630377582E+03  0.00000000000E+00 0. -1.
          5    1    1    2  501    0  0.58468412583E+00  0.20093774589E+01 -0.38937091237E+02  0.39275520713E+02  0.47000000000E+01 0. -1.
         -5    1    1    2    0  503 -0.58468412583E+00 -0.20093774589E+01 -0.19716391281E+03  0.19723102689E+03  0.47000000000E+01 0. -1.
<mgrwt>
<rscale>  2 0.51448473E+01</rscale>
<asrwt>0</asrwt>
<pdfrwt beam="1">  1       21 0.31195678E-04 0.51448473E+01</pdfrwt>
<pdfrwt beam="2">  1       21 0.36354404E-01 0.51448473E+01</pdfrwt>
<totfact> 0.13489443E+09</totfact>
</mgrwt>
</event>
<event>
 4    1  0.3964155E+006  0.5022691E+01  0.7546771E-02  0.2563144E+00
         21   -1    0    0  503  502  0.00000000000E+00  0.00000000000E+00  0.14407630054E+03  0.14407630054E+03  0.00000000000E+00 0. -1.
         21   -1    0    0  501  503 -0.00000000000E+00 -0.00000000000E+00 -0.17687750019E+00  0.17687750019E+00  0.00000000000E+00 0. -1.
          5    1    1    2  501    0 -0.47226529334E+00  0.17071585678E+01  0.64714552503E+02  0.64909172931E+02  0.47000000000E+01 0.  1.
         -5    1    1    2    0  502  0.47226529334E+00 -0.17071585678E+01  0.79184870534E+02  0.79344005107E+02  0.47000000000E+01 0.  1.
<mgrwt>
<rscale>  2 0.50226910E+01</rscale>
<asrwt>0</asrwt>
<pdfrwt beam="1">  1       21 0.22165491E-01 0.50226910E+01</pdfrwt>
<pdfrwt beam="2">  1       21 0.27212038E-04 0.50226910E+01</pdfrwt>
<totfact> 0.35816278E+09</totfact>
</mgrwt>
</event>
<event>
 4    1  0.3964155E+006  0.5924907E+01  0.7546771E-02  0.2425301E+00
         21   -1    0    0  501  502  0.00000000000E+00  0.00000000000E+00  0.50869996714E+00  0.50869996714E+00  0.00000000000E+00 0.  1.
         21   -1    0    0  502  503 -0.00000000000E+00 -0.00000000000E+00 -0.12281680156E+03  0.12281680156E+03  0.00000000000E+00 0.  1.
          5    1    1    2  501    0 -0.74590585656E+00  0.35296104778E+01 -0.20339087841E+02  0.21184499519E+02  0.47000000000E+01 0.  1.
         -5    1    1    2    0  503  0.74590585656E+00 -0.35296104778E+01 -0.10196901376E+03  0.10214100201E+03  0.47000000000E+01 0.  1.
<mgrwt>
<rscale>  2 0.59249072E+01</rscale>
<asrwt>0</asrwt>
<pdfrwt beam="1">  1       21 0.78261419E-04 0.59249072E+01</pdfrwt>
<pdfrwt beam="2">  1       21 0.18894920E-01 0.59249072E+01</pdfrwt>
<totfact> 0.13113061E+09</totfact>
</mgrwt>
</event>
<event>
 4    1  0.3964155E+006  0.4998373E+01  0.7546771E-02  0.2567443E+00
         21   -1    0    0  503  502  0.00000000000E+00  0.00000000000E+00  0.10853596337E+03  0.10853596337E+03  0.00000000000E+00 0. -1.
         21   -1    0    0  501  503 -0.00000000000E+00 -0.00000000000E+00 -0.12016763285E+01  0.12016763285E+01  0.00000000000E+00 0. -1.
          5    1    1    2  501    0 -0.51683719439E+00 -0.16206818627E+01  0.43326642566E+01  0.66148098949E+01  0.47000000000E+01 0. -1.
         -5    1    1    2    0  502  0.51683719439E+00  0.16206818627E+01  0.10300162278E+03  0.10312282980E+03  0.47000000000E+01 0. -1.
<mgrwt>
<rscale>  2 0.49983728E+01</rscale>
<asrwt>0</asrwt>
<pdfrwt beam="1">  1       21 0.16697833E-01 0.49983728E+01</pdfrwt>
<pdfrwt beam="2">  1       21 0.18487337E-03 0.49983728E+01</pdfrwt>
<totfact> 0.43819991E+08</totfact>
</mgrwt>
</event>
<event>
 4    1  0.3964155E+006  0.1296748E+02  0.7546771E-02  0.1937274E+00
         21   -1    0    0  503  502  0.00000000000E+00  0.00000000000E+00  0.22048998445E+01  0.22048998445E+01  0.00000000000E+00 0.  1.
         21   -1    0    0  501  503 -0.00000000000E+00 -0.00000000000E+00 -0.87489806430E+02  0.87489806430E+02  0.00000000000E+00 0. -1.
          5    1    1    2  501    0 -0.10847500836E+02 -0.53289061521E+01 -0.58706604996E+02  0.60121718083E+02  0.47000000000E+01 0. -1.
         -5    1    1    2    0  502  0.10847500836E+02  0.53289061521E+01 -0.26578301590E+02  0.29572988191E+02  0.47000000000E+01 0.  1.
<mgrwt>
<rscale>  2 0.12967479E+02</rscale>
<asrwt>0</asrwt>
<pdfrwt beam="1">  1       21 0.33921532E-03 0.12967479E+02</pdfrwt>
<pdfrwt beam="2">  1       21 0.13459972E-01 0.12967479E+02</pdfrwt>
<totfact> 0.48091794E+08</totfact>
</mgrwt>
</event>
<event>
 4    1  0.3964155E+006  0.7635034E+01  0.7546771E-02  0.2241367E+00
         21   -1    0    0  503  502  0.00000000000E+00  0.00000000000E+00  0.21484067493E+01  0.21484067493E+01  0.00000000000E+00 0.  1.
         21   -1    0    0  501  503 -0.00000000000E+00 -0.00000000000E+00 -0.81805599843E+02  0.81805599843E+02  0.00000000000E+00 0. -1.
          5    1    1    2  501    0 -0.57798069053E+01  0.16725948680E+01 -0.74145088892E+02  0.74537158171E+02  0.47000000000E+01 0. -1.
         -5    1    1    2    0  502  0.57798069053E+01 -0.16725948680E+01 -0.55121042019E+01  0.94168484212E+01  0.47000000000E+01 0.  1.
<mgrwt>
<rscale>  2 0.76350338E+01</rscale>
<asrwt>0</asrwt>
<pdfrwt beam="1">  1       21 0.33052412E-03 0.76350338E+01</pdfrwt>
<pdfrwt beam="2">  1       21 0.12585477E-01 0.76350338E+01</pdfrwt>
<totfact> 0.41980275E+08</totfact>
</mgrwt>
</event>
<event>
 4    1  0.3964155E+006  0.5388945E+01  0.7546771E-02  0.2502459E+00
         21   -1    0    0  503  502  0.00000000000E+00  0.00000000000E+00  0.72161412660E+03  0.72161412660E+03  0.00000000000E+00 0. -1.
         21   -1    0    0  501  503 -0.00000000000E+00 -0.00000000000E+00 -0.42272268676E-01  0.42272268676E-01  0.00000000000E+00 0.  1.
          5    1    1    2  501    0 -0.19343355848E+01  0.17913886326E+01  0.43982144585E+03  0.43985445884E+03  0.47000000000E+01 0. -1.
         -5    1    1    2    0  502  0.19343355848E+01 -0.17913886326E+01  0.28175040848E+03  0.28180194003E+03  0.47000000000E+01 0.  1.
<mgrwt>
<rscale>  2 0.53889449E+01</rscale>
<asrwt>0</asrwt>
<pdfrwt beam="1">  1       21 0.11100769E+00 0.53889449E+01</pdfrwt>
<pdfrwt beam="2">  1       21 0.65040039E-05 0.53889449E+01</pdfrwt>
<totfact> 0.14089867E+09</totfact>
</mgrwt>
</event>
<event>
 4    1  0.3964155E+006  0.4948549E+01  0.7546771E-02  0.2576363E+00
         21   -1    0    0  503  502  0.00000000000E+00  0.00000000000E+00  0.14553891825E+01  0.14553891825E+01  0.00000000000E+00 0.  1.
         21   -1    0    0  501  503 -0.00000000000E+00 -0.00000000000E+00 -0.21682256157E+02  0.21682256157E+02  0.00000000000E+00 0.  1.
          5    1    1    2  501    0 -0.12367085337E+01 -0.93203696705E+00 -0.15588570834E+02  0.16355172930E+02  0.47000000000E+01 0.  1.
         -5    1    1    2    0  502  0.12367085337E+01  0.93203696705E+00 -0.46382961403E+01  0.67824724098E+01  0.47000000000E+01 0.  1.
<mgrwt>
<rscale>  2 0.49485494E+01</rscale>
<asrwt>0</asrwt>
<pdfrwt beam="1">  1       21 0.22390603E-03 0.49485494E+01</pdfrwt>
<pdfrwt beam="2">  1       21 0.33357317E-02 0.49485494E+01</pdfrwt>
<totfact> 0.37145983E+09</totfact>
</mgrwt>
</event>
<event>
 4    1  0.3964155E+006  0.6062361E+01  0.7546771E-02  0.2407377E+00
         21   -1    0    0  503  502  0.00000000000E+00  0.00000000000E+00  0.12232886981E+02  0.12232886981E+02  0.00000000000E+00 0.  1.
         21   -1    0    0  501  503 -0.00000000000E+00 -0.00000000000E+00 -0.30180913105E+01  0.30180913105E+01  0.00000000000E+00 0.  1.
          5    1    1    2  501    0  0.75001863439E+00  0.37549559146E+01  0.40933947221E+01  0.73149232548E+01  0.47000000000E+01 0. -1.
         -5    1    1    2    0  502 -0.75001863439E+00 -0.37549559146E+01  0.51214009488E+01  0.79360550370E+01  0.47000000000E+01 0. -1.
<mgrwt>
<rscale>  2 0.60623611E+01</rscale>
<asrwt>0</asrwt>
<pdfrwt beam="1">  1       21 0.18819826E-02 0.60623611E+01</pdfrwt>
<pdfrwt beam="2">  1       21 0.46432175E-03 0.60623611E+01</pdfrwt>
<totfact> 0.37908543E+09</totfact>
</mgrwt>
</event>
<event>
 4    1  0.3964155E+006  0.5622583E+01  0.7546771E-02  0.2467296E+00
         21   -1    0    0  501  502  0.00000000000E+00  0.00000000000E+00  0.19360851521E+02  0.19360851521E+02  0.00000000000E+00 0.  1.
         21   -1    0    0  502  503 -0.00000000000E+00 -0.00000000000E+00 -0.18581660967E+01  0.18581660967E+01  0.00000000000E+00 0.  1.
          5    1    1    2  501    0 -0.16220329911E+01  0.26253465048E+01  0.50569275991E+01  0.75621393823E+01  0.47000000000E+01 0.  1.
         -5    1    1    2    0  503  0.16220329911E+01 -0.26253465048E+01  0.12445757825E+02  0.13656878236E+02  0.47000000000E+01 0.  1.
<mgrwt>
<rscale>  2 0.56225826E+01</rscale>
<asrwt>0</asrwt>
<pdfrwt beam="1">  1       21 0.29785924E-02 0.56225826E+01</pdfrwt>
<pdfrwt beam="2">  1       21 0.28587172E-03 0.56225826E+01</pdfrwt>
<totfact> 0.35627924E+09</totfact>
</mgrwt>
</event>
<event>
 4    1  0.3964155E+006  0.7682541E+01  0.7546771E-02  0.2237230E+00
         21   -1    0    0  501  502  0.00000000000E+00  0.00000000000E+00  0.50340533773E+02  0.50340533773E+02  0.00000000000E+00 0. -1.
         21   -1    0    0  502  503 -0.00000000000E+00 -0.00000000000E+00 -0.11732348997E+01  0.11732348997E+01  0.00000000000E+00 0.  1.
          5    1    1    2  501    0  0.37743873852E+01  0.47629230656E+01  0.25252568242E+02  0.26395333661E+02  0.47000000000E+01 0. -1.
         -5    1    1    2    0  503 -0.37743873852E+01 -0.47629230656E+01  0.23914730632E+02  0.25118435012E+02  0.47000000000E+01 0.  1.
<mgrwt>
<rscale>  2 0.76825410E+01</rscale>
<asrwt>0</asrwt>
<pdfrwt beam="1">  1       21 0.77446958E-02 0.76825410E+01</pdfrwt>
<pdfrwt beam="2">  1       21 0.18049772E-03 0.76825410E+01</pdfrwt>
<totfact> 0.20803139E+09</totfact>
</mgrwt>
</event>
<event>
 4    1  0.3964155E+006  0.5339114E+01  0.7546771E-02  0.2510296E+00
         21   -1    0    0  501  502  0.00000000000E+00  0.00000000000E+00  0.13977854737E+01  0.13977854737E+01  0.00000000000E+00 0. -1.
         21   -1    0    0  502  503 -0.00000000000E+00 -0.00000000000E+00 -0.36983242265E+02  0.36983242265E+02  0.00000000000E+00 0.  1.
          5    1    1    2  501    0  0.18232508379E+01 -0.17583773618E+01 -0.49398553051E+01  0.72738095245E+01  0.47000000000E+01 0. -1.
         -5    1    1    2    0  503 -0.18232508379E+01  0.17583773618E+01 -0.30645601486E+02  0.31107218214E+02  0.47000000000E+01 0.  1.
<mgrwt>
<rscale>  2 0.53391136E+01</rscale>
<asrwt>0</asrwt>
<pdfrwt beam="1">  1       21 0.21504390E-03 0.53391136E+01</pdfrwt>
<pdfrwt beam="2">  1       21 0.56897301E-02 0.53391136E+01</pdfrwt>
<totfact> 0.19423955E+09</totfact>
</mgrwt>
</event>
<event>
 4    1  0.3964155E+006  0.5243194E+01  0.7546771E-02  0.2525739E+00
         21   -1    0    0  503  502  0.00000000000E+00  0.00000000000E+00  0.16389593821E+04  0.16389593821E+04  0.00000000000E+00 0.  1.
         21   -1    0    0  501  503 -0.00000000000E+00 -0.00000000000E+00 -0.53395921971E-01  0.53395921971E-01  0.00000000000E+00 0.  1.
          5    1    1    2  501    0 -0.22276362762E+01 -0.66235686318E+00  0.14076237010E+03  0.14085998692E+03  0.47000000000E+01 0.  1.
         -5    1    1    2    0  502  0.22276362762E+01  0.66235686318E+00  0.14981436161E+04  0.14981527911E+04  0.47000000000E+01 0.  1.
<mgrwt>
<rscale>  2 0.52431937E+01</rscale>
<asrwt>0</asrwt>
<pdfrwt beam="1">  1       21 0.25210731E+00 0.52431937E+01</pdfrwt>
<pdfrwt beam="2">  1       21 0.82160699E-05 0.52431937E+01</pdfrwt>
<totfact> 0.17275280E+08</totfact>
</mgrwt>
</event>
<event>
 4    1  0.3964155E+006  0.5473942E+01  0.7546771E-02  0.2489372E+00
         21   -1    0    0  503  502  0.00000000000E+00  0.00000000000E+00  0.12532411748E+03  0.12532411748E+03  0.00000000000E+00 0. -1.
         21   -1    0    0  501  503 -0.00000000000E+00 -0.00000000000E+00 -0.50105989349E+00  0.50105989349E+00  0.00000000000E+00 0. -1.
          5    1    1    2  501    0  0.68991981230E+00  0.27199357504E+01  0.16921473484E+02  0.17784833559E+02  0.47000000000E+01 0. -1.
         -5    1    1    2    0  502 -0.68991981230E+00 -0.27199357504E+01  0.10790158410E+03  0.10804034381E+03  0.47000000000E+01 0. -1.
<mgrwt>
<rscale>  2 0.54739419E+01</rscale>
<asrwt>0</asrwt>
<pdfrwt beam="1">  1       21 0.19280609E-01 0.54739419E+01</pdfrwt>
<pdfrwt beam="2">  1       21 0.77086237E-04 0.54739419E+01</pdfrwt>
<totfact> 0.12145619E+09</totfact>
</mgrwt>
</event>
<event>
 4    1  0.3964155E+006  0.7653188E+01  0.7546771E-02  0.2239781E+00
         21   -1    0    0  503  502  0.00000000000E+00  0.00000000000E+00  0.32882432898E+00  0.32882432898E+00  0.00000000000E+00 0. -1.
         21   -1    0    0  501  503 -0.00000000000E+00 -0.00000000000E+00 -0.24754734495E+03  0.24754734495E+03  0.00000000000E+00 0. -1.
          5    1    1    2  501    0 -0.34557883952E+01  0.49536670476E+01 -0.18924349840E+03  0.18939818631E+03  0.47000000000E+01 0. -1.
         -5    1    1    2    0  502  0.34557883952E+01 -0.49536670476E+01 -0.57975022219E+02  0.58477982968E+02  0.47000000000E+01 0. -1.
<mgrwt>
<rscale>  2 0.76531883E+01</rscale>
<asrwt>0</asrwt>
<pdfrwt beam="1">  1       21 0.50588284E-04 0.76531883E+01</pdfrwt>
<pdfrwt beam="2">  1       21 0.38084263E-01 0.76531883E+01</pdfrwt>
<totfact> 0.87151389E+08</totfact>
</mgrwt>
</event>
<event>
 4    1  0.3964155E+006  0.8535898E+01  0.7546771E-02  0.2169339E+00
         21   -1    0    0  501  502  0.00000000000E+00  0.00000000000E+00  0.91187635041E+02  0.91187635041E+02  0.00000000000E+00 0. -1.
         21   -1    0    0  502  503 -0.00000000000E+00 -0.00000000000E+00 -0.23935657129E+01  0.23935657129E+01  0.00000000000E+00 0.  1.
          5    1    1    2  501    0  0.21710740785E+01  0.67866042549E+01  0.82587346887E+02  0.83027293258E+02  0.47000000000E+01 0. -1.
         -5    1    1    2    0  503 -0.21710740785E+01 -0.67866042549E+01  0.62067224413E+01  0.10553907496E+02  0.47000000000E+01 0.  1.
<mgrwt>
<rscale>  2 0.85358983E+01</rscale>
<asrwt>0</asrwt>
<pdfrwt beam="1">  1       21 0.14028864E-01 0.85358983E+01</pdfrwt>
<pdfrwt beam="2">  1       21 0.36824095E-03 0.85358983E+01</pdfrwt>
<totfact> 0.32403036E+08</totfact>
</mgrwt>
</event>
<event>
 4    1  0.3964155E+006  0.1421539E+02  0.7546771E-02  0.1893000E+00
         21   -1    0    0  503  502  0.00000000000E+00  0.00000000000E+00  0.47800161340E+02  0.47800161340E+02  0.00000000000E+00 0. -1.
         21   -1    0    0  501  503 -0.00000000000E+00 -0.00000000000E+00 -0.48208999486E+01  0.48208999486E+01  0.00000000000E+00 0. -1.
          5    1    1    2  501    0 -0.10892346278E+02 -0.78322517406E+01  0.12259188367E+02  0.18771389778E+02  0.47000000000E+01 0. -1.
         -5    1    1    2    0  502  0.10892346278E+02  0.78322517406E+01  0.30720073024E+02  0.33849671511E+02  0.47000000000E+01 0. -1.
<mgrwt>
<rscale>  2 0.14215392E+02</rscale>
<asrwt>0</asrwt>
<pdfrwt beam="1">  1       21 0.73538707E-02 0.14215392E+02</pdfrwt>
<pdfrwt beam="2">  1       21 0.74167695E-03 0.14215392E+02</pdfrwt>
<totfact> 0.42897118E+08</totfact>
</mgrwt>
</event>
<event>
 4    1  0.3964155E+006  0.4801166E+01  0.7546771E-02  0.2603683E+00
         21   -1    0    0  503  502  0.00000000000E+00  0.00000000000E+00  0.48190634781E+02  0.48190634781E+02  0.00000000000E+00 0.  1.
         21   -1    0    0  501  503 -0.00000000000E+00 -0.00000000000E+00 -0.20835179779E+01  0.20835179779E+01  0.00000000000E+00 0.  1.
          5    1    1    2  501    0  0.90235966500E+00 -0.38332819186E+00  0.98984443402E+00  0.49021409069E+01  0.47000000000E+01 0.  1.
         -5    1    1    2    0  502 -0.90235966500E+00  0.38332819186E+00  0.45117272369E+02  0.45372011852E+02  0.47000000000E+01 0.  1.
<mgrwt>
<rscale>  2 0.48011658E+01</rscale>
<asrwt>0</asrwt>
<pdfrwt beam="1">  1       21 0.74139430E-02 0.48011658E+01</pdfrwt>
<pdfrwt beam="2">  1       21 0.32054126E-03 0.48011658E+01</pdfrwt>
<totfact> 0.69195314E+08</totfact>
</mgrwt>
</event>
<event>
 4    1  0.3964155E+006  0.4947271E+01  0.7546771E-02  0.2576594E+00
         21   -1    0    0  501  502  0.00000000000E+00  0.00000000000E+00  0.37492723217E-01  0.37492723217E-01  0.00000000000E+00 0.  1.
         21   -1    0    0  502  503 -0.00000000000E+00 -0.00000000000E+00 -0.65424124526E+03  0.65424124526E+03  0.00000000000E+00 0.  1.
          5    1    1    2  501    0 -0.95151763368E-01 -0.15415709302E+01 -0.31178233672E+03  0.31182158518E+03  0.47000000000E+01 0. -1.
         -5    1    1    2    0  503  0.95151763368E-01  0.15415709302E+01 -0.34242141581E+03  0.34245715280E+03  0.47000000000E+01 0. -1.
<mgrwt>
<rscale>  2 0.49472714E+01</rscale>
<asrwt>0</asrwt>
<pdfrwt beam="1">  1       21 0.57681896E-05 0.49472714E+01</pdfrwt>
<pdfrwt beam="2">  1       21 0.10065113E+00 0.49472714E+01</pdfrwt>
<totfact> 0.18901299E+09</totfact>
</mgrwt>
</event>
<event>
 4    1  0.3964155E+006  0.5331292E+01  0.7546771E-02  0.2511538E+00
         21   -1    0    0  503  502  0.00000000000E+00  0.00000000000E+00  0.13344263810E+00  0.13344263810E+00  0.00000000000E+00 0. -1.
         21   -1    0    0  501  503 -0.00000000000E+00 -0.00000000000E+00 -0.22675067222E+03  0.22675067222E+03  0.00000000000E+00 0. -1.
          5    1    1    2  501    0  0.15942905888E+01 -0.19470264829E+01 -0.14124907952E+03  0.14134965560E+03  0.47000000000E+01 0. -1.
         -5    1    1    2    0  502 -0.15942905888E+01  0.19470264829E+01 -0.85368150067E+02  0.85534459258E+02  0.47000000000E+01 0. -1.
<mgrwt>
<rscale>  2 0.53312920E+01</rscale>
<asrwt>0</asrwt>
<pdfrwt beam="1">  1       21 0.20529595E-04 0.53312920E+01</pdfrwt>
<pdfrwt beam="2">  1       21 0.34884789E-01 0.53312920E+01</pdfrwt>
<totfact> 0.25996342E+09</totfact>
</mgrwt>
</event>
<event>
 4    1  0.3964155E+006  0.4882437E+01  0.7546771E-02  0.2588441E+00
         21   -1    0    0  501  502  0.00000000000E+00  0.00000000000E+00  0.31615381156E+02  0.31615381156E+02  0.00000000000E+00 0. -1.
         21   -1    0    0  502  503 -0.00000000000E+00 -0.00000000000E+00 -0.10458795808E+01  0.10458795808E+01  0.00000000000E+00 0. -1.
          5    1    1    2  501    0 -0.61099055062E+00 -0.11725548152E+01  0.23911741519E+02  0.24405113741E+02  0.47000000000E+01 0. -1.
         -5    1    1    2    0  503  0.61099055062E+00  0.11725548152E+01  0.66577600566E+01  0.82561469959E+01  0.47000000000E+01 0. -1.
<mgrwt>
<rscale>  2 0.48824373E+01</rscale>
<asrwt>0</asrwt>
<pdfrwt beam="1">  1       21 0.48639041E-02 0.48824373E+01</pdfrwt>
<pdfrwt beam="2">  1       21 0.16090458E-03 0.48824373E+01</pdfrwt>
<totfact> 0.33061137E+09</totfact>
</mgrwt>
</event>
<event>
 4    1  0.3964155E+006  0.6840549E+01  0.7546771E-02  0.2317375E+00
         21   -1    0    0  501  502  0.00000000000E+00  0.00000000000E+00  0.61831859433E+01  0.61831859433E+01  0.00000000000E+00 0.  1.
         21   -1    0    0  502  503 -0.00000000000E+00 -0.00000000000E+00 -0.10062329179E+02  0.10062329179E+02  0.00000000000E+00 0.  1.
          5    1    1    2  501    0  0.30794602908E+01  0.39012866361E+01  0.21047766424E+01  0.71570383409E+01  0.47000000000E+01 0.  1.
         -5    1    1    2    0  503 -0.30794602908E+01 -0.39012866361E+01 -0.59839198781E+01  0.90884767814E+01  0.47000000000E+01 0.  1.
<mgrwt>
<rscale>  2 0.68405492E+01</rscale>
<asrwt>0</asrwt>
<pdfrwt beam="1">  1       21 0.95125938E-03 0.68405492E+01</pdfrwt>
<pdfrwt beam="2">  1       21 0.15480506E-02 0.68405492E+01</pdfrwt>
<totfact> 0.20299916E+09</totfact>
</mgrwt>
</event>
<event>
 4    1  0.3964155E+006  0.4896024E+01  0.7546771E-02  0.2585936E+00
         21   -1    0    0  501  502  0.00000000000E+00  0.00000000000E+00  0.38986414706E+00  0.38986414706E+00  0.00000000000E+00 0. -1.
         21   -1    0    0  502  503 -0.00000000000E+00 -0.00000000000E+00 -0.39029170236E+03  0.39029170236E+03  0.00000000000E+00 0. -1.
          5    1    1    2  501    0  0.13287087120E+01  0.33998240637E+00 -0.15655926876E+02  0.16403630733E+02  0.47000000000E+01 0. -1.
         -5    1    1    2    0  503 -0.13287087120E+01 -0.33998240637E+00 -0.37424591134E+03  0.37427793578E+03  0.47000000000E+01 0. -1.
<mgrwt>
<rscale>  2 0.48960244E+01</rscale>
<asrwt>0</asrwt>
<pdfrwt beam="1">  1       21 0.59978917E-04 0.48960244E+01</pdfrwt>
<pdfrwt beam="2">  1       21 0.60045060E-01 0.48960244E+01</pdfrwt>
<totfact> 0.22526192E+08</totfact>
</mgrwt>
</event>
<event>
 4    1  0.3964155E+006  0.7597095E+01  0.7546771E-02  0.2244700E+00
         21   -1    0    0  503  502  0.00000000000E+00  0.00000000000E+00  0.18858291612E+02  0.18858291612E+02  0.00000000000E+00 0. -1.
         21   -1    0    0  501  503 -0.00000000000E+00 -0.00000000000E+00 -0.34058722392E+01  0.34058722392E+01  0.00000000000E+00 0. -1.
          5    1    1    2  501    0  0.58105119569E+01 -0.13652125711E+01  0.41813082802E+01  0.86717468540E+01  0.47000000000E+01 0. -1.
         -5    1    1    2    0  502 -0.58105119569E+01  0.13652125711E+01  0.11271111092E+02  0.13592416997E+02  0.47000000000E+01 0. -1.
<mgrwt>
<rscale>  2 0.75970951E+01</rscale>
<asrwt>0</asrwt>
<pdfrwt beam="1">  1       21 0.29012756E-02 0.75970951E+01</pdfrwt>
<pdfrwt beam="2">  1       21 0.52398036E-03 0.75970951E+01</pdfrwt>
<totfact> 0.20487135E+09</totfact>
</mgrwt>
</event>
<event>
 4    1  0.3964155E+006  0.6517235E+01  0.7546771E-02  0.2352602E+00
         21   -1    0    0  503  502  0.00000000000E+00  0.00000000000E+00  0.32430618969E+03  0.32430618969E+03  0.00000000000E+00 0.  1.
         21   -1    0    0  501  503 -0.00000000000E+00 -0.00000000000E+00 -0.58243625246E+00  0.58243625246E+00  0.00000000000E+00 0. -1.
          5    1    1    2  501    0 -0.79660215929E+00 -0.44440726571E+01  0.18843121057E+02  0.19938344162E+02  0.47000000000E+01 0. -1.
         -5    1    1    2    0  502  0.79660215929E+00  0.44440726571E+01  0.30488063238E+03  0.30495028178E+03  0.47000000000E+01 0.  1.
<mgrwt>
<rscale>  2 0.65172354E+01</rscale>
<asrwt>0</asrwt>
<pdfrwt beam="1">  1       21 0.49893116E-01 0.65172354E+01</pdfrwt>
<pdfrwt beam="2">  1       21 0.89605836E-04 0.65172354E+01</pdfrwt>
<totfact> 0.22491791E+08</totfact>
</mgrwt>
</event>
<event>
 4    1  0.3964155E+006  0.5379458E+01  0.7546771E-02  0.2503942E+00
         21   -1    0    0  501  502  0.00000000000E+00  0.00000000000E+00  0.69292174793E+02  0.69292174793E+02  0.00000000000E+00 0. -1.
         21   -1    0    0  502  503 -0.00000000000E+00 -0.00000000000E+00 -0.14876155993E+01  0.14876155993E+01  0.00000000000E+00 0.  1.
          5    1    1    2  501    0 -0.19296176251E+01 -0.17678091418E+01  0.63916194002E+02  0.64142173561E+02  0.47000000000E+01 0. -1.
         -5    1    1    2    0  503  0.19296176251E+01  0.17678091418E+01  0.38883651914E+01  0.66376168316E+01  0.47000000000E+01 0.  1.
<mgrwt>
<rscale>  2 0.53794585E+01</rscale>
<asrwt>0</asrwt>
<pdfrwt beam="1">  1       21 0.10660332E-01 0.53794585E+01</pdfrwt>
<pdfrwt beam="2">  1       21 0.22886399E-03 0.53794585E+01</pdfrwt>
<totfact> 0.70030415E+08</totfact>
</mgrwt>
</event>
<event>
 4    1  0.3964155E+006  0.7538212E+01  0.7546771E-02  0.2249928E+00
         21   -1    0    0  501  502  0.00000000000E+00  0.00000000000E+00  0.12308469789E+02  0.12308469789E+02  0.00000000000E+00 0.  1.
         21   -1    0    0  502  503 -0.00000000000E+00 -0.00000000000E+00 -0.50141395418E+01  0.50141395418E+01  0.00000000000E+00 0. -1.
          5    1    1    2  501    0  0.58758341395E+01  0.45739027717E+00  0.12087069690E+01  0.76345009816E+01  0.47000000000E+01 0. -1.
         -5    1    1    2    0  503 -0.58758341395E+01 -0.45739027717E+00  0.60856232783E+01  0.96881083492E+01  0.47000000000E+01 0. -1.
<mgrwt>
<rscale>  2 0.75382115E+01</rscale>
<asrwt>0</asrwt>
<pdfrwt beam="1">  1       21 0.18936107E-02 0.75382115E+01</pdfrwt>
<pdfrwt beam="2">  1       21 0.77140609E-03 0.75382115E+01</pdfrwt>
<totfact> 0.22009041E+09</totfact>
</mgrwt>
</event>
<event>
 4    1  0.3964155E+006  0.4994547E+01  0.7546771E-02  0.2568122E+00
         21   -1    0    0  503  502  0.00000000000E+00  0.00000000000E+00  0.16241956778E+01  0.16241956778E+01  0.00000000000E+00 0.  1.
         21   -1    0    0  501  503 -0.00000000000E+00 -0.00000000000E+00 -0.17636030309E+02  0.17636030309E+02  0.00000000000E+00 0. -1.
          5    1    1    2  501    0  0.13439492993E+01  0.10243525699E+01 -0.45453595283E+01  0.67532059904E+01  0.47000000000E+01 0.  1.
         -5    1    1    2    0  502 -0.13439492993E+01 -0.10243525699E+01 -0.11466475103E+02  0.12507019996E+02  0.47000000000E+01 0.  1.
<mgrwt>
<rscale>  2 0.49945468E+01</rscale>
<asrwt>0</asrwt>
<pdfrwt beam="1">  1       21 0.24987626E-03 0.49945468E+01</pdfrwt>
<pdfrwt beam="2">  1       21 0.27132354E-02 0.49945468E+01</pdfrwt>
<totfact> 0.43495702E+09</totfact>
</mgrwt>
</event>
<event>
 4    1  0.3964155E+006  0.7428072E+01  0.7546771E-02  0.2259886E+00
         21   -1    0    0  503  502  0.00000000000E+00  0.00000000000E+00  0.69724609799E+03  0.69724609799E+03  0.00000000000E+00 0. -1.
         21   -1    0    0  501  503 -0.00000000000E+00 -0.00000000000E+00 -0.20899195710E+00  0.20899195710E+00  0.00000000000E+00 0.  1.
          5    1    1    2  501    0  0.34646246809E+01 -0.45915831672E+01  0.73631161662E+02  0.74004893269E+02  0.47000000000E+01 0.  1.
         -5    1    1    2    0  502 -0.34646246809E+01  0.45915831672E+01  0.62340594437E+03  0.62345019667E+03  0.47000000000E+01 0. -1.
<mgrwt>
<rscale>  2 0.74280724E+01</rscale>
<asrwt>0</asrwt>
<pdfrwt beam="1">  1       21 0.10726677E+00 0.74280724E+01</pdfrwt>
<pdfrwt beam="2">  1       21 0.32153167E-04 0.74280724E+01</pdfrwt>
<totfact> 0.21881454E+08</totfact>
</mgrwt>
</event>
<event>
 4    1  0.3964155E+006  0.5172418E+01  0.7546771E-02  0.2537447E+00
         21   -1    0    0  501  502  0.00000000000E+00  0.00000000000E+00  0.66607721296E+00  0.66607721296E+00  0.00000000000E+00 0.  1.
         21   -1    0    0  502  503 -0.00000000000E+00 -0.00000000000E+00 -0.31265582335E+03  0.31265582335E+03  0.00000000000E+00 0.  1.
          5    1    1    2  501    0 -0.10296697023E+01  0.18983371802E+01 -0.97426943638E+01  0.11030593693E+02  0.47000000000E+01 0.  1.
         -5    1    1    2    0  503  0.10296697023E+01 -0.18983371802E+01 -0.30224705177E+03  0.30229130687E+03  0.47000000000E+01 0.  1.
<mgrwt>
<rscale>  2 0.51724176E+01</rscale>
<asrwt>0</asrwt>
<pdfrwt beam="1">  1       21 0.10247303E-03 0.51724176E+01</pdfrwt>
<pdfrwt beam="2">  1       21 0.48101077E-01 0.51724176E+01</pdfrwt>
<totfact> 0.17182137E+08</totfact>
</mgrwt>
</event>
<event>
 4    1  0.3964155E+006  0.7954293E+01  0.7546771E-02  0.2214341E+00
         21   -1    0    0  501  502  0.00000000000E+00  0.00000000000E+00  0.10054767168E+02  0.10054767168E+02  0.00000000000E+00 0. -1.
         21   -1    0    0  502  503 -0.00000000000E+00 -0.00000000000E+00 -0.92368320291E+01  0.92368320291E+01  0.00000000000E+00 0. -1.
          5    1    1    2  501    0 -0.38593052753E+01 -0.51270397567E+01  0.58547671896E+01  0.98766934102E+01  0.47000000000E+01 0. -1.
         -5    1    1    2    0  503  0.38593052753E+01  0.51270397567E+01 -0.50368320505E+01  0.94149057871E+01  0.47000000000E+01 0. -1.
<mgrwt>
<rscale>  2 0.79542928E+01</rscale>
<asrwt>0</asrwt>
<pdfrwt beam="1">  1       21 0.15468873E-02 0.79542928E+01</pdfrwt>
<pdfrwt beam="2">  1       21 0.14210511E-02 0.79542928E+01</pdfrwt>
<totfact> 0.12784005E+09</totfact>
</mgrwt>
</event>
<event>
 4    1  0.3964155E+006  0.5637376E+01  0.7546771E-02  0.2465153E+00
         21   -1    0    0  501  502  0.00000000000E+00  0.00000000000E+00  0.19127257772E+01  0.19127257772E+01  0.00000000000E+00 0. -1.
         21   -1    0    0  502  503 -0.00000000000E+00 -0.00000000000E+00 -0.29820800820E+02  0.29820800820E+02  0.00000000000E+00 0. -1.
          5    1    1    2  501    0  0.31119923046E+01  0.74224615884E-01 -0.33953365485E+01  0.65809053841E+01  0.47000000000E+01 0. -1.
         -5    1    1    2    0  503 -0.31119923046E+01 -0.74224615884E-01 -0.24512738494E+02  0.25152621213E+02  0.47000000000E+01 0. -1.
<mgrwt>
<rscale>  2 0.56373758E+01</rscale>
<asrwt>0</asrwt>
<pdfrwt beam="1">  1       21 0.29426551E-03 0.56373758E+01</pdfrwt>
<pdfrwt beam="2">  1       21 0.45878155E-02 0.56373758E+01</pdfrwt>
<totfact> 0.18283633E+09</totfact>
</mgrwt>
</event>
<event>
 4    1  0.3964155E+006  0.6725353E+01  0.7546771E-02  0.2329606E+00
         21   -1    0    0  501  502  0.00000000000E+00  0.00000000000E+00  0.44763412664E+00  0.44763412664E+00  0.00000000000E+00 0.  1.
         21   -1    0    0  502  503 -0.00000000000E+00 -0.00000000000E+00 -0.26320483097E+03  0.26320483097E+03  0.00000000000E+00 0. -1.
          5    1    1    2  501    0  0.47735217868E+01 -0.59486813023E+00 -0.27905135681E+02  0.28704128200E+02  0.47000000000E+01 0.  1.
         -5    1    1    2    0  503 -0.47735217868E+01  0.59486813023E+00 -0.23485206116E+03  0.23494833689E+03  0.47000000000E+01 0. -1.
<mgrwt>
<rscale>  2 0.67253534E+01</rscale>
<asrwt>0</asrwt>
<pdfrwt beam="1">  1       21 0.68866764E-04 0.67253534E+01</pdfrwt>
<pdfrwt beam="2">  1       21 0.40493066E-01 0.67253534E+01</pdfrwt>
<totfact> 0.47501490E+08</totfact>
</mgrwt>
</event>
<event>
 4    1  0.3964155E+006  0.5933847E+01  0.7546771E-02  0.2424114E+00
         21   -1    0    0  503  502  0.00000000000E+00  0.00000000000E+00  0.36412130677E+00  0.36412130677E+00  0.00000000000E+00 0.  1.
         21   -1    0    0  501  503 -0.00000000000E+00 -0.00000000000E+00 -0.15729697871E+03  0.15729697871E+03  0.00000000000E+00 0.  1.
          5    1    1    2  501    0 -0.21786007599E+01 -0.28938267967E+01 -0.12739469284E+03  0.12753281263E+03  0.47000000000E+01 0.  1.
         -5    1    1    2    0  502  0.21786007599E+01  0.28938267967E+01 -0.29538164569E+02  0.30128287388E+02  0.47000000000E+01 0.  1.
<mgrwt>
<rscale>  2 0.59338465E+01</rscale>
<asrwt>0</asrwt>
<pdfrwt beam="1">  1       21 0.56018560E-04 0.59338465E+01</pdfrwt>
<pdfrwt beam="2">  1       21 0.24199580E-01 0.59338465E+01</pdfrwt>
<totfact> 0.13740137E+09</totfact>
</mgrwt>
</event>
<event>
 4    1  0.3964155E+006  0.1595132E+02  0.7546771E-02  0.1840354E+00
         21   -1    0    0  503  502  0.00000000000E+00  0.00000000000E+00  0.54442366072E+02  0.54442366072E+02  0.00000000000E+00 0. -1.
         21   -1    0    0  501  503 -0.00000000000E+00 -0.00000000000E+00 -0.37188840418E+02  0.37188840418E+02  0.00000000000E+00 0. -1.
          5    1    1    2  501    0  0.12518299661E+02  0.86975189008E+01 -0.34213312885E+02  0.37749111777E+02  0.47000000000E+01 0. -1.
         -5    1    1    2    0  502 -0.12518299661E+02 -0.86975189008E+01  0.51466838539E+02  0.53882094713E+02  0.47000000000E+01 0. -1.
<mgrwt>
<rscale>  2 0.15951322E+02</rscale>
<asrwt>0</asrwt>
<pdfrwt beam="1">  1       21 0.83757487E-02 0.15951322E+02</pdfrwt>
<pdfrwt beam="2">  1       21 0.57213600E-02 0.15951322E+02</pdfrwt>
<totfact> 0.16477338E+07</totfact>
</mgrwt>
</event>
<event>
 4    1  0.3964155E+006  0.5644390E+01  0.7546771E-02  0.2464140E+00
         21   -1    0    0  503  502  0.00000000000E+00  0.00000000000E+00  0.76088459545E+01  0.76088459545E+01  0.00000000000E+00 0.  1.
         21   -1    0    0  501  503 -0.00000000000E+00 -0.00000000000E+00 -0.52224951924E+01  0.52224951924E+01  0.00000000000E+00 0.  1.
          5    1    1    2  501    0  0.19120729112E+01  0.24724716005E+01 -0.16634431689E+01  0.58844015676E+01  0.47000000000E+01 0.  1.
         -5    1    1    2    0  502 -0.19120729112E+01 -0.24724716005E+01  0.40497939310E+01  0.69469395792E+01  0.47000000000E+01 0.  1.
<mgrwt>
<rscale>  2 0.56443900E+01</rscale>
<asrwt>0</asrwt>
<pdfrwt beam="1">  1       21 0.11705917E-02 0.56443900E+01</pdfrwt>
<pdfrwt beam="2">  1       21 0.80346080E-03 0.56443900E+01</pdfrwt>
<totfact> 0.32513009E+09</totfact>
</mgrwt>
</event>
<event>
 4    1  0.3964155E+006  0.5501624E+01  0.7546771E-02  0.2485184E+00
         21   -1    0    0  501  502  0.00000000000E+00  0.00000000000E+00  0.22247717102E+04  0.22247717102E+04  0.00000000000E+00 0.  1.
         21   -1    0    0  502  503 -0.00000000000E+00 -0.00000000000E+00 -0.15444317122E+00  0.15444317122E+00  0.00000000000E+00 0.  1.
          5    1    1    2  501    0 -0.33898335773E+00 -0.28395349579E+01  0.21746437631E+04  0.21746507223E+04  0.47000000000E+01 0.  1.
         -5    1    1    2    0  503  0.33898335773E+00  0.28395349579E+01  0.49973503911E+02  0.50275430995E+02  0.47000000000E+01 0.  1.
<mgrwt>
<rscale>  2 0.55016242E+01</rscale>
<asrwt>0</asrwt>
<pdfrwt beam="1">  1       21 0.34224691E+00 0.55016242E+01</pdfrwt>
<pdfrwt beam="2">  1       21 0.23762270E-04 0.55016242E+01</pdfrwt>
<totfact> 0.19498870E+07</totfact>
</mgrwt>
</event>
<event>
 4    1  0.3964155E+006  0.4834898E+01  0.7546771E-02  0.2597303E+00
         21   -1    0    0  501  502  0.00000000000E+00  0.00000000000E+00  0.11681416112E+00  0.11681416112E+00  0.00000000000E+00 0.  1.
         21   -1    0    0  502  503 -0.00000000000E+00 -0.00000000000E+00 -0.10432368803E+04  0.10432368803E+04  0.00000000000E+00 0.  1.
          5    1    1    2  501    0 -0.10708922548E+01 -0.37340695439E+00 -0.52578947989E+02  0.52800776647E+02  0.47000000000E+01 0.  1.
         -5    1    1    2    0  503  0.10708922548E+01  0.37340695439E+00 -0.99054111819E+03  0.99055291785E+03  0.47000000000E+01 0.  1.
<mgrwt>
<rscale>  2 0.48348984E+01</rscale>
<asrwt>0</asrwt>
<pdfrwt beam="1">  1       21 0.17971444E-04 0.48348984E+01</pdfrwt>
<pdfrwt beam="2">  1       21 0.16049768E+00 0.48348984E+01</pdfrwt>
<totfact> 0.15663066E+08</totfact>
</mgrwt>
</event>
<event>
 4    1  0.3964155E+006  0.5538855E+01  0.7546771E-02  0.2479608E+00
         21   -1    0    0  501  502  0.00000000000E+00  0.00000000000E+00  0.38786489861E-01  0.38786489861E-01  0.00000000000E+00 0.  1.
         21   -1    0    0  502  503 -0.00000000000E+00 -0.00000000000E+00 -0.80444985486E+03  0.80444985486E+03  0.00000000000E+00 0.  1.
          5    1    1    2  501    0  0.27339529538E+01 -0.10556604840E+01 -0.35013448111E+03  0.35017828856E+03  0.47000000000E+01 0.  1.
         -5    1    1    2    0  503 -0.27339529538E+01  0.10556604840E+01 -0.45427658726E+03  0.45431035279E+03  0.47000000000E+01 0.  1.
<mgrwt>
<rscale>  2 0.55388553E+01</rscale>
<asrwt>0</asrwt>
<pdfrwt beam="1">  1       21 0.59672815E-05 0.55388553E+01</pdfrwt>
<pdfrwt beam="2">  1       21 0.12375884E+00 0.55388553E+01</pdfrwt>
<totfact> 0.12891040E+09</totfact>
</mgrwt>
</event>
<event>
 4    1  0.3964155E+006  0.5053800E+01  0.7546771E-02  0.2557697E+00
         21   -1    0    0  503  502  0.00000000000E+00  0.00000000000E+00  0.12139775497E+02  0.12139775497E+02  0.00000000000E+00 0.  1.
         21   -1    0    0  501  503 -0.00000000000E+00 -0.00000000000E+00 -0.21521542531E+01  0.21521542531E+01  0.00000000000E+00 0.  1.
          5    1    1    2  501    0  0.14898597444E+01  0.11095990846E+01  0.39238073299E+01  0.63982150752E+01  0.47000000000E+01 0.  1.
         -5    1    1    2    0  502 -0.14898597444E+01 -0.11095990846E+01  0.60638139143E+01  0.78937146753E+01  0.47000000000E+01 0.  1.
<mgrwt>
<rscale>  2 0.50537998E+01</rscale>
<asrwt>0</asrwt>
<pdfrwt beam="1">  1       21 0.18676577E-02 0.50537998E+01</pdfrwt>
<pdfrwt beam="2">  1       21 0.33110066E-03 0.50537998E+01</pdfrwt>
<totfact> 0.51144921E+09</totfact>
</mgrwt>
</event>
<event>
 4    1  0.3964155E+006  0.5096737E+01  0.7546771E-02  0.2550274E+00
         21   -1    0    0  501  502  0.00000000000E+00  0.00000000000E+00  0.23222298856E+01  0.23222298856E+01  0.00000000000E+00 0.  1.
         21   -1    0    0  502  503 -0.00000000000E+00 -0.00000000000E+00 -0.42255200898E+02  0.42255200898E+02  0.00000000000E+00 0.  1.
          5    1    1    2  501    0 -0.52894020848E+00  0.18991962293E+01 -0.85435022992E+00  0.51678465899E+01  0.47000000000E+01 0.  1.
         -5    1    1    2    0  503  0.52894020848E+00 -0.18991962293E+01 -0.39078620782E+02  0.39409584193E+02  0.47000000000E+01 0.  1.
<mgrwt>
<rscale>  2 0.50967366E+01</rscale>
<asrwt>0</asrwt>
<pdfrwt beam="1">  1       21 0.35726618E-03 0.50967366E+01</pdfrwt>
<pdfrwt beam="2">  1       21 0.65007993E-02 0.50967366E+01</pdfrwt>
<totfact> 0.76628867E+08</totfact>
</mgrwt>
</event>
<event>
 4    1  0.3964155E+006  0.6258354E+01  0.7546771E-02  0.2382964E+00
         21   -1    0    0  501  502  0.00000000000E+00  0.00000000000E+00  0.50543718583E+00  0.50543718583E+00  0.00000000000E+00 0.  1.
         21   -1    0    0  502  503 -0.00000000000E+00 -0.00000000000E+00 -0.13450232873E+03  0.13450232873E+03  0.00000000000E+00 0. -1.
          5    1    1    2  501    0 -0.31305204699E+01 -0.26975602796E+01 -0.23050027187E+02  0.23884529369E+02  0.47000000000E+01 0.  1.
         -5    1    1    2    0  503  0.31305204699E+01  0.26975602796E+01 -0.11094686436E+03  0.11112323655E+03  0.47000000000E+01 0. -1.
<mgrwt>
<rscale>  2 0.62583536E+01</rscale>
<asrwt>0</asrwt>
<pdfrwt beam="1">  1       21 0.77759467E-04 0.62583536E+01</pdfrwt>
<pdfrwt beam="2">  1       21 0.20692693E-01 0.62583536E+01</pdfrwt>
<totfact> 0.11918012E+09</totfact>
</mgrwt>
</event>
<event>
 4    1  0.3964155E+006  0.7052239E+01  0.7546771E-02  0.2295759E+00
         21   -1    0    0  503  502  0.00000000000E+00  0.00000000000E+00  0.12564430434E+03  0.12564430434E+03  0.00000000000E+00 0.  1.
         21   -1    0    0  501  503 -0.00000000000E+00 -0.00000000000E+00 -0.10011613692E+01  0.10011613692E+01  0.00000000000E+00 0.  1.
          5    1    1    2  501    0 -0.49114452410E+01 -0.18766403360E+01  0.13083234662E+02  0.14862876658E+02  0.47000000000E+01 0.  1.
         -5    1    1    2    0  502  0.49114452410E+01  0.18766403360E+01  0.11155990831E+03  0.11178258905E+03  0.47000000000E+01 0.  1.
<mgrwt>
<rscale>  2 0.70522389E+01</rscale>
<asrwt>0</asrwt>
<pdfrwt beam="1">  1       21 0.19329881E-01 0.70522389E+01</pdfrwt>
<pdfrwt beam="2">  1       21 0.15402493E-03 0.70522389E+01</pdfrwt>
<totfact> 0.57443332E+08</totfact>
</mgrwt>
</event>
<event>
 4    1  0.3964155E+006  0.4744955E+01  0.7546771E-02  0.2614490E+00
         21   -1    0    0  501  502  0.00000000000E+00  0.00000000000E+00  0.16654078546E+02  0.16654078546E+02  0.00000000000E+00 0. -1.
         21   -1    0    0  502  503 -0.00000000000E+00 -0.00000000000E+00 -0.25063903291E+01  0.25063903291E+01  0.00000000000E+00 0. -1.
          5    1    1    2  501    0 -0.12783279581E+00  0.63895312648E+00  0.13575851489E+02  0.14381180271E+02  0.47000000000E+01 0. -1.
         -5    1    1    2    0  503  0.12783279581E+00 -0.63895312648E+00  0.57183672784E+00  0.47792886045E+01  0.47000000000E+01 0. -1.
<mgrwt>
<rscale>  2 0.47449555E+01</rscale>
<asrwt>0</asrwt>
<pdfrwt beam="1">  1       21 0.25621659E-02 0.47449555E+01</pdfrwt>
<pdfrwt beam="2">  1       21 0.38559852E-03 0.47449555E+01</pdfrwt>
<totfact> 0.24833809E+09</totfact>
</mgrwt>
</event>
<event>
 4    1  0.3964155E+006  0.5081414E+01  0.7546771E-02  0.2552911E+00
         21   -1    0    0  503  502  0.00000000000E+00  0.00000000000E+00  0.16992463594E+03  0.16992463594E+03  0.00000000000E+00 0.  1.
         21   -1    0    0  501  503 -0.00000000000E+00 -0.00000000000E+00 -0.35775452463E+00  0.35775452463E+00  0.00000000000E+00 0.  1.
          5    1    1    2  501    0 -0.72941072195E+00 -0.17884997538E+01  0.20207588641E+02  0.20836684239E+02  0.47000000000E+01 0.  1.
         -5    1    1    2    0  502  0.72941072195E+00  0.17884997538E+01  0.14935929277E+03  0.14944570622E+03  0.47000000000E+01 0.  1.
<mgrwt>
<rscale>  2 0.50814143E+01</rscale>
<asrwt>0</asrwt>
<pdfrwt beam="1">  1       21 0.26142187E-01 0.50814143E+01</pdfrwt>
<pdfrwt beam="2">  1       21 0.55039293E-04 0.50814143E+01</pdfrwt>
<totfact> 0.10892503E+09</totfact>
</mgrwt>
</event>
<event>
 4    1  0.3964155E+006  0.6357615E+01  0.7546771E-02  0.2371080E+00
         21   -1    0    0  503  502  0.00000000000E+00  0.00000000000E+00  0.81074930229E+01  0.81074930229E+01  0.00000000000E+00 0.  1.
         21   -1    0    0  501  503 -0.00000000000E+00 -0.00000000000E+00 -0.84063409766E+01  0.84063409766E+01  0.00000000000E+00 0. -1.
          5    1    1    2  501    0 -0.41827110018E+01 -0.91334474969E+00 -0.54166971743E+01  0.83522379178E+01  0.47000000000E+01 0. -1.
         -5    1    1    2    0  502  0.41827110018E+01  0.91334474969E+00  0.51178492206E+01  0.81615960817E+01  0.47000000000E+01 0.  1.
<mgrwt>
<rscale>  2 0.63576151E+01</rscale>
<asrwt>0</asrwt>
<pdfrwt beam="1">  1       21 0.12473066E-02 0.63576151E+01</pdfrwt>
<pdfrwt beam="2">  1       21 0.12932832E-02 0.63576151E+01</pdfrwt>
<totfact> 0.16842711E+09</totfact>
</mgrwt>
</event>
<event>
 4    1  0.3964155E+006  0.5984749E+01  0.7546771E-02  0.2417413E+00
         21   -1    0    0  501  502  0.00000000000E+00  0.00000000000E+00  0.28540728598E+00  0.28540728598E+00  0.00000000000E+00 0. -1.
         21   -1    0    0  502  503 -0.00000000000E+00 -0.00000000000E+00 -0.34085278688E+03  0.34085278688E+03  0.00000000000E+00 0. -1.
          5    1    1    2  501    0  0.92806385019E+00  0.35869092545E+01 -0.34703231212E+02  0.35215500523E+02  0.47000000000E+01 0. -1.
         -5    1    1    2    0  503 -0.92806385019E+00 -0.35869092545E+01 -0.30586414838E+03  0.30592269364E+03  0.47000000000E+01 0. -1.
<mgrwt>
<rscale>  2 0.59847490E+01</rscale>
<asrwt>0</asrwt>
<pdfrwt beam="1">  1       21 0.43908851E-04 0.59847490E+01</pdfrwt>
<pdfrwt beam="2">  1       21 0.52438845E-01 0.59847490E+01</pdfrwt>
<totfact> 0.50583741E+08</totfact>
</mgrwt>
</event>
<event>
 4    1  0.3964155E+006  0.4758534E+01  0.7546771E-02  0.2611859E+00
         21   -1    0    0  503  502  0.00000000000E+00  0.00000000000E+00  0.96305894339E+01  0.96305894339E+01  0.00000000000E+00 0.  1.
         21   -1    0    0  501  503 -0.00000000000E+00 -0.00000000000E+00 -0.24101412556E+01  0.24101412556E+01  0.00000000000E+00 0.  1.
          5    1    1    2  501    0 -0.71742723700E+00  0.19734711186E+00  0.26689143964E+01  0.54558914742E+01  0.47000000000E+01 0. -1.
         -5    1    1    2    0  502  0.71742723700E+00 -0.19734711186E+00  0.45515337820E+01  0.65848392153E+01  0.47000000000E+01 0. -1.
<mgrwt>
<rscale>  2 0.47585342E+01</rscale>
<asrwt>0</asrwt>
<pdfrwt beam="1">  1       21 0.14816291E-02 0.47585342E+01</pdfrwt>
<pdfrwt beam="2">  1       21 0.37079097E-03 0.47585342E+01</pdfrwt>
<totfact> 0.56933008E+09</totfact>
</mgrwt>
</event>
<event>
 4    1  0.3964155E+006  0.7478083E+01  0.7546771E-02  0.2255335E+00
         21   -1    0    0  501  502  0.00000000000E+00  0.00000000000E+00  0.86406376338E+00  0.86406376338E+00  0.00000000000E+00 0.  1.
         21   -1    0    0  502  503 -0.00000000000E+00 -0.00000000000E+00 -0.33395913012E+03  0.33395913012E+03  0.00000000000E+00 0.  1.
          5    1    1    2  501    0  0.37348305776E+01 -0.44590099128E+01 -0.16230424346E+02  0.17870321858E+02  0.47000000000E+01 0.  1.
         -5    1    1    2    0  503 -0.37348305776E+01  0.44590099128E+01 -0.31686464201E+03  0.31695287202E+03  0.47000000000E+01 0.  1.
<mgrwt>
<rscale>  2 0.74780832E+01</rscale>
<asrwt>0</asrwt>
<pdfrwt beam="1">  1       21 0.13293282E-03 0.74780832E+01</pdfrwt>
<pdfrwt beam="2">  1       21 0.51378353E-01 0.74780832E+01</pdfrwt>
<totfact> 0.13506651E+08</totfact>
</mgrwt>
</event>
<event>
 4    1  0.3964155E+006  0.6616939E+01  0.7546771E-02  0.2341436E+00
         21   -1    0    0  501  502  0.00000000000E+00  0.00000000000E+00  0.47871964801E+01  0.47871964801E+01  0.00000000000E+00 0. -1.
         21   -1    0    0  502  503 -0.00000000000E+00 -0.00000000000E+00 -0.13677451169E+02  0.13677451169E+02  0.00000000000E+00 0.  1.
          5    1    1    2  501    0 -0.46569987267E+01 -0.79031356998E-01  0.86891795195E+00  0.66737471860E+01  0.47000000000E+01 0. -1.
         -5    1    1    2    0  503  0.46569987267E+01  0.79031356998E-01 -0.97591726406E+01  0.11790900463E+02  0.47000000000E+01 0.  1.
<mgrwt>
<rscale>  2 0.66169391E+01</rscale>
<asrwt>0</asrwt>
<pdfrwt beam="1">  1       21 0.73649177E-03 0.66169391E+01</pdfrwt>
<pdfrwt beam="2">  1       21 0.21042232E-02 0.66169391E+01</pdfrwt>
<totfact> 0.18243816E+09</totfact>
</mgrwt>
</event>
<event>
 4    1  0.3964155E+006  0.1468803E+02  0.7546771E-02  0.1877740E+00
         21   -1    0    0  501  502  0.00000000000E+00  0.00000000000E+00  0.21576916599E+03  0.21576916599E+03  0.00000000000E+00 0.  1.
         21   -1    0    0  502  503 -0.00000000000E+00 -0.00000000000E+00 -0.12081469902E+01  0.12081469902E+01  0.00000000000E+00 0. -1.
          5    1    1    2  501    0  0.12384531557E+02  0.63459945107E+01  0.15232678093E+03  0.15303328546E+03  0.47000000000E+01 0.  1.
         -5    1    1    2    0  503 -0.12384531557E+02 -0.63459945107E+01  0.62234238071E+02  0.63944027528E+02  0.47000000000E+01 0. -1.
<mgrwt>
<rscale>  2 0.14688031E+02</rscale>
<asrwt>0</asrwt>
<pdfrwt beam="1">  1       21 0.33195226E-01 0.14688031E+02</pdfrwt>
<pdfrwt beam="2">  1       21 0.18586894E-03 0.14688031E+02</pdfrwt>
<totfact> 0.25367802E+08</totfact>
</mgrwt>
</event>
<event>
 4    1  0.3964155E+006  0.5382742E+01  0.7546771E-02  0.2503428E+00
         21   -1    0    0  501  502  0.00000000000E+00  0.00000000000E+00  0.43521079818E+02  0.43521079818E+02  0.00000000000E+00 0.  1.
         21   -1    0    0  502  503 -0.00000000000E+00 -0.00000000000E+00 -0.11006911303E+01  0.11006911303E+01  0.00000000000E+00 0.  1.
          5    1    1    2  501    0 -0.21666091855E+01  0.14797695697E+01  0.35235170438E+02  0.35643949685E+02  0.47000000000E+01 0.  1.
         -5    1    1    2    0  503  0.21666091855E+01 -0.14797695697E+01  0.71852182498E+01  0.89778212635E+01  0.47000000000E+01 0.  1.
<mgrwt>
<rscale>  2 0.53827422E+01</rscale>
<asrwt>0</asrwt>
<pdfrwt beam="1">  1       21 0.66955494E-02 0.53827422E+01</pdfrwt>
<pdfrwt beam="2">  1       21 0.16933713E-03 0.53827422E+01</pdfrwt>
<totfact> 0.21225948E+09</totfact>
</mgrwt>
</event>
<event>
 4    1  0.3964155E+006  0.5045844E+01  0.7546771E-02  0.2559085E+00
         21   -1    0    0  503  502  0.00000000000E+00  0.00000000000E+00  0.91527448938E-01  0.91527448938E-01  0.00000000000E+00 0.  1.
         21   -1    0    0  501  503 -0.00000000000E+00 -0.00000000000E+00 -0.28717759463E+03  0.28717759463E+03  0.00000000000E+00 0.  1.
          5    1    1    2  501    0 -0.65556628132E+00  0.17148700291E+01 -0.16897584279E+03  0.16905116383E+03  0.47000000000E+01 0.  1.
         -5    1    1    2    0  502  0.65556628132E+00 -0.17148700291E+01 -0.11811022439E+03  0.11821795825E+03  0.47000000000E+01 0.  1.
<mgrwt>
<rscale>  2 0.50458445E+01</rscale>
<asrwt>0</asrwt>
<pdfrwt beam="1">  1       21 0.14081120E-04 0.50458445E+01</pdfrwt>
<pdfrwt beam="2">  1       21 0.44181249E-01 0.50458445E+01</pdfrwt>
<totfact> 0.27185476E+09</totfact>
</mgrwt>
</event>
<event>
 4    1  0.3964155E+006  0.8642647E+01  0.7546771E-02  0.2161610E+00
         21   -1    0    0  501  502  0.00000000000E+00  0.00000000000E+00  0.18082451103E+00  0.18082451103E+00  0.00000000000E+00 0.  1.
         21   -1    0    0  502  503 -0.00000000000E+00 -0.00000000000E+00 -0.49482594635E+03  0.49482594635E+03  0.00000000000E+00 0. -1.
          5    1    1    2  501    0  0.36818487678E+01  0.62489462216E+01 -0.14672605880E+03  0.14698037852E+03  0.47000000000E+01 0. -1.
         -5    1    1    2    0  503 -0.36818487678E+01 -0.62489462216E+01 -0.34791906303E+03  0.34802639233E+03  0.47000000000E+01 0.  1.
<mgrwt>
<rscale>  2 0.86426465E+01</rscale>
<asrwt>0</asrwt>
<pdfrwt beam="1">  1       21 0.27819663E-04 0.86426465E+01</pdfrwt>
<pdfrwt beam="2">  1       21 0.76125680E-01 0.86426465E+01</pdfrwt>
<totfact> 0.57783964E+08</totfact>
</mgrwt>
</event>
<event>
 4    1  0.3964155E+006  0.8502083E+01  0.7546771E-02  0.2171820E+00
         21   -1    0    0  501  502  0.00000000000E+00  0.00000000000E+00  0.20322624537E+02  0.20322624537E+02  0.00000000000E+00 0.  1.
         21   -1    0    0  502  503 -0.00000000000E+00 -0.00000000000E+00 -0.62746090027E+01  0.62746090027E+01  0.00000000000E+00 0.  1.
          5    1    1    2  501    0  0.10461606775E+01  0.70072078043E+01  0.15776165255E+02  0.17921294695E+02  0.47000000000E+01 0.  1.
         -5    1    1    2    0  503 -0.10461606775E+01 -0.70072078043E+01 -0.17281497213E+01  0.86759388446E+01  0.47000000000E+01 0.  1.
<mgrwt>
<rscale>  2 0.85020829E+01</rscale>
<asrwt>0</asrwt>
<pdfrwt beam="1">  1       21 0.31265576E-02 0.85020829E+01</pdfrwt>
<pdfrwt beam="2">  1       21 0.96532447E-03 0.85020829E+01</pdfrwt>
<totfact> 0.82985992E+08</totfact>
</mgrwt>
</event>
<event>
 4    1  0.3964155E+006  0.9517673E+01  0.7546771E-02  0.2103523E+00
         21   -1    0    0  501  502  0.00000000000E+00  0.00000000000E+00  0.10227616573E+00  0.10227616573E+00  0.00000000000E+00 0. -1.
         21   -1    0    0  502  503 -0.00000000000E+00 -0.00000000000E+00 -0.90245232175E+03  0.90245232175E+03  0.00000000000E+00 0.  1.
          5    1    1    2  501    0  0.51293151464E-02 -0.82762349162E+01 -0.51265834979E+03  0.51274669155E+03  0.47000000000E+01 0.  1.
         -5    1    1    2    0  503 -0.51293151464E-02  0.82762349162E+01 -0.38969169579E+03  0.38980790636E+03  0.47000000000E+01 0. -1.
<mgrwt>
<rscale>  2 0.95176725E+01</rscale>
<asrwt>0</asrwt>
<pdfrwt beam="1">  1       21 0.15735699E-04 0.95176725E+01</pdfrwt>
<pdfrwt beam="2">  1       21 0.13883084E+00 0.95176725E+01</pdfrwt>
<totfact> 0.37338236E+08</totfact>
</mgrwt>
</event>
<event>
 4    1  0.3964155E+006  0.4887963E+01  0.7546771E-02  0.2587421E+00
         21   -1    0    0  503  502  0.00000000000E+00  0.00000000000E+00  0.27789427401E+02  0.27789427401E+02  0.00000000000E+00 0.  1.
         21   -1    0    0  501  503 -0.00000000000E+00 -0.00000000000E+00 -0.10201281159E+01  0.10201281159E+01  0.00000000000E+00 0.  1.
          5    1    1    2  501    0  0.47803700180E+00 -0.12544564671E+01  0.19096029275E+02  0.19711684719E+02  0.47000000000E+01 0.  1.
         -5    1    1    2    0  502 -0.47803700180E+00  0.12544564671E+01  0.76732700111E+01  0.90978707985E+01  0.47000000000E+01 0.  1.
<mgrwt>
<rscale>  2 0.48879628E+01</rscale>
<asrwt>0</asrwt>
<pdfrwt beam="1">  1       21 0.42752960E-02 0.48879628E+01</pdfrwt>
<pdfrwt beam="2">  1       21 0.15694281E-03 0.48879628E+01</pdfrwt>
<totfact> 0.41280635E+09</totfact>
</mgrwt>
</event>
<event>
 4    1  0.3964155E+006  0.9166906E+01  0.7546771E-02  0.2125750E+00
         21   -1    0    0  503  502  0.00000000000E+00  0.00000000000E+00  0.40398169921E+01  0.40398169921E+01  0.00000000000E+00 0. -1.
         21   -1    0    0  501  503 -0.00000000000E+00 -0.00000000000E+00 -0.27383102174E+02  0.27383102174E+02  0.00000000000E+00 0.  1.
          5    1    1    2  501    0 -0.78701947595E+01  0.46933789054E-01 -0.39686753831E+01  0.99891217146E+01  0.47000000000E+01 0. -1.
         -5    1    1    2    0  502  0.78701947595E+01 -0.46933789054E-01 -0.19374609799E+02  0.21433797451E+02  0.47000000000E+01 0.  1.
<mgrwt>
<rscale>  2 0.91669061E+01</rscale>
<asrwt>0</asrwt>
<pdfrwt beam="1">  1       21 0.62151034E-03 0.91669061E+01</pdfrwt>
<pdfrwt beam="2">  1       21 0.42127848E-02 0.91669061E+01</pdfrwt>
<totfact> 0.10454804E+09</totfact>
</mgrwt>
</event>
<event>
 4    1  0.3964155E+006  0.8222544E+01  0.7546771E-02  0.2192950E+00
         21   -1    0    0  501  502  0.00000000000E+00  0.00000000000E+00  0.63539076552E+03  0.63539076552E+03  0.00000000000E+00 0. -1.
         21   -1    0    0  502  503 -0.00000000000E+00 -0.00000000000E+00 -0.27029993152E+00  0.27029993152E+00  0.00000000000E+00 0.  1.
          5    1    1    2  501    0  0.50326133536E+01 -0.44936651288E+01  0.56504720718E+03  0.56510703107E+03  0.47000000000E+01 0. -1.
         -5    1    1    2    0  503 -0.50326133536E+01  0.44936651288E+01  0.70073258416E+02  0.70554034388E+02  0.47000000000E+01 0.  1.
<mgrwt>
<rscale>  2 0.82225436E+01</rscale>
<asrwt>0</asrwt>
<pdfrwt beam="1">  1       21 0.97751230E-01 0.82225436E+01</pdfrwt>
<pdfrwt beam="2">  1       21 0.41585113E-04 0.82225436E+01</pdfrwt>
<totfact> 0.19738531E+08</totfact>
</mgrwt>
</event>
<event>
 4    1  0.3964155E+006  0.5998571E+01  0.7546771E-02  0.2415610E+00
         21   -1    0    0  503  502  0.00000000000E+00  0.00000000000E+00  0.29659742710E+01  0.29659742710E+01  0.00000000000E+00 0.  1.
         21   -1    0    0  501  503 -0.00000000000E+00 -0.00000000000E+00 -0.15559719431E+02  0.15559719431E+02  0.00000000000E+00 0.  1.
          5    1    1    2  501    0 -0.78198775955E-01 -0.37264917106E+01 -0.10644512729E+02  0.12218367597E+02  0.47000000000E+01 0.  1.
         -5    1    1    2    0  502  0.78198775955E-01  0.37264917106E+01 -0.19492324315E+01  0.63073261046E+01  0.47000000000E+01 0.  1.
<mgrwt>
<rscale>  2 0.59985711E+01</rscale>
<asrwt>0</asrwt>
<pdfrwt beam="1">  1       21 0.45630373E-03 0.59985711E+01</pdfrwt>
<pdfrwt beam="2">  1       21 0.23938030E-02 0.59985711E+01</pdfrwt>
<totfact> 0.27214063E+09</totfact>
</mgrwt>
</event>
<event>
 4    1  0.3964155E+006  0.1276653E+02  0.7546771E-02  0.1945014E+00
         21   -1    0    0  503  502  0.00000000000E+00  0.00000000000E+00  0.69620302888E+01  0.69620302888E+01  0.00000000000E+00 0. -1.
         21   -1    0    0  501  503 -0.00000000000E+00 -0.00000000000E+00 -0.54885481357E+02  0.54885481357E+02  0.00000000000E+00 0.  1.
          5    1    1    2  501    0  0.51330140465E+01  0.10702636888E+02 -0.47379551540E+02  0.49069401603E+02  0.47000000000E+01 0.  1.
         -5    1    1    2    0  502 -0.51330140465E+01 -0.10702636888E+02 -0.54389952832E+00  0.12778110043E+02  0.47000000000E+01 0. -1.
<mgrwt>
<rscale>  2 0.12766529E+02</rscale>
<asrwt>0</asrwt>
<pdfrwt beam="1">  1       21 0.10710816E-02 0.12766529E+02</pdfrwt>
<pdfrwt beam="2">  1       21 0.84439200E-02 0.12766529E+02</pdfrwt>
<totfact> 0.19170625E+08</totfact>
</mgrwt>
</event>
<event>
 4    1  0.3964155E+006  0.5184967E+01  0.7546771E-02  0.2535351E+00
         21   -1    0    0  501  502  0.00000000000E+00  0.00000000000E+00  0.41565833150E+02  0.41565833150E+02  0.00000000000E+00 0. -1.
         21   -1    0    0  502  503 -0.00000000000E+00 -0.00000000000E+00 -0.65893404557E+00  0.65893404557E+00  0.00000000000E+00 0. -1.
          5    1    1    2  501    0 -0.21490429860E+01  0.41892953531E+00  0.17585950324E+02  0.18334381269E+02  0.47000000000E+01 0.  1.
         -5    1    1    2    0  503  0.21490429860E+01 -0.41892953531E+00  0.23320948780E+02  0.23890385927E+02  0.47000000000E+01 0.  1.
<mgrwt>
<rscale>  2 0.51849675E+01</rscale>
<asrwt>0</asrwt>
<pdfrwt beam="1">  1       21 0.63947415E-02 0.51849675E+01</pdfrwt>
<pdfrwt beam="2">  1       21 0.10137450E-03 0.51849675E+01</pdfrwt>
<totfact> 0.43562533E+09</totfact>
</mgrwt>
</event>
<event>
 4    1  0.3964155E+006  0.5457974E+01  0.7546771E-02  0.2491804E+00
         21   -1    0    0  501  502  0.00000000000E+00  0.00000000000E+00  0.58486420827E+00  0.58486420827E+00  0.00000000000E+00 0. -1.
         21   -1    0    0  502  503 -0.00000000000E+00 -0.00000000000E+00 -0.53367819134E+02  0.53367819134E+02  0.00000000000E+00 0. -1.
          5    1    1    2  501    0 -0.11640349295E+01  0.25188300936E+01 -0.20630633160E+02  0.21340396129E+02  0.47000000000E+01 0. -1.
         -5    1    1    2    0  503  0.11640349295E+01 -0.25188300936E+01 -0.32152321765E+02  0.32612287213E+02  0.47000000000E+01 0. -1.
<mgrwt>
<rscale>  2 0.54579742E+01</rscale>
<asrwt>0</asrwt>
<pdfrwt beam="1">  1       21 0.89979110E-04 0.54579742E+01</pdfrwt>
<pdfrwt beam="2">  1       21 0.82104336E-02 0.54579742E+01</pdfrwt>
<totfact> 0.36965746E+09</totfact>
</mgrwt>
</event>
<event>
 4    1  0.3964155E+006  0.4805645E+01  0.7546771E-02  0.2602832E+00
         21   -1    0    0  501  502  0.00000000000E+00  0.00000000000E+00  0.31897005083E+04  0.31897005083E+04  0.00000000000E+00 0.  1.
         21   -1    0    0  502  503 -0.00000000000E+00 -0.00000000000E+00 -0.42964055351E-01  0.42964055351E-01  0.00000000000E+00 0.  1.
          5    1    1    2  501    0  0.14876028670E+00  0.99100810825E+00  0.30491220267E+04  0.30491258138E+04  0.47000000000E+01 0.  1.
         -5    1    1    2    0  503 -0.14876028670E+00 -0.99100810825E+00  0.14053551754E+03  0.14061765863E+03  0.47000000000E+01 0.  1.
<mgrwt>
<rscale>  2 0.48056453E+01</rscale>
<asrwt>0</asrwt>
<pdfrwt beam="1">  1       21 0.49053356E+00 0.48056453E+01</pdfrwt>
<pdfrwt beam="2">  1       21 0.66124094E-05 0.48056453E+01</pdfrwt>
<totfact> 0.21519092E+07</totfact>
</mgrwt>
</event>
<event>
 4    1  0.3964155E+006  0.5560664E+01  0.7546771E-02  0.2476371E+00
         21   -1    0    0  503  502  0.00000000000E+00  0.00000000000E+00  0.14669470369E+01  0.14669470369E+01  0.00000000000E+00 0. -1.
         21   -1    0    0  501  503 -0.00000000000E+00 -0.00000000000E+00 -0.75339865795E+02  0.75339865795E+02  0.00000000000E+00 0.  1.
          5    1    1    2  501    0  0.29665919285E+01 -0.17410732055E+00 -0.69527847424E+02  0.69749856978E+02  0.47000000000E+01 0.  1.
         -5    1    1    2    0  502 -0.29665919285E+01  0.17410732055E+00 -0.43450713348E+01  0.70569558546E+01  0.47000000000E+01 0. -1.
<mgrwt>
<rscale>  2 0.55606637E+01</rscale>
<asrwt>0</asrwt>
<pdfrwt beam="1">  1       21 0.22568414E-03 0.55606637E+01</pdfrwt>
<pdfrwt beam="2">  1       21 0.11590750E-01 0.55606637E+01</pdfrwt>
<totfact> 0.64499870E+08</totfact>
</mgrwt>
</event>
<event>
 4    1  0.3964155E+006  0.4753453E+01  0.7546771E-02  0.2612842E+00
         21   -1    0    0  503  502  0.00000000000E+00  0.00000000000E+00  0.35815225263E+00  0.35815225263E+00  0.00000000000E+00 0. -1.
         21   -1    0    0  501  503 -0.00000000000E+00 -0.00000000000E+00 -0.63135595601E+02  0.63135595601E+02  0.00000000000E+00 0. -1.
          5    1    1    2  501    0 -0.22859682577E+00  0.67309788353E+00 -0.30522394600E+02  0.30890320319E+02  0.47000000000E+01 0. -1.
         -5    1    1    2    0  502  0.22859682577E+00 -0.67309788353E+00 -0.32255048748E+02  0.32603427535E+02  0.47000000000E+01 0. -1.
<mgrwt>
<rscale>  2 0.47534532E+01</rscale>
<asrwt>0</asrwt>
<pdfrwt beam="1">  1       21 0.55100385E-04 0.47534532E+01</pdfrwt>
<pdfrwt beam="2">  1       21 0.97131618E-02 0.47534532E+01</pdfrwt>
<totfact> 0.47886310E+09</totfact>
</mgrwt>
</event>
<event>
 4    1  0.3964155E+006  0.4701305E+01  0.7546771E-02  0.2623036E+00
         21   -1    0    0  501  502  0.00000000000E+00  0.00000000000E+00  0.36778630329E+03  0.36778630329E+03  0.00000000000E+00 0. -1.
         21   -1    0    0  502  503 -0.00000000000E+00 -0.00000000000E+00 -0.72593589652E-01  0.72593589652E-01  0.00000000000E+00 0. -1.
          5    1    1    2  501    0  0.96780292138E-01  0.53846931258E-01  0.26017462011E+03  0.26021709247E+03  0.47000000000E+01 0. -1.
         -5    1    1    2    0  503 -0.96780292138E-01 -0.53846931258E-01  0.10753908959E+03  0.10764180441E+03  0.47000000000E+01 0. -1.
<mgrwt>
<rscale>  2 0.47013047E+01</rscale>
<asrwt>0</asrwt>
<pdfrwt beam="1">  1       21 0.56581016E-01 0.47013047E+01</pdfrwt>
<pdfrwt beam="2">  1       21 0.11168539E-04 0.47013047E+01</pdfrwt>
<totfact> 0.22356460E+09</totfact>
</mgrwt>
</event>
<event>
 4    1  0.3964155E+006  0.1141098E+02  0.7546771E-02  0.2002589E+00
         21   -1    0    0  501  502  0.00000000000E+00  0.00000000000E+00  0.16201301525E+02  0.16201301525E+02  0.00000000000E+00 0.  1.
         21   -1    0    0  502  503 -0.00000000000E+00 -0.00000000000E+00 -0.25882084458E+02  0.25882084458E+02  0.00000000000E+00 0.  1.
          5    1    1    2  501    0 -0.99438052782E+01  0.30399479283E+01  0.12631496772E+02  0.17022492694E+02  0.47000000000E+01 0.  1.
         -5    1    1    2    0  503  0.99438052782E+01 -0.30399479283E+01 -0.22312279705E+02  0.25060893289E+02  0.47000000000E+01 0.  1.
<mgrwt>
<rscale>  2 0.11410984E+02</rscale>
<asrwt>0</asrwt>
<pdfrwt beam="1">  1       21 0.24925080E-02 0.11410984E+02</pdfrwt>
<pdfrwt beam="2">  1       21 0.39818591E-02 0.11410984E+02</pdfrwt>
<totfact> 0.16807412E+08</totfact>
</mgrwt>
</event>
<event>
 4    1  0.3964155E+006  0.5352502E+01  0.7546771E-02  0.2508179E+00
         21   -1    0    0  501  502  0.00000000000E+00  0.00000000000E+00  0.38964413767E-01  0.38964413767E-01  0.00000000000E+00 0.  1.
         21   -1    0    0  502  503 -0.00000000000E+00 -0.00000000000E+00 -0.13993240140E+04  0.13993240140E+04  0.00000000000E+00 0.  1.
          5    1    1    2  501    0  0.25297325382E+01  0.39966606701E+00 -0.21764627877E+03  0.21771208497E+03  0.47000000000E+01 0.  1.
         -5    1    1    2    0  503 -0.25297325382E+01 -0.39966606701E+00 -0.11816387708E+04  0.11816508935E+04  0.47000000000E+01 0.  1.
<mgrwt>
<rscale>  2 0.53525022E+01</rscale>
<asrwt>0</asrwt>
<pdfrwt beam="1">  1       21 0.59937074E-05 0.53525022E+01</pdfrwt>
<pdfrwt beam="2">  1       21 0.21530999E+00 0.53525022E+01</pdfrwt>
<totfact> 0.38000618E+08</totfact>
</mgrwt>
</event>
<event>
 4    1  0.3964155E+006  0.6450095E+01  0.7546771E-02  0.2360282E+00
         21   -1    0    0  503  502  0.00000000000E+00  0.00000000000E+00  0.11312949777E+00  0.11312949777E+00  0.00000000000E+00 0. -1.
         21   -1    0    0  501  503 -0.00000000000E+00 -0.00000000000E+00 -0.43597751306E+03  0.43597751306E+03  0.00000000000E+00 0. -1.
          5    1    1    2  501    0  0.61616186517E+00 -0.43742515284E+01 -0.30418721488E+03  0.30425559227E+03  0.47000000000E+01 0. -1.
         -5    1    1    2    0  502 -0.61616186517E+00  0.43742515284E+01 -0.13167716867E+03  0.13183505028E+03  0.47000000000E+01 0. -1.
<mgrwt>
<rscale>  2 0.64500955E+01</rscale>
<asrwt>0</asrwt>
<pdfrwt beam="1">  1       21 0.17404491E-04 0.64500955E+01</pdfrwt>
<pdfrwt beam="2">  1       21 0.67073644E-01 0.64500955E+01</pdfrwt>
<totfact> 0.11621330E+09</totfact>
</mgrwt>
</event>
<event>
 4    1  0.3964155E+006  0.8917475E+01  0.7546771E-02  0.2142393E+00
         21   -1    0    0  503  502  0.00000000000E+00  0.00000000000E+00  0.28613561679E+02  0.28613561679E+02  0.00000000000E+00 0.  1.
         21   -1    0    0  501  503 -0.00000000000E+00 -0.00000000000E+00 -0.14570267415E+02  0.14570267415E+02  0.00000000000E+00 0. -1.
          5    1    1    2  501    0 -0.13203045825E+01  0.74624499266E+01 -0.12402183579E+02  0.15275323912E+02  0.47000000000E+01 0. -1.
         -5    1    1    2    0  502  0.13203045825E+01 -0.74624499266E+01  0.26445477843E+02  0.27908505181E+02  0.47000000000E+01 0.  1.
<mgrwt>
<rscale>  2 0.89174752E+01</rscale>
<asrwt>0</asrwt>
<pdfrwt beam="1">  1       21 0.44020864E-02 0.89174752E+01</pdfrwt>
<pdfrwt beam="2">  1       21 0.22415796E-02 0.89174752E+01</pdfrwt>
<totfact> 0.14973602E+08</totfact>
</mgrwt>
</event>
<event>
 4    1  0.3964155E+006  0.5038008E+01  0.7546771E-02  0.2560455E+00
         21   -1    0    0  501  502  0.00000000000E+00  0.00000000000E+00  0.51163013435E+02  0.51163013435E+02  0.00000000000E+00 0.  1.
         21   -1    0    0  502  503 -0.00000000000E+00 -0.00000000000E+00 -0.12283680630E+01  0.12283680630E+01  0.00000000000E+00 0.  1.
          5    1    1    2  501    0  0.80424918406E+00  0.16262548520E+01  0.45193008086E+02  0.45472953515E+02  0.47000000000E+01 0.  1.
         -5    1    1    2    0  503 -0.80424918406E+00 -0.16262548520E+01  0.47416372862E+01  0.69184279824E+01  0.47000000000E+01 0.  1.
<mgrwt>
<rscale>  2 0.50380077E+01</rscale>
<asrwt>0</asrwt>
<pdfrwt beam="1">  1       21 0.78712312E-02 0.50380077E+01</pdfrwt>
<pdfrwt beam="2">  1       21 0.18897974E-03 0.50380077E+01</pdfrwt>
<totfact> 0.13515585E+09</totfact>
</mgrwt>
</event>
<event>
 4    1  0.3964155E+006  0.6141753E+01  0.7546771E-02  0.2397331E+00
         21   -1    0    0  503  502  0.00000000000E+00  0.00000000000E+00  0.52165889183E+01  0.52165889183E+01  0.00000000000E+00 0.  1.
         21   -1    0    0  501  503 -0.00000000000E+00 -0.00000000000E+00 -0.99719981672E+01  0.99719981672E+01  0.00000000000E+00 0.  1.
          5    1    1    2  501    0 -0.31861048353E+01  0.23409125152E+01 -0.63592433734E+01  0.88408773155E+01  0.47000000000E+01 0.  1.
         -5    1    1    2    0  502  0.31861048353E+01 -0.23409125152E+01  0.16038341246E+01  0.63477097700E+01  0.47000000000E+01 0.  1.
<mgrwt>
<rscale>  2 0.61417534E+01</rscale>
<asrwt>0</asrwt>
<pdfrwt beam="1">  1       21 0.80255216E-03 0.61417534E+01</pdfrwt>
<pdfrwt beam="2">  1       21 0.15341535E-02 0.61417534E+01</pdfrwt>
<totfact> 0.23921928E+09</totfact>
</mgrwt>
</event>
<event>
 4    1  0.3964155E+006  0.6303321E+01  0.7546771E-02  0.2377542E+00
         21   -1    0    0  503  502  0.00000000000E+00  0.00000000000E+00  0.41783184171E+02  0.41783184171E+02  0.00000000000E+00 0. -1.
         21   -1    0    0  501  503 -0.00000000000E+00 -0.00000000000E+00 -0.11738819210E+01  0.11738819210E+01  0.00000000000E+00 0. -1.
          5    1    1    2  501    0  0.41565023542E+01  0.60443839989E+00  0.29665644262E+02  0.30327913003E+02  0.47000000000E+01 0. -1.
         -5    1    1    2    0  502 -0.41565023542E+01 -0.60443839989E+00  0.10943657988E+02  0.12629153089E+02  0.47000000000E+01 0. -1.
<mgrwt>
<rscale>  2 0.63033212E+01</rscale>
<asrwt>0</asrwt>
<pdfrwt beam="1">  1       21 0.64281810E-02 0.63033212E+01</pdfrwt>
<pdfrwt beam="2">  1       21 0.18059725E-03 0.63033212E+01</pdfrwt>
<totfact> 0.23712771E+09</totfact>
</mgrwt>
</event>
<event>
 4    1  0.3964155E+006  0.4780618E+01  0.7546771E-02  0.2607608E+00
         21   -1    0    0  501  502  0.00000000000E+00  0.00000000000E+00  0.27361625077E+03  0.27361625077E+03  0.00000000000E+00 0. -1.
         21   -1    0    0  502  503 -0.00000000000E+00 -0.00000000000E+00 -0.13381225290E+00  0.13381225290E+00  0.00000000000E+00 0.  1.
          5    1    1    2  501    0  0.66113157777E+00 -0.57202646323E+00  0.22064802108E+03  0.22069980407E+03  0.47000000000E+01 0. -1.
         -5    1    1    2    0  503 -0.66113157777E+00  0.57202646323E+00  0.52834417434E+02  0.53050258951E+02  0.47000000000E+01 0.  1.
<mgrwt>
<rscale>  2 0.47806181E+01</rscale>
<asrwt>0</asrwt>
<pdfrwt beam="1">  1       21 0.42094360E-01 0.47806181E+01</pdfrwt>
<pdfrwt beam="2">  1       21 0.20586719E-04 0.47806181E+01</pdfrwt>
<totfact> 0.17043257E+09</totfact>
</mgrwt>
</event>
<event>
 4    1  0.3964155E+006  0.5716483E+01  0.7546771E-02  0.2453852E+00
         21   -1    0    0  503  502  0.00000000000E+00  0.00000000000E+00  0.11344522970E+01  0.11344522970E+01  0.00000000000E+00 0.  1.
         21   -1    0    0  501  503 -0.00000000000E+00 -0.00000000000E+00 -0.12933233681E+03  0.12933233681E+03  0.00000000000E+00 0.  1.
          5    1    1    2  501    0 -0.32359266872E+01 -0.34198144634E+00 -0.12161087760E+03  0.12174515893E+03  0.47000000000E+01 0.  1.
         -5    1    1    2    0  502  0.32359266872E+01  0.34198144634E+00 -0.65870069141E+01  0.87216301757E+01  0.47000000000E+01 0.  1.
<mgrwt>
<rscale>  2 0.57164826E+01</rscale>
<asrwt>0</asrwt>
<pdfrwt beam="1">  1       21 0.17453099E-03 0.57164826E+01</pdfrwt>
<pdfrwt beam="2">  1       21 0.19897297E-01 0.57164826E+01</pdfrwt>
<totfact> 0.39912744E+08</totfact>
</mgrwt>
</event>
<event>
 4    1  0.3964155E+006  0.9552352E+01  0.7546771E-02  0.2101396E+00
         21   -1    0    0  501  502  0.00000000000E+00  0.00000000000E+00  0.28031395235E+03  0.28031395235E+03  0.00000000000E+00 0. -1.
         21   -1    0    0  502  503 -0.00000000000E+00 -0.00000000000E+00 -0.39822523997E+00  0.39822523997E+00  0.00000000000E+00 0. -1.
          5    1    1    2  501    0 -0.72752449532E+01  0.40284286283E+01  0.19993057437E+03  0.20015864207E+03  0.47000000000E+01 0. -1.
         -5    1    1    2    0  503  0.72752449532E+01 -0.40284286283E+01  0.79985152740E+02  0.80553535523E+02  0.47000000000E+01 0. -1.
<mgrwt>
<rscale>  2 0.95523519E+01</rscale>
<asrwt>0</asrwt>
<pdfrwt beam="1">  1       21 0.43125066E-01 0.95523519E+01</pdfrwt>
<pdfrwt beam="2">  1       21 0.61265646E-04 0.95523519E+01</pdfrwt>
<totfact> 0.61046840E+08</totfact>
</mgrwt>
</event>
<event>
 4    1  0.3964155E+006  0.7977939E+01  0.7546771E-02  0.2212409E+00
         21   -1    0    0  501  502  0.00000000000E+00  0.00000000000E+00  0.14823228218E+02  0.14823228218E+02  0.00000000000E+00 0.  1.
         21   -1    0    0  502  503 -0.00000000000E+00 -0.00000000000E+00 -0.68357857990E+01  0.68357857990E+01  0.00000000000E+00 0. -1.
          5    1    1    2  501    0 -0.57197221711E+01 -0.29735988666E+01  0.10597670136E+02  0.13264920816E+02  0.47000000000E+01 0.  1.
         -5    1    1    2    0  503  0.57197221711E+01  0.29735988666E+01 -0.26102277172E+01  0.83940932012E+01  0.47000000000E+01 0. -1.
<mgrwt>
<rscale>  2 0.79779391E+01</rscale>
<asrwt>0</asrwt>
<pdfrwt beam="1">  1       21 0.22804966E-02 0.79779391E+01</pdfrwt>
<pdfrwt beam="2">  1       21 0.10516594E-02 0.79779391E+01</pdfrwt>
<totfact> 0.11222676E+09</totfact>
</mgrwt>
</event>
<event>
 4    1  0.3964155E+006  0.6254518E+01  0.7546771E-02  0.2383430E+00
         21   -1    0    0  501  502  0.00000000000E+00  0.00000000000E+00  0.87027031675E+01  0.87027031675E+01  0.00000000000E+00 0. -1.
         21   -1    0    0  502  503 -0.00000000000E+00 -0.00000000000E+00 -0.75649742003E+01  0.75649742003E+01  0.00000000000E+00 0.  1.
          5    1    1    2  501    0 -0.16188091347E+01  0.37958460686E+01  0.57503755682E+01  0.84962232531E+01  0.47000000000E+01 0. -1.
         -5    1    1    2    0  503  0.16188091347E+01 -0.37958460686E+01 -0.46126466010E+01  0.77714541147E+01  0.47000000000E+01 0.  1.
<mgrwt>
<rscale>  2 0.62545176E+01</rscale>
<asrwt>0</asrwt>
<pdfrwt beam="1">  1       21 0.13388774E-02 0.62545176E+01</pdfrwt>
<pdfrwt beam="2">  1       21 0.11638422E-02 0.62545176E+01</pdfrwt>
<totfact> 0.17450562E+09</totfact>
</mgrwt>
</event>
<event>
 4    1  0.3964155E+006  0.4779829E+01  0.7546771E-02  0.2607759E+00
         21   -1    0    0  501  502  0.00000000000E+00  0.00000000000E+00  0.18366191743E+03  0.18366191743E+03  0.00000000000E+00 0.  1.
         21   -1    0    0  502  503 -0.00000000000E+00 -0.00000000000E+00 -0.12475219857E+00  0.12475219857E+00  0.00000000000E+00 0.  1.
          5    1    1    2  501    0 -0.62379576064E+00  0.60633814245E+00  0.86856775116E+02  0.86988195467E+02  0.47000000000E+01 0.  1.
         -5    1    1    2    0  503  0.62379576064E+00 -0.60633814245E+00  0.96680390119E+02  0.96798474165E+02  0.47000000000E+01 0.  1.
<mgrwt>
<rscale>  2 0.47798292E+01</rscale>
<asrwt>0</asrwt>
<pdfrwt beam="1">  1       21 0.28255463E-01 0.47798292E+01</pdfrwt>
<pdfrwt beam="2">  1       21 0.19192793E-04 0.47798292E+01</pdfrwt>
<totfact> 0.36536485E+09</totfact>
</mgrwt>
</event>
<event>
 4    1  0.3964155E+006  0.7755793E+01  0.7546771E-02  0.2230933E+00
         21   -1    0    0  501  502  0.00000000000E+00  0.00000000000E+00  0.73449185600E+00  0.73449185600E+00  0.00000000000E+00 0. -1.
         21   -1    0    0  502  503 -0.00000000000E+00 -0.00000000000E+00 -0.90695266346E+02  0.90695266346E+02  0.00000000000E+00 0. -1.
          5    1    1    2  501    0 -0.38467047365E+01  0.48233996086E+01 -0.30741506223E+02  0.31704771344E+02  0.47000000000E+01 0. -1.
         -5    1    1    2    0  503  0.38467047365E+01 -0.48233996086E+01 -0.59219268267E+02  0.59724986858E+02  0.47000000000E+01 0. -1.
<mgrwt>
<rscale>  2 0.77557927E+01</rscale>
<asrwt>0</asrwt>
<pdfrwt beam="1">  1       21 0.11299879E-03 0.77557927E+01</pdfrwt>
<pdfrwt beam="2">  1       21 0.13953112E-01 0.77557927E+01</pdfrwt>
<totfact> 0.15819411E+09</totfact>
</mgrwt>
</event>
<event>
 4    1  0.3964155E+006  0.8980852E+01  0.7546771E-02  0.2138095E+00
         21   -1    0    0  501  502  0.00000000000E+00  0.00000000000E+00  0.13225978285E+00  0.13225978285E+00  0.00000000000E+00 0.  1.
         21   -1    0    0  502  503 -0.00000000000E+00 -0.00000000000E+00 -0.85604720882E+03  0.85604720882E+03  0.00000000000E+00 0. -1.
          5    1    1    2  501    0 -0.63381730421E+01  0.42887373333E+01 -0.19837062372E+03  0.19857381514E+03  0.47000000000E+01 0.  1.
         -5    1    1    2    0  503  0.63381730421E+01 -0.42887373333E+01 -0.65754432533E+03  0.65760565347E+03  0.47000000000E+01 0. -1.
<mgrwt>
<rscale>  2 0.89808522E+01</rscale>
<asrwt>0</asrwt>
<pdfrwt beam="1">  1       21 0.20347748E-04 0.89808522E+01</pdfrwt>
<pdfrwt beam="2">  1       21 0.13169900E+00 0.89808522E+01</pdfrwt>
<totfact> 0.28826207E+08</totfact>
</mgrwt>
</event>
<event>
 4    1  0.3964155E+006  0.4816612E+01  0.7546771E-02  0.2600752E+00
         21   -1    0    0  503  502  0.00000000000E+00  0.00000000000E+00  0.13367744808E+01  0.13367744808E+01  0.00000000000E+00 0. -1.
         21   -1    0    0  501  503 -0.00000000000E+00 -0.00000000000E+00 -0.20970784051E+02  0.20970784051E+02  0.00000000000E+00 0. -1.
          5    1    1    2  501    0  0.95342912604E+00  0.44802084936E+00 -0.14448430110E+02  0.15230130742E+02  0.47000000000E+01 0. -1.
         -5    1    1    2    0  502 -0.95342912604E+00 -0.44802084936E+00 -0.51855794600E+01  0.70774277895E+01  0.47000000000E+01 0. -1.
<mgrwt>
<rscale>  2 0.48166119E+01</rscale>
<asrwt>0</asrwt>
<pdfrwt beam="1">  1       21 0.20565761E-03 0.48166119E+01</pdfrwt>
<pdfrwt beam="2">  1       21 0.32262746E-02 0.48166119E+01</pdfrwt>
<totfact> 0.42463920E+09</totfact>
</mgrwt>
</event>
<event>
 4    1  0.3964155E+006  0.7447192E+01  0.7546771E-02  0.2258140E+00
         21   -1    0    0  501  502  0.00000000000E+00  0.00000000000E+00  0.18684618834E+01  0.18684618834E+01  0.00000000000E+00 0. -1.
         21   -1    0    0  502  503 -0.00000000000E+00 -0.00000000000E+00 -0.33827227955E+02  0.33827227955E+02  0.00000000000E+00 0. -1.
          5    1    1    2  501    0 -0.20780924909E+01  0.53900098779E+01 -0.97319868115E+01  0.12254478454E+02  0.47000000000E+01 0. -1.
         -5    1    1    2    0  503  0.20780924909E+01 -0.53900098779E+01 -0.22226779261E+02  0.23441211385E+02  0.47000000000E+01 0. -1.
<mgrwt>
<rscale>  2 0.74471924E+01</rscale>
<asrwt>0</asrwt>
<pdfrwt beam="1">  1       21 0.28745569E-03 0.74471924E+01</pdfrwt>
<pdfrwt beam="2">  1       21 0.52041886E-02 0.74471924E+01</pdfrwt>
<totfact> 0.19575285E+09</totfact>
</mgrwt>
</event>
<event>
 4    1  0.3964155E+006  0.4746538E+01  0.7546771E-02  0.2614182E+00
         21   -1    0    0  503  502  0.00000000000E+00  0.00000000000E+00  0.29736459229E+02  0.29736459229E+02  0.00000000000E+00 0.  1.
         21   -1    0    0  501  503 -0.00000000000E+00 -0.00000000000E+00 -0.85283555554E+00  0.85283555554E+00  0.00000000000E+00 0.  1.
          5    1    1    2  501    0 -0.11868076805E+00  0.65233312231E+00  0.19551660624E+02  0.20119569001E+02  0.47000000000E+01 0.  1.
         -5    1    1    2    0  502  0.11868076805E+00 -0.65233312231E+00  0.93319630494E+01  0.10469725784E+02  0.47000000000E+01 0.  1.
<mgrwt>
<rscale>  2 0.47465381E+01</rscale>
<asrwt>0</asrwt>
<pdfrwt beam="1">  1       21 0.45748391E-02 0.47465381E+01</pdfrwt>
<pdfrwt beam="2">  1       21 0.13120549E-03 0.47465381E+01</pdfrwt>
<totfact> 0.46046245E+09</totfact>
</mgrwt>
</event>
<event>
 4    1  0.3964155E+006  0.6351478E+01  0.7546771E-02  0.2371806E+00
         21   -1    0    0  503  502  0.00000000000E+00  0.00000000000E+00  0.18614927989E+04  0.18614927989E+04  0.00000000000E+00 0. -1.
         21   -1    0    0  501  503 -0.00000000000E+00 -0.00000000000E+00 -0.16077840847E+00  0.16077840847E+00  0.00000000000E+00 0.  1.
          5    1    1    2  501    0  0.39912870959E+01  0.15234511950E+01  0.64842419238E+02  0.65152748284E+02  0.47000000000E+01 0.  1.
         -5    1    1    2    0  502 -0.39912870959E+01 -0.15234511950E+01  0.17964896012E+04  0.17965008290E+04  0.47000000000E+01 0. -1.
<mgrwt>
<rscale>  2 0.63514783E+01</rscale>
<asrwt>0</asrwt>
<pdfrwt beam="1">  1       21 0.28636625E+00 0.63514783E+01</pdfrwt>
<pdfrwt beam="2">  1       21 0.24736631E-04 0.63514783E+01</pdfrwt>
<totfact> 0.31805062E+07</totfact>
</mgrwt>
</event>
<event>
 4    1  0.3964155E+006  0.6693878E+01  0.7546771E-02  0.2333008E+00
         21   -1    0    0  501  502  0.00000000000E+00  0.00000000000E+00  0.10587453144E+04  0.10587453144E+04  0.00000000000E+00 0.  1.
         21   -1    0    0  502  503 -0.00000000000E+00 -0.00000000000E+00 -0.55809158225E-01  0.55809158225E-01  0.00000000000E+00 0. -1.
          5    1    1    2  501    0 -0.41712717519E+01 -0.23061875508E+01  0.78959735667E+03  0.78962573012E+03  0.47000000000E+01 0.  1.
         -5    1    1    2    0  503  0.41712717519E+01  0.23061875508E+01  0.26909214855E+03  0.26917539342E+03  0.47000000000E+01 0.  1.
<mgrwt>
<rscale>  2 0.66938785E+01</rscale>
<asrwt>0</asrwt>
<pdfrwt beam="1">  1       21 0.16286781E+00 0.66938785E+01</pdfrwt>
<pdfrwt beam="2">  1       21 0.85868723E-05 0.66938785E+01</pdfrwt>
<totfact> 0.49653458E+08</totfact>
</mgrwt>
</event>
<event>
 4    1  0.3964155E+006  0.4865230E+01  0.7546771E-02  0.2591632E+00
         21   -1    0    0  503  502  0.00000000000E+00  0.00000000000E+00  0.19211321064E+00  0.19211321064E+00  0.00000000000E+00 0. -1.
         21   -1    0    0  501  503 -0.00000000000E+00 -0.00000000000E+00 -0.35365499362E+03  0.35365499362E+03  0.00000000000E+00 0. -1.
          5    1    1    2  501    0 -0.99437205548E+00 -0.76920904622E+00 -0.31954796615E+03  0.31958500141E+03  0.47000000000E+01 0. -1.
         -5    1    1    2    0  502  0.99437205548E+00  0.76920904622E+00 -0.33914914255E+02  0.34262105412E+02  0.47000000000E+01 0. -1.
<mgrwt>
<rscale>  2 0.48652295E+01</rscale>
<asrwt>0</asrwt>
<pdfrwt beam="1">  1       21 0.29555899E-04 0.48652295E+01</pdfrwt>
<pdfrwt beam="2">  1       21 0.54408422E-01 0.48652295E+01</pdfrwt>
<totfact> 0.68323922E+08</totfact>
</mgrwt>
</event>
<event>
 4    1  0.3964155E+006  0.5399874E+01  0.7546771E-02  0.2500757E+00
         21   -1    0    0  503  502  0.00000000000E+00  0.00000000000E+00  0.10441547508E+00  0.10441547508E+00  0.00000000000E+00 0.  1.
         21   -1    0    0  501  503 -0.00000000000E+00 -0.00000000000E+00 -0.34351245648E+03  0.34351245648E+03  0.00000000000E+00 0. -1.
          5    1    1    2  501    0 -0.45837276168E+00 -0.26188792128E+01 -0.24601142262E+03  0.24607067825E+03  0.47000000000E+01 0. -1.
         -5    1    1    2    0  502  0.45837276168E+00  0.26188792128E+01 -0.97396618388E+02  0.97546193710E+02  0.47000000000E+01 0.  1.
<mgrwt>
<rscale>  2 0.53998735E+01</rscale>
<asrwt>0</asrwt>
<pdfrwt beam="1">  1       21 0.16063761E-04 0.53998735E+01</pdfrwt>
<pdfrwt beam="2">  1       21 0.52848591E-01 0.53998735E+01</pdfrwt>
<totfact> 0.17604752E+09</totfact>
</mgrwt>
</event>
