<event>
 4    1  0.3989279E+006  0.4855971E+01  0.7546771E-02  0.2593357E+00
         21   -1    0    0  501  502  0.00000000000E+00  0.00000000000E+00  0.16889891413E+01  0.16889891413E+01  0.00000000000E+00 0. -1.
         21   -1    0    0  502  503 -0.00000000000E+00 -0.00000000000E+00 -0.16940931181E+02  0.16940931181E+02  0.00000000000E+00 0. -1.
          5    1    1    2  501    0 -0.50944205832E+00 -0.11094678600E+01 -0.37194057659E+01  0.61167335560E+01  0.47000000000E+01 0. -1.
         -5    1    1    2    0  503  0.50944205832E+00  0.11094678600E+01 -0.11532536274E+02  0.12513186766E+02  0.47000000000E+01 0. -1.
<mgrwt>
<rscale>  2 0.48559706E+01</rscale>
<asrwt>0</asrwt>
<pdfrwt beam="1">  1       21 0.25984447E-03 0.48559706E+01</pdfrwt>
<pdfrwt beam="2">  1       21 0.26062973E-02 0.48559706E+01</pdfrwt>
<totfact> 0.42413535E+09</totfact>
</mgrwt>
</event>
<event>
 4    1  0.3989279E+006  0.9883874E+01  0.7546771E-02  0.2081657E+00
         21   -1    0    0  501  502  0.00000000000E+00  0.00000000000E+00  0.19908386760E+03  0.19908386760E+03  0.00000000000E+00 0. -1.
         21   -1    0    0  502  503 -0.00000000000E+00 -0.00000000000E+00 -0.76964868537E+00  0.76964868537E+00  0.00000000000E+00 0.  1.
          5    1    1    2  501    0 -0.56743266572E+01 -0.65880936024E+01  0.15931543108E+03  0.15962173267E+03  0.47000000000E+01 0. -1.
         -5    1    1    2    0  503  0.56743266572E+01  0.65880936024E+01  0.38998787840E+02  0.40231783621E+02  0.47000000000E+01 0.  1.
<mgrwt>
<rscale>  2 0.98838738E+01</rscale>
<asrwt>0</asrwt>
<pdfrwt beam="1">  1       21 0.30628246E-01 0.98838738E+01</pdfrwt>
<pdfrwt beam="2">  1       21 0.11840765E-03 0.98838738E+01</pdfrwt>
<totfact> 0.46203425E+08</totfact>
</mgrwt>
</event>
<event>
 4    1  0.3989279E+006  0.4850028E+01  0.7546771E-02  0.2594467E+00
         21   -1    0    0  501  502  0.00000000000E+00  0.00000000000E+00  0.29497531037E+01  0.29497531037E+01  0.00000000000E+00 0.  1.
         21   -1    0    0  502  503 -0.00000000000E+00 -0.00000000000E+00 -0.82158947742E+01  0.82158947742E+01  0.00000000000E+00 0.  1.
          5    1    1    2  501    0 -0.36220481234E-01 -0.11964342718E+01 -0.16760918638E+01  0.51314764762E+01  0.47000000000E+01 0.  1.
         -5    1    1    2    0  503  0.36220481234E-01  0.11964342718E+01 -0.35900498067E+01  0.60341714016E+01  0.47000000000E+01 0.  1.
<mgrwt>
<rscale>  2 0.48500275E+01</rscale>
<asrwt>0</asrwt>
<pdfrwt beam="1">  1       21 0.45380818E-03 0.48500275E+01</pdfrwt>
<pdfrwt beam="2">  1       21 0.12639838E-02 0.48500275E+01</pdfrwt>
<totfact> 0.55134857E+09</totfact>
</mgrwt>
</event>
<event>
 4    1  0.3989279E+006  0.9236417E+01  0.7546771E-02  0.2121240E+00
         21   -1    0    0  503  502  0.00000000000E+00  0.00000000000E+00  0.38146066118E+01  0.38146066118E+01  0.00000000000E+00 0.  1.
         21   -1    0    0  501  503 -0.00000000000E+00 -0.00000000000E+00 -0.60891819186E+02  0.60891819186E+02  0.00000000000E+00 0.  1.
          5    1    1    2  501    0 -0.79277708540E+01 -0.60979602879E+00 -0.54273529677E+02  0.55053859315E+02  0.47000000000E+01 0.  1.
         -5    1    1    2    0  502  0.79277708540E+01  0.60979602879E+00 -0.28036828973E+01  0.96525664825E+01  0.47000000000E+01 0.  1.
<mgrwt>
<rscale>  2 0.92364172E+01</rscale>
<asrwt>0</asrwt>
<pdfrwt beam="1">  1       21 0.58686259E-03 0.92364172E+01</pdfrwt>
<pdfrwt beam="2">  1       21 0.93679716E-02 0.92364172E+01</pdfrwt>
<totfact> 0.33260481E+08</totfact>
</mgrwt>
</event>
<event>
 4    1  0.3989279E+006  0.1134712E+02  0.7546771E-02  0.2005560E+00
         21   -1    0    0  503  502  0.00000000000E+00  0.00000000000E+00  0.20382607309E+01  0.20382607309E+01  0.00000000000E+00 0.  1.
         21   -1    0    0  501  503 -0.00000000000E+00 -0.00000000000E+00 -0.71537628171E+02  0.71537628171E+02  0.00000000000E+00 0. -1.
          5    1    1    2  501    0 -0.10307432243E+02 -0.65118378176E+00 -0.47331287676E+02  0.48672456203E+02  0.47000000000E+01 0. -1.
         -5    1    1    2    0  502  0.10307432243E+02  0.65118378176E+00 -0.22168079765E+02  0.24903432700E+02  0.47000000000E+01 0.  1.
<mgrwt>
<rscale>  2 0.11347123E+02</rscale>
<asrwt>0</asrwt>
<pdfrwt beam="1">  1       21 0.31357858E-03 0.11347123E+02</pdfrwt>
<pdfrwt beam="2">  1       21 0.11005789E-01 0.11347123E+02</pdfrwt>
<totfact> 0.70003230E+08</totfact>
</mgrwt>
</event>
<event>
 4    1  0.3989279E+006  0.1308293E+02  0.7546771E-02  0.1932909E+00
         21   -1    0    0  501  502  0.00000000000E+00  0.00000000000E+00  0.96189655044E+01  0.96189655044E+01  0.00000000000E+00 0. -1.
         21   -1    0    0  502  503 -0.00000000000E+00 -0.00000000000E+00 -0.20055552930E+02  0.20055552930E+02  0.00000000000E+00 0. -1.
          5    1    1    2  501    0 -0.60078918955E+01  0.10629123160E+02 -0.10200345950E+02  0.16589456944E+02  0.47000000000E+01 0. -1.
         -5    1    1    2    0  503  0.60078918955E+01 -0.10629123160E+02 -0.23624147582E+00  0.13085061491E+02  0.47000000000E+01 0. -1.
<mgrwt>
<rscale>  2 0.13082929E+02</rscale>
<asrwt>0</asrwt>
<pdfrwt beam="1">  1       21 0.14798409E-02 0.13082929E+02</pdfrwt>
<pdfrwt beam="2">  1       21 0.30854697E-02 0.13082929E+02</pdfrwt>
<totfact> 0.57505056E+08</totfact>
</mgrwt>
</event>
<event>
 4    1  0.3989279E+006  0.5154605E+01  0.7546771E-02  0.2540437E+00
         21   -1    0    0  503  502  0.00000000000E+00  0.00000000000E+00  0.15682775561E+01  0.15682775561E+01  0.00000000000E+00 0.  1.
         21   -1    0    0  501  503 -0.00000000000E+00 -0.00000000000E+00 -0.23616911366E+02  0.23616911366E+02  0.00000000000E+00 0.  1.
          5    1    1    2  501    0  0.13232610318E+01 -0.16519475931E+01 -0.43297508510E+01  0.67317674529E+01  0.47000000000E+01 0.  1.
         -5    1    1    2    0  502 -0.13232610318E+01  0.16519475931E+01 -0.17718882959E+02  0.18453421469E+02  0.47000000000E+01 0.  1.
<mgrwt>
<rscale>  2 0.51546048E+01</rscale>
<asrwt>0</asrwt>
<pdfrwt beam="1">  1       21 0.24127347E-03 0.51546048E+01</pdfrwt>
<pdfrwt beam="2">  1       21 0.36333710E-02 0.51546048E+01</pdfrwt>
<totfact> 0.30945874E+09</totfact>
</mgrwt>
</event>
<event>
 4    1  0.3989279E+006  0.8453797E+01  0.7546771E-02  0.2175390E+00
         21   -1    0    0  503  502  0.00000000000E+00  0.00000000000E+00  0.41166680726E+01  0.41166680726E+01  0.00000000000E+00 0.  1.
         21   -1    0    0  501  503 -0.00000000000E+00 -0.00000000000E+00 -0.18552936945E+02  0.18552936945E+02  0.00000000000E+00 0. -1.
          5    1    1    2  501    0  0.21577810745E+01 -0.66873508086E+01 -0.10091943388E+02  0.13164877567E+02  0.47000000000E+01 0.  1.
         -5    1    1    2    0  502 -0.21577810745E+01  0.66873508086E+01 -0.43443254849E+01  0.95047274512E+01  0.47000000000E+01 0. -1.
<mgrwt>
<rscale>  2 0.84537968E+01</rscale>
<asrwt>0</asrwt>
<pdfrwt beam="1">  1       21 0.63333355E-03 0.84537968E+01</pdfrwt>
<pdfrwt beam="2">  1       21 0.28542980E-02 0.84537968E+01</pdfrwt>
<totfact> 0.17299238E+09</totfact>
</mgrwt>
</event>
<event>
 4    1  0.3989279E+006  0.4843953E+01  0.7546771E-02  0.2595604E+00
         21   -1    0    0  503  502  0.00000000000E+00  0.00000000000E+00  0.54687225160E+02  0.54687225160E+02  0.00000000000E+00 0. -1.
         21   -1    0    0  501  503 -0.00000000000E+00 -0.00000000000E+00 -0.63017914908E+00  0.63017914908E+00  0.00000000000E+00 0. -1.
          5    1    1    2  501    0 -0.79199348302E+00 -0.86407407433E+00  0.11403131784E+02  0.12389321699E+02  0.47000000000E+01 0. -1.
         -5    1    1    2    0  502  0.79199348302E+00  0.86407407433E+00  0.42653914226E+02  0.42928082609E+02  0.47000000000E+01 0. -1.
<mgrwt>
<rscale>  2 0.48439527E+01</rscale>
<asrwt>0</asrwt>
<pdfrwt beam="1">  1       21 0.84134155E-02 0.48439527E+01</pdfrwt>
<pdfrwt beam="2">  1       21 0.96950681E-04 0.48439527E+01</pdfrwt>
<totfact> 0.28685180E+09</totfact>
</mgrwt>
</event>
<event>
 4    1  0.3989279E+006  0.5786540E+01  0.7546771E-02  0.2444062E+00
         21   -1    0    0  501  502  0.00000000000E+00  0.00000000000E+00  0.23962983026E+01  0.23962983026E+01  0.00000000000E+00 0.  1.
         21   -1    0    0  502  503 -0.00000000000E+00 -0.00000000000E+00 -0.22141564964E+02  0.22141564964E+02  0.00000000000E+00 0. -1.
          5    1    1    2  501    0  0.26922730364E+01 -0.20361026201E+01 -0.24206970971E+01  0.62724654179E+01  0.47000000000E+01 0.  1.
         -5    1    1    2    0  503 -0.26922730364E+01  0.20361026201E+01 -0.17324569564E+02  0.18265397848E+02  0.47000000000E+01 0.  1.
<mgrwt>
<rscale>  2 0.57865402E+01</rscale>
<asrwt>0</asrwt>
<pdfrwt beam="1">  1       21 0.36866129E-03 0.57865402E+01</pdfrwt>
<pdfrwt beam="2">  1       21 0.34063945E-02 0.57865402E+01</pdfrwt>
<totfact> 0.21226921E+09</totfact>
</mgrwt>
</event>
<event>
 4    1  0.3989279E+006  0.5932045E+01  0.7546771E-02  0.2424353E+00
         21   -1    0    0  503  502  0.00000000000E+00  0.00000000000E+00  0.38397070359E+01  0.38397070359E+01  0.00000000000E+00 0. -1.
         21   -1    0    0  501  503 -0.00000000000E+00 -0.00000000000E+00 -0.95662408897E+01  0.95662408897E+01  0.00000000000E+00 0. -1.
          5    1    1    2  501    0 -0.36184597995E+01  0.76835270423E-01 -0.42368261563E+01  0.72897085578E+01  0.47000000000E+01 0. -1.
         -5    1    1    2    0  502  0.36184597995E+01 -0.76835270423E-01 -0.14897076975E+01  0.61162393677E+01  0.47000000000E+01 0. -1.
<mgrwt>
<rscale>  2 0.59320448E+01</rscale>
<asrwt>0</asrwt>
<pdfrwt beam="1">  1       21 0.59072416E-03 0.59320448E+01</pdfrwt>
<pdfrwt beam="2">  1       21 0.14717294E-02 0.59320448E+01</pdfrwt>
<totfact> 0.37793835E+09</totfact>
</mgrwt>
</event>
<event>
 4    1  0.3989279E+006  0.1113001E+02  0.7546771E-02  0.2015860E+00
         21   -1    0    0  503  502  0.00000000000E+00  0.00000000000E+00  0.13894838479E+02  0.13894838479E+02  0.00000000000E+00 0.  1.
         21   -1    0    0  501  503 -0.00000000000E+00 -0.00000000000E+00 -0.96335845631E+01  0.96335845631E+01  0.00000000000E+00 0. -1.
          5    1    1    2  501    0 -0.47697348554E+01 -0.88902590379E+01 -0.10816126562E+01  0.11182439908E+02  0.47000000000E+01 0. -1.
         -5    1    1    2    0  502  0.47697348554E+01  0.88902590379E+01  0.53428665725E+01  0.12345983135E+02  0.47000000000E+01 0.  1.
<mgrwt>
<rscale>  2 0.11130008E+02</rscale>
<asrwt>0</asrwt>
<pdfrwt beam="1">  1       21 0.21376675E-02 0.11130008E+02</pdfrwt>
<pdfrwt beam="2">  1       21 0.14820899E-02 0.11130008E+02</pdfrwt>
<totfact> 0.91829947E+08</totfact>
</mgrwt>
</event>
<event>
 4    1  0.3989279E+006  0.7068082E+01  0.7546771E-02  0.2294184E+00
         21   -1    0    0  501  502  0.00000000000E+00  0.00000000000E+00  0.19396370946E+01  0.19396370946E+01  0.00000000000E+00 0. -1.
         21   -1    0    0  502  503 -0.00000000000E+00 -0.00000000000E+00 -0.55305764853E+02  0.55305764853E+02  0.00000000000E+00 0. -1.
          5    1    1    2  501    0 -0.69167859619E+00 -0.52334845273E+01 -0.57611898322E+01  0.91186121674E+01  0.47000000000E+01 0. -1.
         -5    1    1    2    0  503  0.69167859619E+00  0.52334845273E+01 -0.47604937926E+02  0.48126789780E+02  0.47000000000E+01 0. -1.
<mgrwt>
<rscale>  2 0.70680817E+01</rscale>
<asrwt>0</asrwt>
<pdfrwt beam="1">  1       21 0.29840574E-03 0.70680817E+01</pdfrwt>
<pdfrwt beam="2">  1       21 0.85085782E-02 0.70680817E+01</pdfrwt>
<totfact> 0.84705802E+08</totfact>
</mgrwt>
</event>
<event>
 4    1  0.3989279E+006  0.6085917E+01  0.7546771E-02  0.2404374E+00
         21   -1    0    0  501  502  0.00000000000E+00  0.00000000000E+00  0.26921789334E+02  0.26921789334E+02  0.00000000000E+00 0. -1.
         21   -1    0    0  502  503 -0.00000000000E+00 -0.00000000000E+00 -0.14875338636E+01  0.14875338636E+01  0.00000000000E+00 0. -1.
          5    1    1    2  501    0 -0.11011982969E+01  0.37061770269E+01  0.16610572684E+02  0.17690379045E+02  0.47000000000E+01 0. -1.
         -5    1    1    2    0  503  0.11011982969E+01 -0.37061770269E+01  0.88236827861E+01  0.10718944153E+02  0.47000000000E+01 0. -1.
<mgrwt>
<rscale>  2 0.60859170E+01</rscale>
<asrwt>0</asrwt>
<pdfrwt beam="1">  1       21 0.41418134E-02 0.60859170E+01</pdfrwt>
<pdfrwt beam="2">  1       21 0.22885138E-03 0.60859170E+01</pdfrwt>
<totfact> 0.32044283E+09</totfact>
</mgrwt>
</event>
<event>
 4    1  0.3989279E+006  0.6216785E+01  0.7546771E-02  0.2388035E+00
         21   -1    0    0  503  502  0.00000000000E+00  0.00000000000E+00  0.12320267297E+02  0.12320267297E+02  0.00000000000E+00 0.  1.
         21   -1    0    0  501  503 -0.00000000000E+00 -0.00000000000E+00 -0.31753584474E+01  0.31753584474E+01  0.00000000000E+00 0. -1.
          5    1    1    2  501    0  0.28220348120E+01  0.29316436520E+01  0.37206609500E+01  0.72451178657E+01  0.47000000000E+01 0. -1.
         -5    1    1    2    0  502 -0.28220348120E+01 -0.29316436520E+01  0.54242478997E+01  0.82505078789E+01  0.47000000000E+01 0.  1.
<mgrwt>
<rscale>  2 0.62167849E+01</rscale>
<asrwt>0</asrwt>
<pdfrwt beam="1">  1       21 0.18954257E-02 0.62167849E+01</pdfrwt>
<pdfrwt beam="2">  1       21 0.48851669E-03 0.62167849E+01</pdfrwt>
<totfact> 0.35756617E+09</totfact>
</mgrwt>
</event>
<event>
 4    1  0.3989279E+006  0.4919720E+01  0.7546771E-02  0.2581595E+00
         21   -1    0    0  501  502  0.00000000000E+00  0.00000000000E+00  0.34947744297E+03  0.34947744297E+03  0.00000000000E+00 0.  1.
         21   -1    0    0  502  503 -0.00000000000E+00 -0.00000000000E+00 -0.92250996480E-01  0.92250996480E-01  0.00000000000E+00 0. -1.
          5    1    1    2  501    0 -0.60961495533E+00 -0.13198551031E+01  0.26195526369E+03  0.26200145767E+03  0.47000000000E+01 0.  1.
         -5    1    1    2    0  503  0.60961495533E+00  0.13198551031E+01  0.87429928285E+02  0.87568236295E+02  0.47000000000E+01 0. -1.
<mgrwt>
<rscale>  2 0.49197203E+01</rscale>
<asrwt>0</asrwt>
<pdfrwt beam="1">  1       21 0.53764701E-01 0.49197203E+01</pdfrwt>
<pdfrwt beam="2">  1       21 0.14192741E-04 0.49197203E+01</pdfrwt>
<totfact> 0.18592470E+09</totfact>
</mgrwt>
</event>
<event>
 4    1  0.3989279E+006  0.5002493E+01  0.7546771E-02  0.2566712E+00
         21   -1    0    0  501  502  0.00000000000E+00  0.00000000000E+00  0.52312980994E+01  0.52312980994E+01  0.00000000000E+00 0.  1.
         21   -1    0    0  502  503 -0.00000000000E+00 -0.00000000000E+00 -0.47898868131E+01  0.47898868131E+01  0.00000000000E+00 0.  1.
          5    1    1    2  501    0  0.10679121851E+01  0.13395895554E+01  0.40085040028E+00  0.50185274389E+01  0.47000000000E+01 0.  1.
         -5    1    1    2    0  503 -0.10679121851E+01 -0.13395895554E+01  0.40560886043E-01  0.50026574735E+01  0.47000000000E+01 0.  1.
<mgrwt>
<rscale>  2 0.50024930E+01</rscale>
<asrwt>0</asrwt>
<pdfrwt beam="1">  1       21 0.80481509E-03 0.50024930E+01</pdfrwt>
<pdfrwt beam="2">  1       21 0.73690566E-03 0.50024930E+01</pdfrwt>
<totfact> 0.54871336E+09</totfact>
</mgrwt>
</event>
<event>
 4    1  0.3989279E+006  0.2002604E+02  0.7546771E-02  0.1744811E+00
         21   -1    0    0  503  502  0.00000000000E+00  0.00000000000E+00  0.94883222795E+02  0.94883222795E+02  0.00000000000E+00 0. -1.
         21   -1    0    0  501  503 -0.00000000000E+00 -0.00000000000E+00 -0.86151863445E+01  0.86151863445E+01  0.00000000000E+00 0. -1.
          5    1    1    2  501    0 -0.40709714514E+01 -0.19036265053E+02  0.61997845021E+01  0.20963766923E+02  0.47000000000E+01 0. -1.
         -5    1    1    2    0  502  0.40709714514E+01  0.19036265053E+02  0.80068251948E+02  0.82534642216E+02  0.47000000000E+01 0. -1.
<mgrwt>
<rscale>  2 0.20026038E+02</rscale>
<asrwt>0</asrwt>
<pdfrwt beam="1">  1       21 0.14597418E-01 0.20026038E+02</pdfrwt>
<pdfrwt beam="2">  1       21 0.13254133E-02 0.20026038E+02</pdfrwt>
<totfact> 0.66683586E+07</totfact>
</mgrwt>
</event>
<event>
 4    1  0.3989279E+006  0.5955893E+01  0.7546771E-02  0.2421200E+00
         21   -1    0    0  503  502  0.00000000000E+00  0.00000000000E+00  0.35280582678E+03  0.35280582678E+03  0.00000000000E+00 0. -1.
         21   -1    0    0  501  503 -0.00000000000E+00 -0.00000000000E+00 -0.10059157316E+00  0.10059157316E+00  0.00000000000E+00 0. -1.
          5    1    1    2  501    0 -0.11632135785E+01 -0.34683715987E+01  0.17253342435E+03  0.17263619315E+03  0.47000000000E+01 0. -1.
         -5    1    1    2    0  502  0.11632135785E+01  0.34683715987E+01  0.18017181085E+03  0.18027022520E+03  0.47000000000E+01 0. -1.
<mgrwt>
<rscale>  2 0.59558935E+01</rscale>
<asrwt>0</asrwt>
<pdfrwt beam="1">  1       21 0.54276829E-01 0.59558935E+01</pdfrwt>
<pdfrwt beam="2">  1       21 0.15475909E-04 0.59558935E+01</pdfrwt>
<totfact> 0.19032742E+09</totfact>
</mgrwt>
</event>
<event>
 4    1  0.3989279E+006  0.5861476E+01  0.7546771E-02  0.2433809E+00
         21   -1    0    0  501  502  0.00000000000E+00  0.00000000000E+00  0.76615319286E+00  0.76615319286E+00  0.00000000000E+00 0. -1.
         21   -1    0    0  502  503 -0.00000000000E+00 -0.00000000000E+00 -0.54844270727E+02  0.54844270727E+02  0.00000000000E+00 0.  1.
          5    1    1    2  501    0  0.14711059542E+00 -0.34993235227E+01 -0.38912584419E+02  0.39351570907E+02  0.47000000000E+01 0.  1.
         -5    1    1    2    0  503 -0.14711059542E+00  0.34993235227E+01 -0.15165533115E+02  0.16258853014E+02  0.47000000000E+01 0. -1.
<mgrwt>
<rscale>  2 0.58614765E+01</rscale>
<asrwt>0</asrwt>
<pdfrwt beam="1">  1       21 0.11786972E-03 0.58614765E+01</pdfrwt>
<pdfrwt beam="2">  1       21 0.84375806E-02 0.58614765E+01</pdfrwt>
<totfact> 0.26334281E+09</totfact>
</mgrwt>
</event>
<event>
 4    1  0.3989279E+006  0.9883512E+01  0.7546771E-02  0.2081678E+00
         21   -1    0    0  501  502  0.00000000000E+00  0.00000000000E+00  0.23043116443E+01  0.23043116443E+01  0.00000000000E+00 0.  1.
         21   -1    0    0  502  503 -0.00000000000E+00 -0.00000000000E+00 -0.73210250564E+02  0.73210250564E+02  0.00000000000E+00 0. -1.
          5    1    1    2  501    0  0.64511047377E+01  0.58289837374E+01 -0.10955539919E+02  0.14754919812E+02  0.47000000000E+01 0.  1.
         -5    1    1    2    0  503 -0.64511047377E+01 -0.58289837374E+01 -0.59950399001E+02  0.60759642396E+02  0.47000000000E+01 0. -1.
<mgrwt>
<rscale>  2 0.98835117E+01</rscale>
<asrwt>0</asrwt>
<pdfrwt beam="1">  1       21 0.35450951E-03 0.98835117E+01</pdfrwt>
<pdfrwt beam="2">  1       21 0.11263115E-01 0.98835117E+01</pdfrwt>
<totfact> 0.52719830E+08</totfact>
</mgrwt>
</event>
<event>
 4    1  0.3989279E+006  0.4777386E+01  0.7546771E-02  0.2608228E+00
         21   -1    0    0  501  502  0.00000000000E+00  0.00000000000E+00  0.21839731761E+01  0.21839731761E+01  0.00000000000E+00 0. -1.
         21   -1    0    0  502  503 -0.00000000000E+00 -0.00000000000E+00 -0.14607969696E+02  0.14607969696E+02  0.00000000000E+00 0. -1.
          5    1    1    2  501    0  0.62203706610E+00  0.58862771887E+00 -0.17328511387E+01  0.50819470454E+01  0.47000000000E+01 0. -1.
         -5    1    1    2    0  503 -0.62203706610E+00 -0.58862771887E+00 -0.10691145381E+02  0.11709995827E+02  0.47000000000E+01 0. -1.
<mgrwt>
<rscale>  2 0.47773856E+01</rscale>
<asrwt>0</asrwt>
<pdfrwt beam="1">  1       21 0.33599588E-03 0.47773856E+01</pdfrwt>
<pdfrwt beam="2">  1       21 0.22473799E-02 0.47773856E+01</pdfrwt>
<totfact> 0.36331158E+09</totfact>
</mgrwt>
</event>
<event>
 4    1  0.3989279E+006  0.5310576E+01  0.7546771E-02  0.2514841E+00
         21   -1    0    0  503  502  0.00000000000E+00  0.00000000000E+00  0.19499383985E+01  0.19499383985E+01  0.00000000000E+00 0. -1.
         21   -1    0    0  501  503 -0.00000000000E+00 -0.00000000000E+00 -0.15620115392E+02  0.15620115392E+02  0.00000000000E+00 0.  1.
          5    1    1    2  501    0 -0.83173014468E+00  0.23281849606E+01 -0.92260037002E+01  0.10645250797E+02  0.47000000000E+01 0.  1.
         -5    1    1    2    0  502  0.83173014468E+00 -0.23281849606E+01 -0.44441732929E+01  0.69248029937E+01  0.47000000000E+01 0. -1.
<mgrwt>
<rscale>  2 0.53105763E+01</rscale>
<asrwt>0</asrwt>
<pdfrwt beam="1">  1       21 0.29999052E-03 0.53105763E+01</pdfrwt>
<pdfrwt beam="2">  1       21 0.24030947E-02 0.53105763E+01</pdfrwt>
<totfact> 0.43007550E+09</totfact>
</mgrwt>
</event>
<event>
 4    1  0.3989279E+006  0.5015659E+01  0.7546771E-02  0.2564383E+00
         21   -1    0    0  503  502  0.00000000000E+00  0.00000000000E+00  0.42943240753E+03  0.42943240753E+03  0.00000000000E+00 0.  1.
         21   -1    0    0  501  503 -0.00000000000E+00 -0.00000000000E+00 -0.99427330546E-01  0.99427330546E-01  0.00000000000E+00 0.  1.
          5    1    1    2  501    0 -0.16154601436E+01 -0.67611053451E+00  0.77013448150E+02  0.77176602885E+02  0.47000000000E+01 0.  1.
         -5    1    1    2    0  502  0.16154601436E+01  0.67611053451E+00  0.35231953204E+03  0.35235523197E+03  0.47000000000E+01 0.  1.
<mgrwt>
<rscale>  2 0.50156592E+01</rscale>
<asrwt>0</asrwt>
<pdfrwt beam="1">  1       21 0.66065039E-01 0.50156592E+01</pdfrwt>
<pdfrwt beam="2">  1       21 0.15296856E-04 0.50156592E+01</pdfrwt>
<totfact> 0.11755521E+09</totfact>
</mgrwt>
</event>
<event>
 4    1  0.3989279E+006  0.5897093E+01  0.7546771E-02  0.2429013E+00
         21   -1    0    0  503  502  0.00000000000E+00  0.00000000000E+00  0.31401688598E+02  0.31401688598E+02  0.00000000000E+00 0.  1.
         21   -1    0    0  501  503 -0.00000000000E+00 -0.00000000000E+00 -0.17202545386E+01  0.17202545386E+01  0.00000000000E+00 0.  1.
          5    1    1    2  501    0  0.20347520969E+00  0.35558821482E+01  0.49562883823E+01  0.77032781685E+01  0.47000000000E+01 0.  1.
         -5    1    1    2    0  502 -0.20347520969E+00 -0.35558821482E+01  0.24725145677E+02  0.25418664968E+02  0.47000000000E+01 0.  1.
<mgrwt>
<rscale>  2 0.58970925E+01</rscale>
<asrwt>0</asrwt>
<pdfrwt beam="1">  1       21 0.48310286E-02 0.58970925E+01</pdfrwt>
<pdfrwt beam="2">  1       21 0.26465457E-03 0.58970925E+01</pdfrwt>
<totfact> 0.20367822E+09</totfact>
</mgrwt>
</event>
<event>
 4    1  0.3989279E+006  0.1256480E+02  0.7546771E-02  0.1952974E+00
         21   -1    0    0  503  502  0.00000000000E+00  0.00000000000E+00  0.60980168952E+00  0.60980168952E+00  0.00000000000E+00 0.  1.
         21   -1    0    0  501  503 -0.00000000000E+00 -0.00000000000E+00 -0.34149280177E+03  0.34149280177E+03  0.00000000000E+00 0.  1.
          5    1    1    2  501    0  0.81095822934E+01  0.83677228366E+01 -0.25456590362E+03  0.25487579994E+03  0.47000000000E+01 0.  1.
         -5    1    1    2    0  502 -0.81095822934E+01 -0.83677228366E+01 -0.86317096466E+02  0.87226803522E+02  0.47000000000E+01 0.  1.
<mgrwt>
<rscale>  2 0.12564796E+02</rscale>
<asrwt>0</asrwt>
<pdfrwt beam="1">  1       21 0.93815742E-04 0.12564796E+02</pdfrwt>
<pdfrwt beam="2">  1       21 0.52537299E-01 0.12564796E+02</pdfrwt>
<totfact> 0.26668080E+08</totfact>
</mgrwt>
</event>
<event>
 4    1  0.3989279E+006  0.9280346E+01  0.7546771E-02  0.2118417E+00
         21   -1    0    0  503  502  0.00000000000E+00  0.00000000000E+00  0.10327543634E+02  0.10327543634E+02  0.00000000000E+00 0.  1.
         21   -1    0    0  501  503 -0.00000000000E+00 -0.00000000000E+00 -0.10939995256E+02  0.10939995256E+02  0.00000000000E+00 0.  1.
          5    1    1    2  501    0 -0.10910005995E+01 -0.79274551323E+01 -0.54908900482E+01  0.10783074733E+02  0.47000000000E+01 0.  1.
         -5    1    1    2    0  502  0.10910005995E+01  0.79274551323E+01  0.48784384264E+01  0.10484464157E+02  0.47000000000E+01 0.  1.
<mgrwt>
<rscale>  2 0.92803463E+01</rscale>
<asrwt>0</asrwt>
<pdfrwt beam="1">  1       21 0.15888529E-02 0.92803463E+01</pdfrwt>
<pdfrwt beam="2">  1       21 0.16830762E-02 0.92803463E+01</pdfrwt>
<totfact> 0.10623829E+09</totfact>
</mgrwt>
</event>
<event>
 4    1  0.3989279E+006  0.8760458E+01  0.7546771E-02  0.2153255E+00
         21   -1    0    0  501  502  0.00000000000E+00  0.00000000000E+00  0.16320563279E+01  0.16320563279E+01  0.00000000000E+00 0.  1.
         21   -1    0    0  502  503 -0.00000000000E+00 -0.00000000000E+00 -0.47804510775E+02  0.47804510775E+02  0.00000000000E+00 0. -1.
          5    1    1    2  501    0 -0.39725699917E+00  0.73822627169E+01 -0.19927533241E+02  0.21768146385E+02  0.47000000000E+01 0.  1.
         -5    1    1    2    0  503  0.39725699917E+00 -0.73822627169E+01 -0.26244921206E+02  0.27668420718E+02  0.47000000000E+01 0. -1.
<mgrwt>
<rscale>  2 0.87604575E+01</rscale>
<asrwt>0</asrwt>
<pdfrwt beam="1">  1       21 0.25108559E-03 0.87604575E+01</pdfrwt>
<pdfrwt beam="2">  1       21 0.73545401E-02 0.87604575E+01</pdfrwt>
<totfact> 0.15579910E+09</totfact>
</mgrwt>
</event>
<event>
 4    1  0.3989279E+006  0.4985784E+01  0.7546771E-02  0.2569682E+00
         21   -1    0    0  503  502  0.00000000000E+00  0.00000000000E+00  0.15664248391E+02  0.15664248391E+02  0.00000000000E+00 0. -1.
         21   -1    0    0  501  503 -0.00000000000E+00 -0.00000000000E+00 -0.35665336660E+01  0.35665336660E+01  0.00000000000E+00 0. -1.
          5    1    1    2  501    0  0.77791614811E+00 -0.14706748840E+01 -0.11147719369E+01  0.51088897639E+01  0.47000000000E+01 0. -1.
         -5    1    1    2    0  502 -0.77791614811E+00  0.14706748840E+01  0.13212486662E+02  0.14121892293E+02  0.47000000000E+01 0. -1.
<mgrwt>
<rscale>  2 0.49857836E+01</rscale>
<asrwt>0</asrwt>
<pdfrwt beam="1">  1       21 0.24098843E-02 0.49857836E+01</pdfrwt>
<pdfrwt beam="2">  1       21 0.54869750E-03 0.49857836E+01</pdfrwt>
<totfact> 0.17586497E+09</totfact>
</mgrwt>
</event>
<event>
 4    1  0.3989279E+006  0.5200893E+01  0.7546771E-02  0.2532704E+00
         21   -1    0    0  501  502  0.00000000000E+00  0.00000000000E+00  0.70917013439E+02  0.70917013439E+02  0.00000000000E+00 0.  1.
         21   -1    0    0  502  503 -0.00000000000E+00 -0.00000000000E+00 -0.61197182449E+00  0.61197182449E+00  0.00000000000E+00 0.  1.
          5    1    1    2  501    0 -0.22266438914E+01  0.36633761090E-01  0.57104266963E+02  0.57340619027E+02  0.47000000000E+01 0.  1.
         -5    1    1    2    0  503  0.22266438914E+01 -0.36633761090E-01  0.13200774651E+02  0.14188366236E+02  0.47000000000E+01 0.  1.
<mgrwt>
<rscale>  2 0.52008927E+01</rscale>
<asrwt>0</asrwt>
<pdfrwt beam="1">  1       21 0.10910303E-01 0.52008927E+01</pdfrwt>
<pdfrwt beam="2">  1       21 0.94149567E-04 0.52008927E+01</pdfrwt>
<totfact> 0.21602565E+09</totfact>
</mgrwt>
</event>
<event>
 4    1  0.3989279E+006  0.8764126E+01  0.7546771E-02  0.2152998E+00
         21   -1    0    0  503  502  0.00000000000E+00  0.00000000000E+00  0.16327312789E+00  0.16327312789E+00  0.00000000000E+00 0. -1.
         21   -1    0    0  501  503 -0.00000000000E+00 -0.00000000000E+00 -0.54114272828E+03  0.54114272828E+03  0.00000000000E+00 0. -1.
          5    1    1    2  501    0 -0.63037904544E+01  0.38706751508E+01 -0.36832170953E+03  0.36842596490E+03  0.47000000000E+01 0. -1.
         -5    1    1    2    0  502  0.63037904544E+01 -0.38706751508E+01 -0.17265774563E+03  0.17288003651E+03  0.47000000000E+01 0. -1.
<mgrwt>
<rscale>  2 0.87641258E+01</rscale>
<asrwt>0</asrwt>
<pdfrwt beam="1">  1       21 0.25118680E-04 0.87641258E+01</pdfrwt>
<pdfrwt beam="2">  1       21 0.83253600E-01 0.87641258E+01</pdfrwt>
<totfact> 0.55931956E+08</totfact>
</mgrwt>
</event>
<event>
 4    1  0.3989279E+006  0.5129400E+01  0.7546771E-02  0.2544698E+00
         21   -1    0    0  501  502  0.00000000000E+00  0.00000000000E+00  0.60049144307E+00  0.60049144307E+00  0.00000000000E+00 0.  1.
         21   -1    0    0  502  503 -0.00000000000E+00 -0.00000000000E+00 -0.10766293843E+03  0.10766293843E+03  0.00000000000E+00 0. -1.
          5    1    1    2  501    0 -0.71143735677E+00  0.19273312692E+01 -0.11845159985E+02  0.12908081345E+02  0.47000000000E+01 0.  1.
         -5    1    1    2    0  503  0.71143735677E+00 -0.19273312692E+01 -0.95217287003E+02  0.95355348529E+02  0.47000000000E+01 0. -1.
<mgrwt>
<rscale>  2 0.51294004E+01</rscale>
<asrwt>0</asrwt>
<pdfrwt beam="1">  1       21 0.92383377E-04 0.51294004E+01</pdfrwt>
<pdfrwt beam="2">  1       21 0.16563515E-01 0.51294004E+01</pdfrwt>
<totfact> 0.11467447E+09</totfact>
</mgrwt>
</event>
<event>
 4    1  0.3989279E+006  0.4885141E+01  0.7546771E-02  0.2587942E+00
         21   -1    0    0  503  502  0.00000000000E+00  0.00000000000E+00  0.23130857436E+02  0.23130857436E+02  0.00000000000E+00 0. -1.
         21   -1    0    0  501  503 -0.00000000000E+00 -0.00000000000E+00 -0.49646294822E+01  0.49646294822E+01  0.00000000000E+00 0.  1.
          5    1    1    2  501    0 -0.11556216180E+01 -0.66267489749E+00 -0.34200534796E+01  0.59633350692E+01  0.47000000000E+01 0.  1.
         -5    1    1    2    0  502  0.11556216180E+01  0.66267489749E+00  0.21586281434E+02  0.22132151849E+02  0.47000000000E+01 0. -1.
<mgrwt>
<rscale>  2 0.48851407E+01</rscale>
<asrwt>0</asrwt>
<pdfrwt beam="1">  1       21 0.35585934E-02 0.48851407E+01</pdfrwt>
<pdfrwt beam="2">  1       21 0.76378917E-03 0.48851407E+01</pdfrwt>
<totfact> 0.62507862E+08</totfact>
</mgrwt>
</event>
<event>
 4    1  0.3989279E+006  0.5792231E+01  0.7546771E-02  0.2443276E+00
         21   -1    0    0  503  502  0.00000000000E+00  0.00000000000E+00  0.31835762942E+01  0.31835762942E+01  0.00000000000E+00 0.  1.
         21   -1    0    0  501  503 -0.00000000000E+00 -0.00000000000E+00 -0.24688258018E+02  0.24688258018E+02  0.00000000000E+00 0. -1.
          5    1    1    2  501    0  0.24097213709E+01 -0.23776413721E+01 -0.21302663032E+02  0.22076081805E+02  0.47000000000E+01 0. -1.
         -5    1    1    2    0  502 -0.24097213709E+01  0.23776413721E+01 -0.20201869182E+00  0.57957525078E+01  0.47000000000E+01 0.  1.
<mgrwt>
<rscale>  2 0.57922306E+01</rscale>
<asrwt>0</asrwt>
<pdfrwt beam="1">  1       21 0.48978097E-03 0.57922306E+01</pdfrwt>
<pdfrwt beam="2">  1       21 0.37981935E-02 0.57922306E+01</pdfrwt>
<totfact> 0.12241570E+09</totfact>
</mgrwt>
</event>
<event>
 4    1  0.3989279E+006  0.6124121E+01  0.7546771E-02  0.2399544E+00
         21   -1    0    0  503  502  0.00000000000E+00  0.00000000000E+00  0.13340222106E+03  0.13340222106E+03  0.00000000000E+00 0.  1.
         21   -1    0    0  501  503 -0.00000000000E+00 -0.00000000000E+00 -0.49501677800E+00  0.49501677800E+00  0.00000000000E+00 0.  1.
          5    1    1    2  501    0  0.39159294651E+01 -0.28346259930E+00  0.22447560456E+02  0.23267957045E+02  0.47000000000E+01 0.  1.
         -5    1    1    2    0  502 -0.39159294651E+01  0.28346259930E+00  0.11045964383E+03  0.11062928079E+03  0.47000000000E+01 0.  1.
<mgrwt>
<rscale>  2 0.61241207E+01</rscale>
<asrwt>0</asrwt>
<pdfrwt beam="1">  1       21 0.20523390E-01 0.61241207E+01</pdfrwt>
<pdfrwt beam="2">  1       21 0.76156533E-04 0.61241207E+01</pdfrwt>
<totfact> 0.12215555E+09</totfact>
</mgrwt>
</event>
<event>
 4    1  0.3989279E+006  0.6853197E+01  0.7546771E-02  0.2316053E+00
         21   -1    0    0  501  502  0.00000000000E+00  0.00000000000E+00  0.67618659751E+02  0.67618659751E+02  0.00000000000E+00 0.  1.
         21   -1    0    0  502  503 -0.00000000000E+00 -0.00000000000E+00 -0.81925821865E+00  0.81925821865E+00  0.00000000000E+00 0. -1.
          5    1    1    2  501    0  0.47594357876E+01  0.14913343324E+01  0.20050402964E+02  0.21189265351E+02  0.47000000000E+01 0. -1.
         -5    1    1    2    0  503 -0.47594357876E+01 -0.14913343324E+01  0.46748998569E+02  0.47248652619E+02  0.47000000000E+01 0.  1.
<mgrwt>
<rscale>  2 0.68531969E+01</rscale>
<asrwt>0</asrwt>
<pdfrwt beam="1">  1       21 0.10402866E-01 0.68531969E+01</pdfrwt>
<pdfrwt beam="2">  1       21 0.12603978E-03 0.68531969E+01</pdfrwt>
<totfact> 0.19803182E+09</totfact>
</mgrwt>
</event>
<event>
 4    1  0.3989279E+006  0.1133724E+02  0.7546771E-02  0.2006022E+00
         21   -1    0    0  501  502  0.00000000000E+00  0.00000000000E+00  0.16256416872E+02  0.16256416872E+02  0.00000000000E+00 0. -1.
         21   -1    0    0  502  503 -0.00000000000E+00 -0.00000000000E+00 -0.13497155010E+02  0.13497155010E+02  0.00000000000E+00 0.  1.
          5    1    1    2  501    0 -0.39107089586E+01  0.95472211456E+01  0.10954111952E+02  0.15764696154E+02  0.47000000000E+01 0. -1.
         -5    1    1    2    0  503  0.39107089586E+01 -0.95472211456E+01 -0.81948500902E+01  0.13988875729E+02  0.47000000000E+01 0.  1.
<mgrwt>
<rscale>  2 0.11337243E+02</rscale>
<asrwt>0</asrwt>
<pdfrwt beam="1">  1       21 0.25009872E-02 0.11337243E+02</pdfrwt>
<pdfrwt beam="2">  1       21 0.20764854E-02 0.11337243E+02</pdfrwt>
<totfact> 0.44490120E+08</totfact>
</mgrwt>
</event>
<event>
 4    1  0.3989279E+006  0.6556772E+01  0.7546771E-02  0.2348141E+00
         21   -1    0    0  503  502  0.00000000000E+00  0.00000000000E+00  0.20427013069E+02  0.20427013069E+02  0.00000000000E+00 0. -1.
         21   -1    0    0  501  503 -0.00000000000E+00 -0.00000000000E+00 -0.23537948603E+01  0.23537948603E+01  0.00000000000E+00 0.  1.
          5    1    1    2  501    0 -0.26372045046E+01 -0.37344888688E+01  0.53306523813E+01  0.84502727483E+01  0.47000000000E+01 0.  1.
         -5    1    1    2    0  502  0.26372045046E+01  0.37344888688E+01  0.12742565828E+02  0.14330535181E+02  0.47000000000E+01 0.  1.
<mgrwt>
<rscale>  2 0.65567717E+01</rscale>
<asrwt>0</asrwt>
<pdfrwt beam="1">  1       21 0.31426173E-02 0.65567717E+01</pdfrwt>
<pdfrwt beam="2">  1       21 0.36212230E-03 0.65567717E+01</pdfrwt>
<totfact> 0.27241082E+09</totfact>
</mgrwt>
</event>
<event>
 4    1  0.3989279E+006  0.6246915E+01  0.7546771E-02  0.2384354E+00
         21   -1    0    0  501  502  0.00000000000E+00  0.00000000000E+00  0.80682429312E-01  0.80682429312E-01  0.00000000000E+00 0.  1.
         21   -1    0    0  502  503 -0.00000000000E+00 -0.00000000000E+00 -0.88717770172E+03  0.88717770172E+03  0.00000000000E+00 0. -1.
          5    1    1    2  501    0 -0.33655229739E+01  0.23679520247E+01 -0.14436413134E+03  0.14449922615E+03  0.47000000000E+01 0.  1.
         -5    1    1    2    0  503  0.33655229739E+01 -0.23679520247E+01 -0.74273288796E+03  0.74275915800E+03  0.47000000000E+01 0. -1.
<mgrwt>
<rscale>  2 0.62469146E+01</rscale>
<asrwt>0</asrwt>
<pdfrwt beam="1">  1       21 0.12412848E-04 0.62469146E+01</pdfrwt>
<pdfrwt beam="2">  1       21 0.13648705E+00 0.62469146E+01</pdfrwt>
<totfact> 0.42697045E+08</totfact>
</mgrwt>
</event>
<event>
 4    1  0.3989279E+006  0.5305557E+01  0.7546771E-02  0.2515645E+00
         21   -1    0    0  501  502  0.00000000000E+00  0.00000000000E+00  0.76000542367E+00  0.76000542367E+00  0.00000000000E+00 0.  1.
         21   -1    0    0  502  503 -0.00000000000E+00 -0.00000000000E+00 -0.37038051719E+02  0.37038051719E+02  0.00000000000E+00 0.  1.
          5    1    1    2  501    0 -0.23911911345E+01  0.58407544619E+00 -0.18186949108E+02  0.18945027238E+02  0.47000000000E+01 0.  1.
         -5    1    1    2    0  503  0.23911911345E+01 -0.58407544619E+00 -0.18091097187E+02  0.18853029905E+02  0.47000000000E+01 0.  1.
<mgrwt>
<rscale>  2 0.53055574E+01</rscale>
<asrwt>0</asrwt>
<pdfrwt beam="1">  1       21 0.11692394E-03 0.53055574E+01</pdfrwt>
<pdfrwt beam="2">  1       21 0.56981603E-02 0.53055574E+01</pdfrwt>
<totfact> 0.43701967E+09</totfact>
</mgrwt>
</event>
<event>
 4    1  0.3989279E+006  0.6451741E+01  0.7546771E-02  0.2360092E+00
         21   -1    0    0  503  502  0.00000000000E+00  0.00000000000E+00  0.31033515269E+01  0.31033515269E+01  0.00000000000E+00 0.  1.
         21   -1    0    0  501  503 -0.00000000000E+00 -0.00000000000E+00 -0.35158153835E+02  0.35158153835E+02  0.00000000000E+00 0.  1.
          5    1    1    2  501    0  0.53886219541E-02  0.44198337486E+01 -0.31072713784E+02  0.31735445504E+02  0.47000000000E+01 0.  1.
         -5    1    1    2    0  502 -0.53886219541E-02 -0.44198337486E+01 -0.98208852387E+00  0.65260598581E+01  0.47000000000E+01 0.  1.
<mgrwt>
<rscale>  2 0.64517408E+01</rscale>
<asrwt>0</asrwt>
<pdfrwt beam="1">  1       21 0.47743870E-03 0.64517408E+01</pdfrwt>
<pdfrwt beam="2">  1       21 0.54089467E-02 0.64517408E+01</pdfrwt>
<totfact> 0.82010747E+08</totfact>
</mgrwt>
</event>
<event>
 4    1  0.3989279E+006  0.4798664E+01  0.7546771E-02  0.2604160E+00
         21   -1    0    0  501  502  0.00000000000E+00  0.00000000000E+00  0.18202954147E+01  0.18202954147E+01  0.00000000000E+00 0.  1.
         21   -1    0    0  502  503 -0.00000000000E+00 -0.00000000000E+00 -0.33426339090E+02  0.33426339090E+02  0.00000000000E+00 0.  1.
          5    1    1    2  501    0 -0.40110813720E+00 -0.88107269236E+00 -0.19090875944E+01  0.51644740555E+01  0.47000000000E+01 0.  1.
         -5    1    1    2    0  503  0.40110813720E+00  0.88107269236E+00 -0.29696956081E+02  0.30082160450E+02  0.47000000000E+01 0.  1.
<mgrwt>
<rscale>  2 0.47986641E+01</rscale>
<asrwt>0</asrwt>
<pdfrwt beam="1">  1       21 0.28004546E-03 0.47986641E+01</pdfrwt>
<pdfrwt beam="2">  1       21 0.51425136E-02 0.47986641E+01</pdfrwt>
<totfact> 0.14220634E+09</totfact>
</mgrwt>
</event>
<event>
 4    1  0.3989279E+006  0.4848032E+01  0.7546771E-02  0.2594840E+00
         21   -1    0    0  501  502  0.00000000000E+00  0.00000000000E+00  0.33675741602E+00  0.33675741602E+00  0.00000000000E+00 0. -1.
         21   -1    0    0  502  503 -0.00000000000E+00 -0.00000000000E+00 -0.10226299852E+03  0.10226299852E+03  0.00000000000E+00 0. -1.
          5    1    1    2  501    0 -0.88140260354E+00 -0.79783628471E+00 -0.22056577283E+02  0.22583091345E+02  0.47000000000E+01 0. -1.
         -5    1    1    2    0  503  0.88140260354E+00  0.79783628471E+00 -0.79869663826E+02  0.80016664595E+02  0.47000000000E+01 0. -1.
<mgrwt>
<rscale>  2 0.48480319E+01</rscale>
<asrwt>0</asrwt>
<pdfrwt beam="1">  1       21 0.51808767E-04 0.48480319E+01</pdfrwt>
<pdfrwt beam="2">  1       21 0.15732789E-01 0.48480319E+01</pdfrwt>
<totfact> 0.25364438E+09</totfact>
</mgrwt>
</event>
<event>
 4    1  0.3989279E+006  0.6297591E+01  0.7546771E-02  0.2378229E+00
         21   -1    0    0  503  502  0.00000000000E+00  0.00000000000E+00  0.68491206186E+02  0.68491206186E+02  0.00000000000E+00 0. -1.
         21   -1    0    0  501  503 -0.00000000000E+00 -0.00000000000E+00 -0.13193408246E+01  0.13193408246E+01  0.00000000000E+00 0.  1.
          5    1    1    2  501    0 -0.41632490063E+01  0.48683837028E+00  0.74393765104E+01  0.97469983457E+01  0.47000000000E+01 0. -1.
         -5    1    1    2    0  502  0.41632490063E+01 -0.48683837028E+00  0.59732488851E+02  0.60063548665E+02  0.47000000000E+01 0. -1.
<mgrwt>
<rscale>  2 0.62975911E+01</rscale>
<asrwt>0</asrwt>
<pdfrwt beam="1">  1       21 0.10537106E-01 0.62975911E+01</pdfrwt>
<pdfrwt beam="2">  1       21 0.20297556E-03 0.62975911E+01</pdfrwt>
<totfact> 0.95144935E+08</totfact>
</mgrwt>
</event>
<event>
 4    1  0.3989279E+006  0.8463160E+01  0.7546771E-02  0.2174695E+00
         21   -1    0    0  503  502  0.00000000000E+00  0.00000000000E+00  0.52583779369E+01  0.52583779369E+01  0.00000000000E+00 0.  1.
         21   -1    0    0  501  503 -0.00000000000E+00 -0.00000000000E+00 -0.14097955282E+02  0.14097955282E+02  0.00000000000E+00 0. -1.
          5    1    1    2  501    0  0.37325062474E+01  0.59668644473E+01 -0.26399012939E+01  0.88653343457E+01  0.47000000000E+01 0.  1.
         -5    1    1    2    0  502 -0.37325062474E+01 -0.59668644473E+01 -0.61996760517E+01  0.10490998874E+02  0.47000000000E+01 0. -1.
<mgrwt>
<rscale>  2 0.84631598E+01</rscale>
<asrwt>0</asrwt>
<pdfrwt beam="1">  1       21 0.80898121E-03 0.84631598E+01</pdfrwt>
<pdfrwt beam="2">  1       21 0.21689162E-02 0.84631598E+01</pdfrwt>
<totfact> 0.18310832E+09</totfact>
</mgrwt>
</event>
<event>
 4    1  0.3989279E+006  0.8326234E+01  0.7546771E-02  0.2184980E+00
         21   -1    0    0  501  502  0.00000000000E+00  0.00000000000E+00  0.78802581061E+01  0.78802581061E+01  0.00000000000E+00 0.  1.
         21   -1    0    0  502  503 -0.00000000000E+00 -0.00000000000E+00 -0.12720934531E+02  0.12720934531E+02  0.00000000000E+00 0. -1.
          5    1    1    2  501    0  0.66985465348E+01  0.15380650553E+01  0.33002261913E+01  0.89564313601E+01  0.47000000000E+01 0.  1.
         -5    1    1    2    0  503 -0.66985465348E+01 -0.15380650553E+01 -0.81409026163E+01  0.11644761277E+02  0.47000000000E+01 0. -1.
<mgrwt>
<rscale>  2 0.83262338E+01</rscale>
<asrwt>0</asrwt>
<pdfrwt beam="1">  1       21 0.12123474E-02 0.83262338E+01</pdfrwt>
<pdfrwt beam="2">  1       21 0.19570669E-02 0.83262338E+01</pdfrwt>
<totfact> 0.11770883E+09</totfact>
</mgrwt>
</event>
<event>
 4    1  0.3989279E+006  0.8171310E+01  0.7546771E-02  0.2196948E+00
         21   -1    0    0  501  502  0.00000000000E+00  0.00000000000E+00  0.50398395612E-01  0.50398395612E-01  0.00000000000E+00 0.  1.
         21   -1    0    0  502  503 -0.00000000000E+00 -0.00000000000E+00 -0.16129076129E+04  0.16129076129E+04  0.00000000000E+00 0. -1.
          5    1    1    2  501    0 -0.52818920014E+01  0.40965744474E+01 -0.46560620333E+03  0.46567790036E+03  0.47000000000E+01 0.  1.
         -5    1    1    2    0  503  0.52818920014E+01 -0.40965744474E+01 -0.11472510111E+04  0.11472801109E+04  0.47000000000E+01 0. -1.
<mgrwt>
<rscale>  2 0.81713099E+01</rscale>
<asrwt>0</asrwt>
<pdfrwt beam="1">  1       21 0.77523116E-05 0.81713099E+01</pdfrwt>
<pdfrwt beam="2">  1       21 0.24818085E+00 0.81713099E+01</pdfrwt>
<totfact> 0.23694175E+08</totfact>
</mgrwt>
</event>
<event>
 4    1  0.3989279E+006  0.6338377E+01  0.7546771E-02  0.2373359E+00
         21   -1    0    0  503  502  0.00000000000E+00  0.00000000000E+00  0.42887522268E+02  0.42887522268E+02  0.00000000000E+00 0.  1.
         21   -1    0    0  501  503 -0.00000000000E+00 -0.00000000000E+00 -0.28607212843E+01  0.28607212843E+01  0.00000000000E+00 0.  1.
          5    1    1    2  501    0  0.23219760645E+01 -0.35627875220E+01  0.12545778923E+01  0.64613461027E+01  0.47000000000E+01 0.  1.
         -5    1    1    2    0  502 -0.23219760645E+01  0.35627875220E+01  0.38772223092E+02  0.39286897450E+02  0.47000000000E+01 0.  1.
<mgrwt>
<rscale>  2 0.63383774E+01</rscale>
<asrwt>0</asrwt>
<pdfrwt beam="1">  1       21 0.65980799E-02 0.63383774E+01</pdfrwt>
<pdfrwt beam="2">  1       21 0.44011100E-03 0.63383774E+01</pdfrwt>
<totfact> 0.67244810E+08</totfact>
</mgrwt>
</event>
<event>
 4    1  0.3989279E+006  0.9128028E+01  0.7546771E-02  0.2128297E+00
         21   -1    0    0  503  502  0.00000000000E+00  0.00000000000E+00  0.66611286191E+01  0.66611286191E+01  0.00000000000E+00 0.  1.
         21   -1    0    0  501  503 -0.00000000000E+00 -0.00000000000E+00 -0.13595549171E+03  0.13595549171E+03  0.00000000000E+00 0.  1.
          5    1    1    2  501    0 -0.18391701488E+00  0.78228560501E+01 -0.13259601055E+03  0.13290983002E+03  0.47000000000E+01 0.  1.
         -5    1    1    2    0  502  0.18391701488E+00 -0.78228560501E+01  0.33016474555E+01  0.97067903124E+01  0.47000000000E+01 0.  1.
<mgrwt>
<rscale>  2 0.91280284E+01</rscale>
<asrwt>0</asrwt>
<pdfrwt beam="1">  1       21 0.10247890E-02 0.91280284E+01</pdfrwt>
<pdfrwt beam="2">  1       21 0.20916230E-01 0.91280284E+01</pdfrwt>
<totfact> 0.40485123E+07</totfact>
</mgrwt>
</event>
<event>
 4    1  0.3989279E+006  0.8386871E+01  0.7546771E-02  0.2180392E+00
         21   -1    0    0  503  502  0.00000000000E+00  0.00000000000E+00  0.22480124373E+01  0.22480124373E+01  0.00000000000E+00 0. -1.
         21   -1    0    0  501  503 -0.00000000000E+00 -0.00000000000E+00 -0.50844573968E+02  0.50844573968E+02  0.00000000000E+00 0.  1.
          5    1    1    2  501    0  0.69428459314E+01  0.21562840394E+00 -0.40761290575E+02  0.41615170486E+02  0.47000000000E+01 0.  1.
         -5    1    1    2    0  502 -0.69428459314E+01 -0.21562840394E+00 -0.78352709554E+01  0.11477415919E+02  0.47000000000E+01 0. -1.
<mgrwt>
<rscale>  2 0.83868710E+01</rscale>
<asrwt>0</asrwt>
<pdfrwt beam="1">  1       21 0.34584808E-03 0.83868710E+01</pdfrwt>
<pdfrwt beam="2">  1       21 0.78222419E-02 0.83868710E+01</pdfrwt>
<totfact> 0.87990920E+08</totfact>
</mgrwt>
</event>
<event>
 4    1  0.3989279E+006  0.7428943E+01  0.7546771E-02  0.2259806E+00
         21   -1    0    0  501  502  0.00000000000E+00  0.00000000000E+00  0.14810754895E+01  0.14810754895E+01  0.00000000000E+00 0.  1.
         21   -1    0    0  502  503 -0.00000000000E+00 -0.00000000000E+00 -0.48945037548E+02  0.48945037548E+02  0.00000000000E+00 0. -1.
          5    1    1    2  501    0  0.21802780140E+01  0.53240569128E+01 -0.11414213852E+02  0.13618864567E+02  0.47000000000E+01 0.  1.
         -5    1    1    2    0  503 -0.21802780140E+01 -0.53240569128E+01 -0.36049748206E+02  0.36807248471E+02  0.47000000000E+01 0. -1.
<mgrwt>
<rscale>  2 0.74289430E+01</rscale>
<asrwt>0</asrwt>
<pdfrwt beam="1">  1       21 0.22785777E-03 0.74289430E+01</pdfrwt>
<pdfrwt beam="2">  1       21 0.75300058E-02 0.74289430E+01</pdfrwt>
<totfact> 0.15376445E+09</totfact>
</mgrwt>
</event>
<event>
 4    1  0.3989279E+006  0.5224443E+01  0.7546771E-02  0.2528814E+00
         21   -1    0    0  501  502  0.00000000000E+00  0.00000000000E+00  0.61968107232E+01  0.61968107232E+01  0.00000000000E+00 0. -1.
         21   -1    0    0  502  503 -0.00000000000E+00 -0.00000000000E+00 -0.64834480014E+01  0.64834480014E+01  0.00000000000E+00 0. -1.
          5    1    1    2  501    0  0.22038391789E+01 -0.58982691488E+00 -0.37333719839E+01  0.64212825265E+01  0.47000000000E+01 0. -1.
         -5    1    1    2    0  503 -0.22038391789E+01  0.58982691488E+00  0.34467347057E+01  0.62589761980E+01  0.47000000000E+01 0. -1.
<mgrwt>
<rscale>  2 0.52244428E+01</rscale>
<asrwt>0</asrwt>
<pdfrwt beam="1">  1       21 0.95335550E-03 0.52244428E+01</pdfrwt>
<pdfrwt beam="2">  1       21 0.99745354E-03 0.52244428E+01</pdfrwt>
<totfact> 0.29750214E+09</totfact>
</mgrwt>
</event>
<event>
 4    1  0.3989279E+006  0.4748583E+01  0.7546771E-02  0.2613786E+00
         21   -1    0    0  503  502  0.00000000000E+00  0.00000000000E+00  0.13351630780E+00  0.13351630780E+00  0.00000000000E+00 0.  1.
         21   -1    0    0  501  503 -0.00000000000E+00 -0.00000000000E+00 -0.16899273083E+03  0.16899273083E+03  0.00000000000E+00 0.  1.
          5    1    1    2  501    0  0.18776946952E+00  0.65098582325E+00 -0.82304800462E+02  0.82441671617E+02  0.47000000000E+01 0.  1.
         -5    1    1    2    0  502 -0.18776946952E+00 -0.65098582325E+00 -0.86554414056E+02  0.86684575517E+02  0.47000000000E+01 0.  1.
<mgrwt>
<rscale>  2 0.47485829E+01</rscale>
<asrwt>0</asrwt>
<pdfrwt beam="1">  1       21 0.20540901E-04 0.47485829E+01</pdfrwt>
<pdfrwt beam="2">  1       21 0.25998969E-01 0.47485829E+01</pdfrwt>
<totfact> 0.38018819E+09</totfact>
</mgrwt>
</event>
<event>
 4    1  0.3989279E+006  0.6676638E+01  0.7546771E-02  0.2334883E+00
         21   -1    0    0  503  502  0.00000000000E+00  0.00000000000E+00  0.14603006079E+00  0.14603006079E+00  0.00000000000E+00 0.  1.
         21   -1    0    0  501  503 -0.00000000000E+00 -0.00000000000E+00 -0.30646357288E+03  0.30646357288E+03  0.00000000000E+00 0.  1.
          5    1    1    2  501    0 -0.25169313945E-01  0.47420312468E+01 -0.14356122090E+03  0.14371639308E+03  0.47000000000E+01 0.  1.
         -5    1    1    2    0  502  0.25169313945E-01 -0.47420312468E+01 -0.16275632192E+03  0.16289320986E+03  0.47000000000E+01 0.  1.
<mgrwt>
<rscale>  2 0.66766379E+01</rscale>
<asrwt>0</asrwt>
<pdfrwt beam="1">  1       21 0.22466411E-04 0.66766379E+01</pdfrwt>
<pdfrwt beam="2">  1       21 0.47147722E-01 0.66766379E+01</pdfrwt>
<totfact> 0.16221069E+09</totfact>
</mgrwt>
</event>
<event>
 4    1  0.3989279E+006  0.5288098E+01  0.7546771E-02  0.2518450E+00
         21   -1    0    0  503  502  0.00000000000E+00  0.00000000000E+00  0.17337561953E+02  0.17337561953E+02  0.00000000000E+00 0.  1.
         21   -1    0    0  501  503 -0.00000000000E+00 -0.00000000000E+00 -0.16515787365E+01  0.16515787365E+01  0.00000000000E+00 0.  1.
          5    1    1    2  501    0  0.22293041304E+01 -0.95088360992E+00  0.63902457895E+01  0.82945293896E+01  0.47000000000E+01 0. -1.
         -5    1    1    2    0  502 -0.22293041304E+01  0.95088360992E+00  0.92957374270E+01  0.10694611300E+02  0.47000000000E+01 0. -1.
<mgrwt>
<rscale>  2 0.52880976E+01</rscale>
<asrwt>0</asrwt>
<pdfrwt beam="1">  1       21 0.26673171E-02 0.52880976E+01</pdfrwt>
<pdfrwt beam="2">  1       21 0.25408905E-03 0.52880976E+01</pdfrwt>
<totfact> 0.46221282E+09</totfact>
</mgrwt>
</event>
<event>
 4    1  0.3989279E+006  0.5768973E+01  0.7546771E-02  0.2446498E+00
         21   -1    0    0  503  502  0.00000000000E+00  0.00000000000E+00  0.15084326963E+02  0.15084326963E+02  0.00000000000E+00 0.  1.
         21   -1    0    0  501  503 -0.00000000000E+00 -0.00000000000E+00 -0.25992392664E+01  0.25992392664E+01  0.00000000000E+00 0.  1.
          5    1    1    2  501    0  0.29030296421E+01  0.16623669114E+01  0.28048964062E+01  0.64147087775E+01  0.47000000000E+01 0.  1.
         -5    1    1    2    0  502 -0.29030296421E+01 -0.16623669114E+01  0.96801912900E+01  0.11268857452E+02  0.47000000000E+01 0.  1.
<mgrwt>
<rscale>  2 0.57689726E+01</rscale>
<asrwt>0</asrwt>
<pdfrwt beam="1">  1       21 0.23206656E-02 0.57689726E+01</pdfrwt>
<pdfrwt beam="2">  1       21 0.39988297E-03 0.57689726E+01</pdfrwt>
<totfact> 0.32984967E+09</totfact>
</mgrwt>
</event>
<event>
 4    1  0.3989279E+006  0.4898678E+01  0.7546771E-02  0.2585448E+00
         21   -1    0    0  501  502  0.00000000000E+00  0.00000000000E+00  0.40539265617E+00  0.40539265617E+00  0.00000000000E+00 0. -1.
         21   -1    0    0  502  503 -0.00000000000E+00 -0.00000000000E+00 -0.64613910584E+02  0.64613910584E+02  0.00000000000E+00 0. -1.
          5    1    1    2  501    0 -0.75718588323E+00 -0.11548668089E+01 -0.22689219492E+02  0.23212016909E+02  0.47000000000E+01 0. -1.
         -5    1    1    2    0  503  0.75718588323E+00  0.11548668089E+01 -0.41519298436E+02  0.41807286332E+02  0.47000000000E+01 0. -1.
<mgrwt>
<rscale>  2 0.48986782E+01</rscale>
<asrwt>0</asrwt>
<pdfrwt beam="1">  1       21 0.62368073E-04 0.48986782E+01</pdfrwt>
<pdfrwt beam="2">  1       21 0.99406060E-02 0.48986782E+01</pdfrwt>
<totfact> 0.40509777E+09</totfact>
</mgrwt>
</event>
<event>
 4    1  0.3989279E+006  0.4841731E+01  0.7546771E-02  0.2596020E+00
         21   -1    0    0  501  502  0.00000000000E+00  0.00000000000E+00  0.30639061617E+03  0.30639061617E+03  0.00000000000E+00 0. -1.
         21   -1    0    0  502  503 -0.00000000000E+00 -0.00000000000E+00 -0.76787483755E-01  0.76787483755E-01  0.00000000000E+00 0. -1.
          5    1    1    2  501    0  0.44691094204E+00 -0.10736041627E+01  0.16234616446E+03  0.16241834709E+03  0.47000000000E+01 0. -1.
         -5    1    1    2    0  503 -0.44691094204E+00  0.10736041627E+01  0.14396766423E+03  0.14404905657E+03  0.47000000000E+01 0. -1.
<mgrwt>
<rscale>  2 0.48417306E+01</rscale>
<asrwt>0</asrwt>
<pdfrwt beam="1">  1       21 0.47136039E-01 0.48417306E+01</pdfrwt>
<pdfrwt beam="2">  1       21 0.11813704E-04 0.48417306E+01</pdfrwt>
<totfact> 0.29500026E+09</totfact>
</mgrwt>
</event>
<event>
 4    1  0.3989279E+006  0.6333076E+01  0.7546771E-02  0.2373989E+00
         21   -1    0    0  501  502  0.00000000000E+00  0.00000000000E+00  0.10085734090E+03  0.10085734090E+03  0.00000000000E+00 0.  1.
         21   -1    0    0  502  503 -0.00000000000E+00 -0.00000000000E+00 -0.10950713940E+01  0.10950713940E+01  0.00000000000E+00 0. -1.
          5    1    1    2  501    0 -0.22063021557E+01  0.36263040053E+01  0.90561793142E+02  0.90782962207E+02  0.47000000000E+01 0.  1.
         -5    1    1    2    0  503  0.22063021557E+01 -0.36263040053E+01  0.92004763675E+01  0.11169450091E+02  0.47000000000E+01 0. -1.
<mgrwt>
<rscale>  2 0.63330759E+01</rscale>
<asrwt>0</asrwt>
<pdfrwt beam="1">  1       21 0.15516507E-01 0.63330759E+01</pdfrwt>
<pdfrwt beam="2">  1       21 0.16847260E-03 0.63330759E+01</pdfrwt>
<totfact> 0.67188705E+08</totfact>
</mgrwt>
</event>
<event>
 4    1  0.3989279E+006  0.8202075E+01  0.7546771E-02  0.2194543E+00
         21   -1    0    0  503  502  0.00000000000E+00  0.00000000000E+00  0.15098070689E+01  0.15098070689E+01  0.00000000000E+00 0. -1.
         21   -1    0    0  501  503 -0.00000000000E+00 -0.00000000000E+00 -0.79080186817E+02  0.79080186817E+02  0.00000000000E+00 0. -1.
          5    1    1    2  501    0 -0.52326536352E+01 -0.42194042539E+01 -0.65408755101E+02  0.65921007882E+02  0.47000000000E+01 0. -1.
         -5    1    1    2    0  502  0.52326536352E+01  0.42194042539E+01 -0.12161624647E+02  0.14668986004E+02  0.47000000000E+01 0. -1.
<mgrwt>
<rscale>  2 0.82020751E+01</rscale>
<asrwt>0</asrwt>
<pdfrwt beam="1">  1       21 0.23227801E-03 0.82020751E+01</pdfrwt>
<pdfrwt beam="2">  1       21 0.12166182E-01 0.82020751E+01</pdfrwt>
<totfact> 0.75686145E+08</totfact>
</mgrwt>
</event>
<event>
 4    1  0.3989279E+006  0.5950609E+01  0.7546771E-02  0.2421896E+00
         21   -1    0    0  501  502  0.00000000000E+00  0.00000000000E+00  0.82647879930E+01  0.82647879930E+01  0.00000000000E+00 0. -1.
         21   -1    0    0  502  503 -0.00000000000E+00 -0.00000000000E+00 -0.63230516003E+01  0.63230516003E+01  0.00000000000E+00 0.  1.
          5    1    1    2  501    0  0.31442894765E+01  0.18528881386E+01  0.51124660514E+01  0.78451934261E+01  0.47000000000E+01 0. -1.
         -5    1    1    2    0  503 -0.31442894765E+01 -0.18528881386E+01 -0.31707296587E+01  0.67426461671E+01  0.47000000000E+01 0.  1.
<mgrwt>
<rscale>  2 0.59506093E+01</rscale>
<asrwt>0</asrwt>
<pdfrwt beam="1">  1       21 0.12715058E-02 0.59506093E+01</pdfrwt>
<pdfrwt beam="2">  1       21 0.97277717E-03 0.59506093E+01</pdfrwt>
<totfact> 0.23189888E+09</totfact>
</mgrwt>
</event>
<event>
 4    1  0.3989279E+006  0.6242016E+01  0.7546771E-02  0.2384950E+00
         21   -1    0    0  501  502  0.00000000000E+00  0.00000000000E+00  0.48468815017E+02  0.48468815017E+02  0.00000000000E+00 0.  1.
         21   -1    0    0  502  503 -0.00000000000E+00 -0.00000000000E+00 -0.90204501914E+00  0.90204501914E+00  0.00000000000E+00 0. -1.
          5    1    1    2  501    0  0.28502933802E+01  0.29578025072E+01  0.31927063527E+02  0.32531525533E+02  0.47000000000E+01 0. -1.
         -5    1    1    2    0  503 -0.28502933802E+01 -0.29578025072E+01  0.15639706471E+02  0.16839334503E+02  0.47000000000E+01 0.  1.
<mgrwt>
<rscale>  2 0.62420163E+01</rscale>
<asrwt>0</asrwt>
<pdfrwt beam="1">  1       21 0.74567387E-02 0.62420163E+01</pdfrwt>
<pdfrwt beam="2">  1       21 0.13877619E-03 0.62420163E+01</pdfrwt>
<totfact> 0.26882511E+09</totfact>
</mgrwt>
</event>
<event>
 4    1  0.3989279E+006  0.8451224E+01  0.7546771E-02  0.2175581E+00
         21   -1    0    0  503  502  0.00000000000E+00  0.00000000000E+00  0.10345238010E+02  0.10345238010E+02  0.00000000000E+00 0.  1.
         21   -1    0    0  501  503 -0.00000000000E+00 -0.00000000000E+00 -0.69572014430E+01  0.69572014430E+01  0.00000000000E+00 0. -1.
          5    1    1    2  501    0  0.42166542290E+01  0.56172064542E+01  0.93726094047E+00  0.85030370637E+01  0.47000000000E+01 0. -1.
         -5    1    1    2    0  502 -0.42166542290E+01 -0.56172064542E+01  0.24507756265E+01  0.87994023893E+01  0.47000000000E+01 0.  1.
<mgrwt>
<rscale>  2 0.84512237E+01</rscale>
<asrwt>0</asrwt>
<pdfrwt beam="1">  1       21 0.15915751E-02 0.84512237E+01</pdfrwt>
<pdfrwt beam="2">  1       21 0.10703387E-02 0.84512237E+01</pdfrwt>
<totfact> 0.19245604E+09</totfact>
</mgrwt>
</event>
<event>
 4    1  0.3989279E+006  0.5429167E+01  0.7546771E-02  0.2496223E+00
         21   -1    0    0  503  502  0.00000000000E+00  0.00000000000E+00  0.13810044569E+03  0.13810044569E+03  0.00000000000E+00 0.  1.
         21   -1    0    0  501  503 -0.00000000000E+00 -0.00000000000E+00 -0.57314356123E+00  0.57314356123E+00  0.00000000000E+00 0. -1.
          5    1    1    2  501    0  0.97008036308E+00 -0.25386603015E+01  0.13834136245E+02  0.14861331625E+02  0.47000000000E+01 0. -1.
         -5    1    1    2    0  502 -0.97008036308E+00  0.25386603015E+01  0.12369316589E+03  0.12381225763E+03  0.47000000000E+01 0.  1.
<mgrwt>
<rscale>  2 0.54291668E+01</rscale>
<asrwt>0</asrwt>
<pdfrwt beam="1">  1       21 0.21246196E-01 0.54291668E+01</pdfrwt>
<pdfrwt beam="2">  1       21 0.88176043E-04 0.54291668E+01</pdfrwt>
<totfact> 0.86294797E+08</totfact>
</mgrwt>
</event>
<event>
 4    1  0.3989279E+006  0.9458638E+01  0.7546771E-02  0.2107173E+00
         21   -1    0    0  503  502  0.00000000000E+00  0.00000000000E+00  0.96955779296E+03  0.96955779296E+03  0.00000000000E+00 0.  1.
         21   -1    0    0  501  503 -0.00000000000E+00 -0.00000000000E+00 -0.28208582974E+00  0.28208582974E+00  0.00000000000E+00 0. -1.
          5    1    1    2  501    0  0.82000959974E+01 -0.36641481222E+00  0.86860520195E+02  0.87373999581E+02  0.47000000000E+01 0. -1.
         -5    1    1    2    0  502 -0.82000959974E+01  0.36641481222E+00  0.88241518693E+03  0.88246587921E+03  0.47000000000E+01 0.  1.
<mgrwt>
<rscale>  2 0.94586381E+01</rscale>
<asrwt>0</asrwt>
<pdfrwt beam="1">  1       21 0.14916007E+00 0.94586381E+01</pdfrwt>
<pdfrwt beam="2">  1       21 0.43398596E-04 0.94586381E+01</pdfrwt>
<totfact> 0.80083276E+07</totfact>
</mgrwt>
</event>
<event>
 4    1  0.3989279E+006  0.6477277E+01  0.7546771E-02  0.2357157E+00
         21   -1    0    0  503  502  0.00000000000E+00  0.00000000000E+00  0.40544708115E+03  0.40544708115E+03  0.00000000000E+00 0. -1.
         21   -1    0    0  501  503 -0.00000000000E+00 -0.00000000000E+00 -0.71758308375E+00  0.71758308375E+00  0.00000000000E+00 0. -1.
          5    1    1    2  501    0  0.38562288074E+01  0.22348650793E+01  0.14494869342E+02  0.15876282933E+02  0.47000000000E+01 0. -1.
         -5    1    1    2    0  502 -0.38562288074E+01 -0.22348650793E+01  0.39023462872E+03  0.39028838130E+03  0.47000000000E+01 0. -1.
<mgrwt>
<rscale>  2 0.64772774E+01</rscale>
<asrwt>0</asrwt>
<pdfrwt beam="1">  1       21 0.62376291E-01 0.64772774E+01</pdfrwt>
<pdfrwt beam="2">  1       21 0.11039772E-03 0.64772774E+01</pdfrwt>
<totfact> 0.11204326E+08</totfact>
</mgrwt>
</event>
<event>
 4    1  0.3989279E+006  0.7188658E+01  0.7546771E-02  0.2282384E+00
         21   -1    0    0  503  502  0.00000000000E+00  0.00000000000E+00  0.38126123035E+03  0.38126123035E+03  0.00000000000E+00 0.  1.
         21   -1    0    0  501  503 -0.00000000000E+00 -0.00000000000E+00 -0.14148185340E+00  0.14148185340E+00  0.00000000000E+00 0. -1.
          5    1    1    2  501    0  0.52893921089E+01  0.12685150153E+01  0.15148461523E+03  0.15165508713E+03  0.47000000000E+01 0. -1.
         -5    1    1    2    0  502 -0.52893921089E+01 -0.12685150153E+01  0.22963513326E+03  0.22974762507E+03  0.47000000000E+01 0.  1.
<mgrwt>
<rscale>  2 0.71886577E+01</rscale>
<asrwt>0</asrwt>
<pdfrwt beam="1">  1       21 0.58654751E-01 0.71886577E+01</pdfrwt>
<pdfrwt beam="2">  1       21 0.21766744E-04 0.71886577E+01</pdfrwt>
<totfact> 0.11917267E+09</totfact>
</mgrwt>
</event>
<event>
 4    1  0.3989279E+006  0.4805606E+01  0.7546771E-02  0.2602839E+00
         21   -1    0    0  503  502  0.00000000000E+00  0.00000000000E+00  0.10870997322E+01  0.10870997322E+01  0.00000000000E+00 0.  1.
         21   -1    0    0  501  503 -0.00000000000E+00 -0.00000000000E+00 -0.72153124677E+02  0.72153124677E+02  0.00000000000E+00 0.  1.
          5    1    1    2  501    0 -0.70106827409E+00 -0.71578474008E+00 -0.66293405791E+02  0.66467356618E+02  0.47000000000E+01 0.  1.
         -5    1    1    2    0  502  0.70106827409E+00  0.71578474008E+00 -0.47726191541E+01  0.67728677906E+01  0.47000000000E+01 0.  1.
<mgrwt>
<rscale>  2 0.48056055E+01</rscale>
<asrwt>0</asrwt>
<pdfrwt beam="1">  1       21 0.16724608E-03 0.48056055E+01</pdfrwt>
<pdfrwt beam="2">  1       21 0.11100483E-01 0.48056055E+01</pdfrwt>
<totfact> 0.90772577E+08</totfact>
</mgrwt>
</event>
<event>
 4    1  0.3989279E+006  0.7165496E+01  0.7546771E-02  0.2284626E+00
         21   -1    0    0  501  502  0.00000000000E+00  0.00000000000E+00  0.27182349647E-01  0.27182349647E-01  0.00000000000E+00 0. -1.
         21   -1    0    0  502  503 -0.00000000000E+00 -0.00000000000E+00 -0.28893193662E+04  0.28893193662E+04  0.00000000000E+00 0.  1.
          5    1    1    2  501    0 -0.38925337999E+01  0.37553310852E+01 -0.59455360513E+03  0.59459678246E+03  0.47000000000E+01 0. -1.
         -5    1    1    2    0  503  0.38925337999E+01 -0.37553310852E+01 -0.22947385787E+04  0.22947497661E+04  0.47000000000E+01 0.  1.
<mgrwt>
<rscale>  2 0.71654959E+01</rscale>
<asrwt>0</asrwt>
<pdfrwt beam="1">  1       21 0.41845190E-05 0.71654959E+01</pdfrwt>
<pdfrwt beam="2">  1       21 0.44423245E+00 0.71654959E+01</pdfrwt>
<totfact> 0.72673644E+07</totfact>
</mgrwt>
</event>
<event>
 4    1  0.3989279E+006  0.5627209E+01  0.7546771E-02  0.2466625E+00
         21   -1    0    0  503  502  0.00000000000E+00  0.00000000000E+00  0.14141489581E+01  0.14141489581E+01  0.00000000000E+00 0. -1.
         21   -1    0    0  501  503 -0.00000000000E+00 -0.00000000000E+00 -0.46979071032E+02  0.46979071032E+02  0.00000000000E+00 0. -1.
          5    1    1    2  501    0 -0.30525794059E+01  0.50719183810E+00 -0.40287237832E+02  0.40678335964E+02  0.47000000000E+01 0. -1.
         -5    1    1    2    0  502  0.30525794059E+01 -0.50719183810E+00 -0.52776842412E+01  0.77148840263E+01  0.47000000000E+01 0. -1.
<mgrwt>
<rscale>  2 0.56272093E+01</rscale>
<asrwt>0</asrwt>
<pdfrwt beam="1">  1       21 0.21756138E-03 0.56272093E+01</pdfrwt>
<pdfrwt beam="2">  1       21 0.72275493E-02 0.56272093E+01</pdfrwt>
<totfact> 0.14030617E+09</totfact>
</mgrwt>
</event>
<event>
 4    1  0.3989279E+006  0.8792947E+01  0.7546771E-02  0.2150982E+00
         21   -1    0    0  501  502  0.00000000000E+00  0.00000000000E+00  0.12659889787E+03  0.12659889787E+03  0.00000000000E+00 0. -1.
         21   -1    0    0  502  503 -0.00000000000E+00 -0.00000000000E+00 -0.97747534398E+00  0.97747534398E+00  0.00000000000E+00 0. -1.
          5    1    1    2  501    0  0.60614075759E+01 -0.42994474933E+01  0.10188384408E+03  0.10226257182E+03  0.47000000000E+01 0. -1.
         -5    1    1    2    0  503 -0.60614075759E+01  0.42994474933E+01  0.23737578437E+02  0.25313801386E+02  0.47000000000E+01 0. -1.
<mgrwt>
<rscale>  2 0.87929466E+01</rscale>
<asrwt>0</asrwt>
<pdfrwt beam="1">  1       21 0.19476741E-01 0.87929466E+01</pdfrwt>
<pdfrwt beam="2">  1       21 0.15038092E-03 0.87929466E+01</pdfrwt>
<totfact> 0.67215176E+08</totfact>
</mgrwt>
</event>
<event>
 4    1  0.3989279E+006  0.6448337E+01  0.7546771E-02  0.2360485E+00
         21   -1    0    0  503  502  0.00000000000E+00  0.00000000000E+00  0.37168425144E+02  0.37168425144E+02  0.00000000000E+00 0.  1.
         21   -1    0    0  501  503 -0.00000000000E+00 -0.00000000000E+00 -0.16771138598E+01  0.16771138598E+01  0.00000000000E+00 0.  1.
          5    1    1    2  501    0 -0.33647246184E+01 -0.28582644591E+01  0.28952938583E+02  0.29662327961E+02  0.47000000000E+01 0.  1.
         -5    1    1    2    0  502  0.33647246184E+01  0.28582644591E+01  0.65383727008E+01  0.91832110424E+01  0.47000000000E+01 0.  1.
<mgrwt>
<rscale>  2 0.64483368E+01</rscale>
<asrwt>0</asrwt>
<pdfrwt beam="1">  1       21 0.57182186E-02 0.64483368E+01</pdfrwt>
<pdfrwt beam="2">  1       21 0.25801754E-03 0.64483368E+01</pdfrwt>
<totfact> 0.17678132E+09</totfact>
</mgrwt>
</event>
<event>
 4    1  0.3989279E+006  0.8453840E+01  0.7546771E-02  0.2175387E+00
         21   -1    0    0  501  502  0.00000000000E+00  0.00000000000E+00  0.76002114176E+02  0.76002114176E+02  0.00000000000E+00 0. -1.
         21   -1    0    0  502  503 -0.00000000000E+00 -0.00000000000E+00 -0.16194620926E+01  0.16194620926E+01  0.00000000000E+00 0.  1.
          5    1    1    2  501    0 -0.57791632536E+01 -0.39973354246E+01  0.62324232883E+02  0.62894971364E+02  0.47000000000E+01 0. -1.
         -5    1    1    2    0  503  0.57791632536E+01  0.39973354246E+01  0.12058419201E+02  0.14726604905E+02  0.47000000000E+01 0. -1.
<mgrwt>
<rscale>  2 0.84538405E+01</rscale>
<asrwt>0</asrwt>
<pdfrwt beam="1">  1       21 0.11692630E-01 0.84538405E+01</pdfrwt>
<pdfrwt beam="2">  1       21 0.24914807E-03 0.84538405E+01</pdfrwt>
<totfact> 0.74485794E+08</totfact>
</mgrwt>
</event>
<event>
 4    1  0.3989279E+006  0.4934316E+01  0.7546771E-02  0.2578940E+00
         21   -1    0    0  503  502  0.00000000000E+00  0.00000000000E+00  0.12693302668E+02  0.12693302668E+02  0.00000000000E+00 0.  1.
         21   -1    0    0  501  503 -0.00000000000E+00 -0.00000000000E+00 -0.27145646092E+01  0.27145646092E+01  0.00000000000E+00 0. -1.
          5    1    1    2  501    0  0.18425574584E+00  0.14911494345E+01  0.81648847403E+00  0.50014128248E+01  0.47000000000E+01 0. -1.
         -5    1    1    2    0  502 -0.18425574584E+00 -0.14911494345E+01  0.91622495847E+01  0.10406454452E+02  0.47000000000E+01 0. -1.
<mgrwt>
<rscale>  2 0.49343162E+01</rscale>
<asrwt>0</asrwt>
<pdfrwt beam="1">  1       21 0.19528158E-02 0.49343162E+01</pdfrwt>
<pdfrwt beam="2">  1       21 0.41762533E-03 0.49343162E+01</pdfrwt>
<totfact> 0.34111444E+09</totfact>
</mgrwt>
</event>
<event>
 4    1  0.3989279E+006  0.7178416E+01  0.7546771E-02  0.2283374E+00
         21   -1    0    0  501  502  0.00000000000E+00  0.00000000000E+00  0.23767701262E+01  0.23767701262E+01  0.00000000000E+00 0. -1.
         21   -1    0    0  502  503 -0.00000000000E+00 -0.00000000000E+00 -0.38294175076E+02  0.38294175076E+02  0.00000000000E+00 0.  1.
          5    1    1    2  501    0 -0.52770770667E+01 -0.12617918821E+01 -0.45643958454E+01  0.85066662421E+01  0.47000000000E+01 0. -1.
         -5    1    1    2    0  503  0.52770770667E+01  0.12617918821E+01 -0.31353009105E+02  0.32164278960E+02  0.47000000000E+01 0.  1.
<mgrwt>
<rscale>  2 0.71784163E+01</rscale>
<asrwt>0</asrwt>
<pdfrwt beam="1">  1       21 0.36565695E-03 0.71784163E+01</pdfrwt>
<pdfrwt beam="2">  1       21 0.58914114E-02 0.71784163E+01</pdfrwt>
<totfact> 0.11308853E+09</totfact>
</mgrwt>
</event>
<event>
 4    1  0.3989279E+006  0.9990306E+01  0.7546771E-02  0.2075540E+00
         21   -1    0    0  503  502  0.00000000000E+00  0.00000000000E+00  0.15739373887E+00  0.15739373887E+00  0.00000000000E+00 0.  1.
         21   -1    0    0  501  503 -0.00000000000E+00 -0.00000000000E+00 -0.63455648357E+03  0.63455648357E+03  0.00000000000E+00 0.  1.
          5    1    1    2  501    0 -0.85900125097E+01  0.19818916937E+01 -0.32554151146E+03  0.32569476798E+03  0.47000000000E+01 0.  1.
         -5    1    1    2    0  502  0.85900125097E+01 -0.19818916937E+01 -0.30885757837E+03  0.30901910932E+03  0.47000000000E+01 0.  1.
<mgrwt>
<rscale>  2 0.99903058E+01</rscale>
<asrwt>0</asrwt>
<pdfrwt beam="1">  1       21 0.24214341E-04 0.99903058E+01</pdfrwt>
<pdfrwt beam="2">  1       21 0.97624397E-01 0.99903058E+01</pdfrwt>
<totfact> 0.45290990E+08</totfact>
</mgrwt>
</event>
<event>
 4    1  0.3989279E+006  0.8703440E+01  0.7546771E-02  0.2157276E+00
         21   -1    0    0  501  502  0.00000000000E+00  0.00000000000E+00  0.78643128063E+01  0.78643128063E+01  0.00000000000E+00 0.  1.
         21   -1    0    0  502  503 -0.00000000000E+00 -0.00000000000E+00 -0.10519917933E+02  0.10519917933E+02  0.00000000000E+00 0. -1.
          5    1    1    2  501    0  0.54425922437E+01  0.49028619117E+01  0.13425628312E+01  0.88063806533E+01  0.47000000000E+01 0.  1.
         -5    1    1    2    0  503 -0.54425922437E+01 -0.49028619117E+01 -0.39981679584E+01  0.95778500865E+01  0.47000000000E+01 0. -1.
<mgrwt>
<rscale>  2 0.87034399E+01</rscale>
<asrwt>0</asrwt>
<pdfrwt beam="1">  1       21 0.12098943E-02 0.87034399E+01</pdfrwt>
<pdfrwt beam="2">  1       21 0.16184489E-02 0.87034399E+01</pdfrwt>
<totfact> 0.16048387E+09</totfact>
</mgrwt>
</event>
<event>
 4    1  0.3989279E+006  0.5904177E+01  0.7546771E-02  0.2428064E+00
         21   -1    0    0  501  502  0.00000000000E+00  0.00000000000E+00  0.89597232856E+01  0.89597232856E+01  0.00000000000E+00 0.  1.
         21   -1    0    0  502  503 -0.00000000000E+00 -0.00000000000E+00 -0.46243789757E+01  0.46243789757E+01  0.00000000000E+00 0. -1.
          5    1    1    2  501    0 -0.28353246785E+01  0.21749121070E+01  0.48731049146E+01  0.76554856289E+01  0.47000000000E+01 0. -1.
         -5    1    1    2    0  503  0.28353246785E+01 -0.21749121070E+01 -0.53776060478E+00  0.59286166324E+01  0.47000000000E+01 0. -1.
<mgrwt>
<rscale>  2 0.59041772E+01</rscale>
<asrwt>0</asrwt>
<pdfrwt beam="1">  1       21 0.13784190E-02 0.59041772E+01</pdfrwt>
<pdfrwt beam="2">  1       21 0.71144292E-03 0.59041772E+01</pdfrwt>
<totfact> 0.31862729E+09</totfact>
</mgrwt>
</event>
<event>
 4    1  0.3989279E+006  0.8192210E+01  0.7546771E-02  0.2195312E+00
         21   -1    0    0  501  502  0.00000000000E+00  0.00000000000E+00  0.82035092237E+00  0.82035092237E+00  0.00000000000E+00 0. -1.
         21   -1    0    0  502  503 -0.00000000000E+00 -0.00000000000E+00 -0.52027519304E+03  0.52027519304E+03  0.00000000000E+00 0. -1.
          5    1    1    2  501    0 -0.22387798487E+01 -0.63253588855E+01 -0.20539781313E+02  0.22113229448E+02  0.47000000000E+01 0. -1.
         -5    1    1    2    0  503  0.22387798487E+01  0.63253588855E+01 -0.49891506080E+03  0.49898231451E+03  0.47000000000E+01 0. -1.
<mgrwt>
<rscale>  2 0.81922097E+01</rscale>
<asrwt>0</asrwt>
<pdfrwt beam="1">  1       21 0.12620786E-03 0.81922097E+01</pdfrwt>
<pdfrwt beam="2">  1       21 0.80042322E-01 0.81922097E+01</pdfrwt>
<totfact> 0.65066336E+07</totfact>
</mgrwt>
</event>
<event>
 4    1  0.3989279E+006  0.5382450E+01  0.7546771E-02  0.2503474E+00
         21   -1    0    0  503  502  0.00000000000E+00  0.00000000000E+00  0.42215869754E+03  0.42215869754E+03  0.00000000000E+00 0.  1.
         21   -1    0    0  501  503 -0.00000000000E+00 -0.00000000000E+00 -0.28463847123E+00  0.28463847123E+00  0.00000000000E+00 0.  1.
          5    1    1    2  501    0 -0.12953238636E+01  0.22809867075E+01  0.26931110993E+02  0.27463712487E+02  0.47000000000E+01 0.  1.
         -5    1    1    2    0  502  0.12953238636E+01 -0.22809867075E+01  0.39494294808E+03  0.39497962353E+03  0.47000000000E+01 0.  1.
<mgrwt>
<rscale>  2 0.53824497E+01</rscale>
<asrwt>0</asrwt>
<pdfrwt beam="1">  1       21 0.64946991E-01 0.53824497E+01</pdfrwt>
<pdfrwt beam="2">  1       21 0.43790872E-04 0.53824497E+01</pdfrwt>
<totfact> 0.31776429E+08</totfact>
</mgrwt>
</event>
<event>
 4    1  0.3989279E+006  0.5882542E+01  0.7546771E-02  0.2430966E+00
         21   -1    0    0  503  502  0.00000000000E+00  0.00000000000E+00  0.51966214477E+00  0.51966214477E+00  0.00000000000E+00 0. -1.
         21   -1    0    0  501  503 -0.00000000000E+00 -0.00000000000E+00 -0.73845891793E+02  0.73845891793E+02  0.00000000000E+00 0.  1.
          5    1    1    2  501    0 -0.10707976113E+01 -0.33716006889E+01 -0.25007793485E+02  0.25690349039E+02  0.47000000000E+01 0. -1.
         -5    1    1    2    0  502  0.10707976113E+01  0.33716006889E+01 -0.48318436163E+02  0.48675204899E+02  0.47000000000E+01 0.  1.
<mgrwt>
<rscale>  2 0.58825419E+01</rscale>
<asrwt>0</asrwt>
<pdfrwt beam="1">  1       21 0.79948065E-04 0.58825419E+01</pdfrwt>
<pdfrwt beam="2">  1       21 0.11360900E-01 0.58825419E+01</pdfrwt>
<totfact> 0.28206801E+09</totfact>
</mgrwt>
</event>
<event>
 4    1  0.3989279E+006  0.5182178E+01  0.7546771E-02  0.2535816E+00
         21   -1    0    0  503  502  0.00000000000E+00  0.00000000000E+00  0.20464077913E+02  0.20464077913E+02  0.00000000000E+00 0. -1.
         21   -1    0    0  501  503 -0.00000000000E+00 -0.00000000000E+00 -0.31476683178E+01  0.31476683178E+01  0.00000000000E+00 0. -1.
          5    1    1    2  501    0 -0.21740546184E+01 -0.19610477658E+00 -0.35678978322E+00  0.51944460260E+01  0.47000000000E+01 0. -1.
         -5    1    1    2    0  502  0.21740546184E+01  0.19610477658E+00  0.17673199378E+02  0.18417300205E+02  0.47000000000E+01 0. -1.
<mgrwt>
<rscale>  2 0.51821782E+01</rscale>
<asrwt>0</asrwt>
<pdfrwt beam="1">  1       21 0.31483196E-02 0.51821782E+01</pdfrwt>
<pdfrwt beam="2">  1       21 0.48425668E-03 0.51821782E+01</pdfrwt>
<totfact> 0.14784682E+09</totfact>
</mgrwt>
</event>
<event>
 4    1  0.3989279E+006  0.4926055E+01  0.7546771E-02  0.2580441E+00
         21   -1    0    0  501  502  0.00000000000E+00  0.00000000000E+00  0.23157834202E+02  0.23157834202E+02  0.00000000000E+00 0. -1.
         21   -1    0    0  502  503 -0.00000000000E+00 -0.00000000000E+00 -0.16145762747E+01  0.16145762747E+01  0.00000000000E+00 0. -1.
          5    1    1    2  501    0  0.94520485996E+00  0.11325202444E+01  0.18109910608E+02  0.18767921477E+02  0.47000000000E+01 0. -1.
         -5    1    1    2    0  503 -0.94520485996E+00 -0.11325202444E+01  0.34333473188E+01  0.60044889993E+01  0.47000000000E+01 0. -1.
<mgrwt>
<rscale>  2 0.49260546E+01</rscale>
<asrwt>0</asrwt>
<pdfrwt beam="1">  1       21 0.35627435E-02 0.49260546E+01</pdfrwt>
<pdfrwt beam="2">  1       21 0.24839637E-03 0.49260546E+01</pdfrwt>
<totfact> 0.29231608E+09</totfact>
</mgrwt>
</event>
<event>
 4    1  0.3989279E+006  0.7256778E+01  0.7546771E-02  0.2275860E+00
         21   -1    0    0  503  502  0.00000000000E+00  0.00000000000E+00  0.43091634368E+02  0.43091634368E+02  0.00000000000E+00 0. -1.
         21   -1    0    0  501  503 -0.00000000000E+00 -0.00000000000E+00 -0.10719718691E+02  0.10719718691E+02  0.00000000000E+00 0. -1.
          5    1    1    2  501    0 -0.51660871290E+01 -0.19703741541E+01 -0.91396781014E+01  0.11670241914E+02  0.47000000000E+01 0. -1.
         -5    1    1    2    0  502  0.51660871290E+01  0.19703741541E+01  0.41511593778E+02  0.42141111145E+02  0.47000000000E+01 0. -1.
<mgrwt>
<rscale>  2 0.72567782E+01</rscale>
<asrwt>0</asrwt>
<pdfrwt beam="1">  1       21 0.66294821E-02 0.72567782E+01</pdfrwt>
<pdfrwt beam="2">  1       21 0.16491875E-02 0.72567782E+01</pdfrwt>
<totfact> 0.11239586E+08</totfact>
</mgrwt>
</event>
<event>
 4    1  0.3989279E+006  0.4891177E+01  0.7546771E-02  0.2586828E+00
         21   -1    0    0  503  502  0.00000000000E+00  0.00000000000E+00  0.16612554252E+00  0.16612554252E+00  0.00000000000E+00 0.  1.
         21   -1    0    0  501  503 -0.00000000000E+00 -0.00000000000E+00 -0.19171523163E+03  0.19171523163E+03  0.00000000000E+00 0.  1.
          5    1    1    2  501    0 -0.13198259304E+01  0.30277817655E+00 -0.14363325176E+03  0.14371650785E+03  0.47000000000E+01 0. -1.
         -5    1    1    2    0  502  0.13198259304E+01 -0.30277817655E+00 -0.47915854325E+02  0.48164849328E+02  0.47000000000E+01 0. -1.
<mgrwt>
<rscale>  2 0.48911773E+01</rscale>
<asrwt>0</asrwt>
<pdfrwt beam="1">  1       21 0.25557641E-04 0.48911773E+01</pdfrwt>
<pdfrwt beam="2">  1       21 0.29494807E-01 0.48911773E+01</pdfrwt>
<totfact> 0.23831437E+09</totfact>
</mgrwt>
</event>
<event>
 4    1  0.3989279E+006  0.6664386E+01  0.7546771E-02  0.2336220E+00
         21   -1    0    0  501  502  0.00000000000E+00  0.00000000000E+00  0.23266229976E+03  0.23266229976E+03  0.00000000000E+00 0. -1.
         21   -1    0    0  502  503 -0.00000000000E+00 -0.00000000000E+00 -0.12717069682E+01  0.12717069682E+01  0.00000000000E+00 0.  1.
          5    1    1    2  501    0 -0.46233013232E+01 -0.97422903103E+00  0.22352662064E+03  0.22362594700E+03  0.47000000000E+01 0. -1.
         -5    1    1    2    0  503  0.46233013232E+01  0.97422903103E+00  0.78639721501E+01  0.10308059726E+02  0.47000000000E+01 0.  1.
<mgrwt>
<rscale>  2 0.66643857E+01</rscale>
<asrwt>0</asrwt>
<pdfrwt beam="1">  1       21 0.35794166E-01 0.66643857E+01</pdfrwt>
<pdfrwt beam="2">  1       21 0.19564741E-03 0.66643857E+01</pdfrwt>
<totfact> 0.14221557E+08</totfact>
</mgrwt>
</event>
<event>
 4    1  0.3989279E+006  0.5868357E+01  0.7546771E-02  0.2432879E+00
         21   -1    0    0  501  502  0.00000000000E+00  0.00000000000E+00  0.21613243747E+03  0.21613243747E+03  0.00000000000E+00 0.  1.
         21   -1    0    0  502  503 -0.00000000000E+00 -0.00000000000E+00 -0.70147808882E+00  0.70147808882E+00  0.00000000000E+00 0.  1.
          5    1    1    2  501    0  0.35139113326E+01 -0.62003278367E-02  0.20302731838E+03  0.20311211096E+03  0.47000000000E+01 0.  1.
         -5    1    1    2    0  503 -0.35139113326E+01  0.62003278367E-02  0.12403641009E+02  0.13721804603E+02  0.47000000000E+01 0.  1.
<mgrwt>
<rscale>  2 0.58683568E+01</rscale>
<asrwt>0</asrwt>
<pdfrwt beam="1">  1       21 0.33251091E-01 0.58683568E+01</pdfrwt>
<pdfrwt beam="2">  1       21 0.10791988E-03 0.58683568E+01</pdfrwt>
<totfact> 0.33291668E+08</totfact>
</mgrwt>
</event>
<event>
 4    1  0.3989279E+006  0.5249161E+01  0.7546771E-02  0.2524764E+00
         21   -1    0    0  501  502  0.00000000000E+00  0.00000000000E+00  0.16794963794E+01  0.16794963794E+01  0.00000000000E+00 0. -1.
         21   -1    0    0  502  503 -0.00000000000E+00 -0.00000000000E+00 -0.14430403106E+03  0.14430403106E+03  0.00000000000E+00 0. -1.
          5    1    1    2  501    0  0.19126772670E+01 -0.13436368297E+01 -0.25948734851E+01  0.58555155760E+01  0.47000000000E+01 0. -1.
         -5    1    1    2    0  503 -0.19126772670E+01  0.13436368297E+01 -0.14002966120E+03  0.14012801187E+03  0.47000000000E+01 0. -1.
<mgrwt>
<rscale>  2 0.52491613E+01</rscale>
<asrwt>0</asrwt>
<pdfrwt beam="1">  1       21 0.25838405E-03 0.52491613E+01</pdfrwt>
<pdfrwt beam="2">  1       21 0.22200621E-01 0.52491613E+01</pdfrwt>
<totfact> 0.18445872E+08</totfact>
</mgrwt>
</event>
<event>
 4    1  0.3989279E+006  0.1311824E+02  0.7546771E-02  0.1931586E+00
         21   -1    0    0  501  502  0.00000000000E+00  0.00000000000E+00  0.90201092035E+01  0.90201092035E+01  0.00000000000E+00 0.  1.
         21   -1    0    0  502  503 -0.00000000000E+00 -0.00000000000E+00 -0.55918474410E+02  0.55918474410E+02  0.00000000000E+00 0. -1.
          5    1    1    2  501    0 -0.10980786640E+02 -0.54240674705E+01  0.29053978262E+01  0.13436127406E+02  0.47000000000E+01 0.  1.
         -5    1    1    2    0  503  0.10980786640E+02  0.54240674705E+01 -0.49803763033E+02  0.51502456207E+02  0.47000000000E+01 0. -1.
<mgrwt>
<rscale>  2 0.13118239E+02</rscale>
<asrwt>0</asrwt>
<pdfrwt beam="1">  1       21 0.13877091E-02 0.13118239E+02</pdfrwt>
<pdfrwt beam="2">  1       21 0.86028422E-02 0.13118239E+02</pdfrwt>
<totfact> 0.12840350E+08</totfact>
</mgrwt>
</event>
<event>
 4    1  0.3989279E+006  0.6956566E+01  0.7546771E-02  0.2305395E+00
         21   -1    0    0  501  502  0.00000000000E+00  0.00000000000E+00  0.15089076621E+02  0.15089076621E+02  0.00000000000E+00 0. -1.
         21   -1    0    0  502  503 -0.00000000000E+00 -0.00000000000E+00 -0.33388398200E+01  0.33388398200E+01  0.00000000000E+00 0.  1.
          5    1    1    2  501    0 -0.50915819476E+01 -0.61611845734E+00  0.77046028956E+01  0.10380496831E+02  0.47000000000E+01 0.  1.
         -5    1    1    2    0  503  0.50915819476E+01  0.61611845734E+00  0.40456339058E+01  0.80474196102E+01  0.47000000000E+01 0.  1.
<mgrwt>
<rscale>  2 0.69565659E+01</rscale>
<asrwt>0</asrwt>
<pdfrwt beam="1">  1       21 0.23213964E-02 0.69565659E+01</pdfrwt>
<pdfrwt beam="2">  1       21 0.51366767E-03 0.69565659E+01</pdfrwt>
<totfact> 0.27305493E+09</totfact>
</mgrwt>
</event>
<event>
 4    1  0.3989279E+006  0.5544706E+01  0.7546771E-02  0.2478737E+00
         21   -1    0    0  503  502  0.00000000000E+00  0.00000000000E+00  0.85302919580E+01  0.85302919580E+01  0.00000000000E+00 0. -1.
         21   -1    0    0  501  503 -0.00000000000E+00 -0.00000000000E+00 -0.36215458554E+01  0.36215458554E+01  0.00000000000E+00 0.  1.
          5    1    1    2  501    0 -0.29263855718E+01  0.30005868415E+00  0.20323010553E+01  0.59054225343E+01  0.47000000000E+01 0. -1.
         -5    1    1    2    0  502  0.29263855718E+01 -0.30005868415E+00  0.28764450474E+01  0.62464152791E+01  0.47000000000E+01 0. -1.
<mgrwt>
<rscale>  2 0.55447063E+01</rscale>
<asrwt>0</asrwt>
<pdfrwt beam="1">  1       21 0.13123526E-02 0.55447063E+01</pdfrwt>
<pdfrwt beam="2">  1       21 0.55716090E-03 0.55447063E+01</pdfrwt>
<totfact> 0.45292655E+09</totfact>
</mgrwt>
</event>
<event>
 4    1  0.3989279E+006  0.5169509E+01  0.7546771E-02  0.2537934E+00
         21   -1    0    0  501  502  0.00000000000E+00  0.00000000000E+00  0.10315963031E+01  0.10315963031E+01  0.00000000000E+00 0.  1.
         21   -1    0    0  502  503 -0.00000000000E+00 -0.00000000000E+00 -0.46337793410E+02  0.46337793410E+02  0.00000000000E+00 0.  1.
          5    1    1    2  501    0 -0.94035366793E+00  0.19363770155E+01 -0.69255618367E+01  0.86421772558E+01  0.47000000000E+01 0.  1.
         -5    1    1    2    0  503  0.94035366793E+00 -0.19363770155E+01 -0.38380635270E+02  0.38727212457E+02  0.47000000000E+01 0.  1.
<mgrwt>
<rscale>  2 0.51695088E+01</rscale>
<asrwt>0</asrwt>
<pdfrwt beam="1">  1       21 0.15870713E-03 0.51695088E+01</pdfrwt>
<pdfrwt beam="2">  1       21 0.71288908E-02 0.51695088E+01</pdfrwt>
<totfact> 0.20299428E+09</totfact>
</mgrwt>
</event>
<event>
 4    1  0.3989279E+006  0.5926382E+01  0.7546771E-02  0.2425105E+00
         21   -1    0    0  503  502  0.00000000000E+00  0.00000000000E+00  0.11239756034E+02  0.11239756034E+02  0.00000000000E+00 0.  1.
         21   -1    0    0  501  503 -0.00000000000E+00 -0.00000000000E+00 -0.34626184784E+01  0.34626184784E+01  0.00000000000E+00 0. -1.
          5    1    1    2  501    0  0.19956971652E+01 -0.30081877875E+01  0.15924401153E+01  0.61366005623E+01  0.47000000000E+01 0. -1.
         -5    1    1    2    0  502 -0.19956971652E+01  0.30081877875E+01  0.61846974407E+01  0.85657739506E+01  0.47000000000E+01 0.  1.
<mgrwt>
<rscale>  2 0.59263818E+01</rscale>
<asrwt>0</asrwt>
<pdfrwt beam="1">  1       21 0.17291932E-02 0.59263818E+01</pdfrwt>
<pdfrwt beam="2">  1       21 0.53271054E-03 0.59263818E+01</pdfrwt>
<totfact> 0.34646232E+09</totfact>
</mgrwt>
</event>
<event>
 4    1  0.3989279E+006  0.6876552E+01  0.7546771E-02  0.2313622E+00
         21   -1    0    0  501  502  0.00000000000E+00  0.00000000000E+00  0.62159033492E+01  0.62159033492E+01  0.00000000000E+00 0. -1.
         21   -1    0    0  502  503 -0.00000000000E+00 -0.00000000000E+00 -0.89229373220E+01  0.89229373220E+01  0.00000000000E+00 0.  1.
          5    1    1    2  501    0 -0.23640226005E+01  0.44281332375E+01  0.15528974018E+01  0.70497132683E+01  0.47000000000E+01 0. -1.
         -5    1    1    2    0  503  0.23640226005E+01 -0.44281332375E+01 -0.42599313746E+01  0.80891274029E+01  0.47000000000E+01 0.  1.
<mgrwt>
<rscale>  2 0.68765520E+01</rscale>
<asrwt>0</asrwt>
<pdfrwt beam="1">  1       21 0.95629282E-03 0.68765520E+01</pdfrwt>
<pdfrwt beam="2">  1       21 0.13727596E-02 0.68765520E+01</pdfrwt>
<totfact> 0.24042105E+09</totfact>
</mgrwt>
</event>
<event>
 4    1  0.3989279E+006  0.5881379E+01  0.7546771E-02  0.2431123E+00
         21   -1    0    0  503  502  0.00000000000E+00  0.00000000000E+00  0.27988706734E+01  0.27988706734E+01  0.00000000000E+00 0.  1.
         21   -1    0    0  501  503 -0.00000000000E+00 -0.00000000000E+00 -0.25448513492E+02  0.25448513492E+02  0.00000000000E+00 0.  1.
          5    1    1    2  501    0  0.62471148360E+00  0.34799926602E+01 -0.21454193240E+02  0.22245741636E+02  0.47000000000E+01 0.  1.
         -5    1    1    2    0  502 -0.62471148360E+00 -0.34799926602E+01 -0.11954495781E+01  0.60016425291E+01  0.47000000000E+01 0.  1.
<mgrwt>
<rscale>  2 0.58813785E+01</rscale>
<asrwt>0</asrwt>
<pdfrwt beam="1">  1       21 0.43059551E-03 0.58813785E+01</pdfrwt>
<pdfrwt beam="2">  1       21 0.39151558E-02 0.58813785E+01</pdfrwt>
<totfact> 0.14175990E+09</totfact>
</mgrwt>
</event>
<event>
 4    1  0.3989279E+006  0.5463044E+01  0.7546771E-02  0.2491031E+00
         21   -1    0    0  501  502  0.00000000000E+00  0.00000000000E+00  0.28698248356E+02  0.28698248356E+02  0.00000000000E+00 0.  1.
         21   -1    0    0  502  503 -0.00000000000E+00 -0.00000000000E+00 -0.10535800385E+01  0.10535800385E+01  0.00000000000E+00 0.  1.
          5    1    1    2  501    0  0.27362993318E+01  0.51721912507E+00  0.12130571513E+02  0.13303969892E+02  0.47000000000E+01 0.  1.
         -5    1    1    2    0  503 -0.27362993318E+01 -0.51721912507E+00  0.15514096805E+02  0.16447858503E+02  0.47000000000E+01 0.  1.
<mgrwt>
<rscale>  2 0.54630440E+01</rscale>
<asrwt>0</asrwt>
<pdfrwt beam="1">  1       21 0.44151145E-02 0.54630440E+01</pdfrwt>
<pdfrwt beam="2">  1       21 0.16208926E-03 0.54630440E+01</pdfrwt>
<totfact> 0.42226513E+09</totfact>
</mgrwt>
</event>
<event>
 4    1  0.3989279E+006  0.5526685E+01  0.7546771E-02  0.2481424E+00
         21   -1    0    0  501  502  0.00000000000E+00  0.00000000000E+00  0.61849363175E+00  0.61849363175E+00  0.00000000000E+00 0.  1.
         21   -1    0    0  502  503 -0.00000000000E+00 -0.00000000000E+00 -0.54772216211E+02  0.54772216211E+02  0.00000000000E+00 0.  1.
          5    1    1    2  501    0 -0.42486538867E+00 -0.28764095655E+01 -0.18390992904E+02  0.19203459651E+02  0.47000000000E+01 0.  1.
         -5    1    1    2    0  503  0.42486538867E+00  0.28764095655E+01 -0.35762729675E+02  0.36187250191E+02  0.47000000000E+01 0.  1.
<mgrwt>
<rscale>  2 0.55266846E+01</rscale>
<asrwt>0</asrwt>
<pdfrwt beam="1">  1       21 0.95152865E-04 0.55266846E+01</pdfrwt>
<pdfrwt beam="2">  1       21 0.84264949E-02 0.55266846E+01</pdfrwt>
<totfact> 0.33369878E+09</totfact>
</mgrwt>
</event>
<event>
 4    1  0.3989279E+006  0.5483301E+01  0.7546771E-02  0.2487952E+00
         21   -1    0    0  501  502  0.00000000000E+00  0.00000000000E+00  0.66167757401E+02  0.66167757401E+02  0.00000000000E+00 0. -1.
         21   -1    0    0  502  503 -0.00000000000E+00 -0.00000000000E+00 -0.53415169290E+00  0.53415169290E+00  0.00000000000E+00 0.  1.
          5    1    1    2  501    0 -0.28077333315E+01 -0.30532361214E+00  0.45703676340E+02  0.46031430784E+02  0.47000000000E+01 0. -1.
         -5    1    1    2    0  503  0.28077333315E+01  0.30532361214E+00  0.19929929367E+02  0.20670478310E+02  0.47000000000E+01 0.  1.
<mgrwt>
<rscale>  2 0.54833009E+01</rscale>
<asrwt>0</asrwt>
<pdfrwt beam="1">  1       21 0.10179648E-01 0.54833009E+01</pdfrwt>
<pdfrwt beam="2">  1       21 0.82177236E-04 0.54833009E+01</pdfrwt>
<totfact> 0.30243550E+09</totfact>
</mgrwt>
</event>
<event>
 4    1  0.3989279E+006  0.6985734E+01  0.7546771E-02  0.2302434E+00
         21   -1    0    0  501  502  0.00000000000E+00  0.00000000000E+00  0.32469549540E+00  0.32469549540E+00  0.00000000000E+00 0. -1.
         21   -1    0    0  502  503 -0.00000000000E+00 -0.00000000000E+00 -0.16385299615E+03  0.16385299615E+03  0.00000000000E+00 0.  1.
          5    1    1    2  501    0 -0.44751152554E+01 -0.25853101801E+01 -0.58151965639E+02  0.58570057137E+02  0.47000000000E+01 0. -1.
         -5    1    1    2    0  503  0.44751152554E+01  0.25853101801E+01 -0.10537633501E+03  0.10560763451E+03  0.47000000000E+01 0.  1.
<mgrwt>
<rscale>  2 0.69857344E+01</rscale>
<asrwt>0</asrwt>
<pdfrwt beam="1">  1       21 0.49953126E-04 0.69857344E+01</pdfrwt>
<pdfrwt beam="2">  1       21 0.25208167E-01 0.69857344E+01</pdfrwt>
<totfact> 0.16926202E+09</totfact>
</mgrwt>
</event>
<event>
 4    1  0.3989279E+006  0.5019690E+01  0.7546771E-02  0.2563673E+00
         21   -1    0    0  503  502  0.00000000000E+00  0.00000000000E+00  0.20854372049E+04  0.20854372049E+04  0.00000000000E+00 0. -1.
         21   -1    0    0  501  503 -0.00000000000E+00 -0.00000000000E+00 -0.12721966447E-01  0.12721966447E-01  0.00000000000E+00 0. -1.
          5    1    1    2  501    0  0.54864223233E+00 -0.16751948038E+01  0.80893457974E+03  0.80895015396E+03  0.47000000000E+01 0.  1.
         -5    1    1    2    0  502 -0.54864223233E+00  0.16751948038E+01  0.12764899032E+04  0.12764997729E+04  0.47000000000E+01 0.  1.
<mgrwt>
<rscale>  2 0.50196898E+01</rscale>
<asrwt>0</asrwt>
<pdfrwt beam="1">  1       21 0.32056292E+00 0.50196898E+01</pdfrwt>
<pdfrwt beam="2">  1       21 0.19588959E-05 0.50196898E+01</pdfrwt>
<totfact> 0.65999700E+08</totfact>
</mgrwt>
</event>
<event>
 4    1  0.3989279E+006  0.5305307E+01  0.7546771E-02  0.2515685E+00
         21   -1    0    0  501  502  0.00000000000E+00  0.00000000000E+00  0.32596141093E+02  0.32596141093E+02  0.00000000000E+00 0.  1.
         21   -1    0    0  502  503 -0.00000000000E+00 -0.00000000000E+00 -0.15521679229E+01  0.15521679229E+01  0.00000000000E+00 0.  1.
          5    1    1    2  501    0  0.12047823483E+01  0.21458744598E+01  0.26895104022E+02  0.27413370790E+02  0.47000000000E+01 0.  1.
         -5    1    1    2    0  503 -0.12047823483E+01 -0.21458744598E+01  0.41488691484E+01  0.67349382265E+01  0.47000000000E+01 0.  1.
<mgrwt>
<rscale>  2 0.53053066E+01</rscale>
<asrwt>0</asrwt>
<pdfrwt beam="1">  1       21 0.50147904E-02 0.53053066E+01</pdfrwt>
<pdfrwt beam="2">  1       21 0.23879509E-03 0.53053066E+01</pdfrwt>
<totfact> 0.20177749E+09</totfact>
</mgrwt>
</event>
<event>
 4    1  0.3989279E+006  0.4826440E+01  0.7546771E-02  0.2598896E+00
         21   -1    0    0  501  502  0.00000000000E+00  0.00000000000E+00  0.69973107864E+03  0.69973107864E+03  0.00000000000E+00 0. -1.
         21   -1    0    0  502  503 -0.00000000000E+00 -0.00000000000E+00 -0.47993840733E-01  0.47993840733E-01  0.00000000000E+00 0.  1.
          5    1    1    2  501    0  0.40161504390E+00 -0.10213835139E+01  0.54350320194E+03  0.54352463150E+03  0.47000000000E+01 0. -1.
         -5    1    1    2    0  503 -0.40161504390E+00  0.10213835139E+01  0.15617988285E+03  0.15625444098E+03  0.47000000000E+01 0.  1.
<mgrwt>
<rscale>  2 0.48264396E+01</rscale>
<asrwt>0</asrwt>
<pdfrwt beam="1">  1       21 0.10764277E+00 0.48264396E+01</pdfrwt>
<pdfrwt beam="2">  1       21 0.73842282E-05 0.48264396E+01</pdfrwt>
<totfact> 0.11632404E+09</totfact>
</mgrwt>
</event>
<event>
 4    1  0.3989279E+006  0.7380760E+01  0.7546771E-02  0.2264237E+00
         21   -1    0    0  503  502  0.00000000000E+00  0.00000000000E+00  0.10202607655E+02  0.10202607655E+02  0.00000000000E+00 0. -1.
         21   -1    0    0  501  503 -0.00000000000E+00 -0.00000000000E+00 -0.61657200341E+01  0.61657200341E+01  0.00000000000E+00 0.  1.
          5    1    1    2  501    0  0.54950516925E+01  0.14798713282E+01 -0.97769187371E+00  0.74452329481E+01  0.47000000000E+01 0. -1.
         -5    1    1    2    0  502 -0.54950516925E+01 -0.14798713282E+01  0.50145794950E+01  0.89230947414E+01  0.47000000000E+01 0.  1.
<mgrwt>
<rscale>  2 0.73807596E+01</rscale>
<asrwt>0</asrwt>
<pdfrwt beam="1">  1       21 0.15696319E-02 0.73807596E+01</pdfrwt>
<pdfrwt beam="2">  1       21 0.94857231E-03 0.73807596E+01</pdfrwt>
<totfact> 0.21182359E+09</totfact>
</mgrwt>
</event>
<event>
 4    1  0.3989279E+006  0.6473249E+01  0.7546771E-02  0.2357619E+00
         21   -1    0    0  501  502  0.00000000000E+00  0.00000000000E+00  0.21319571504E+00  0.21319571504E+00  0.00000000000E+00 0. -1.
         21   -1    0    0  502  503 -0.00000000000E+00 -0.00000000000E+00 -0.27248854475E+03  0.27248854475E+03  0.00000000000E+00 0.  1.
          5    1    1    2  501    0  0.28664805964E+01  0.34053251923E+01 -0.64155680680E+02  0.64481426118E+02  0.47000000000E+01 0. -1.
         -5    1    1    2    0  503 -0.28664805964E+01 -0.34053251923E+01 -0.20811966836E+03  0.20822031435E+03  0.47000000000E+01 0.  1.
<mgrwt>
<rscale>  2 0.64732489E+01</rscale>
<asrwt>0</asrwt>
<pdfrwt beam="1">  1       21 0.32799342E-04 0.64732489E+01</pdfrwt>
<pdfrwt beam="2">  1       21 0.41921313E-01 0.64732489E+01</pdfrwt>
<totfact> 0.11788800E+09</totfact>
</mgrwt>
</event>
<event>
 4    1  0.3989279E+006  0.5260862E+01  0.7546771E-02  0.2522858E+00
         21   -1    0    0  503  502  0.00000000000E+00  0.00000000000E+00  0.11303528219E+01  0.11303528219E+01  0.00000000000E+00 0. -1.
         21   -1    0    0  501  503 -0.00000000000E+00 -0.00000000000E+00 -0.56813492227E+02  0.56813492227E+02  0.00000000000E+00 0. -1.
          5    1    1    2  501    0 -0.43338847731E+00  0.23235412629E+01 -0.59868917111E+01  0.79699148009E+01  0.47000000000E+01 0. -1.
         -5    1    1    2    0  502  0.43338847731E+00 -0.23235412629E+01 -0.49696247694E+02  0.49973930248E+02  0.47000000000E+01 0. -1.
<mgrwt>
<rscale>  2 0.52608621E+01</rscale>
<asrwt>0</asrwt>
<pdfrwt beam="1">  1       21 0.17390037E-03 0.52608621E+01</pdfrwt>
<pdfrwt beam="2">  1       21 0.87405405E-02 0.52608621E+01</pdfrwt>
<totfact> 0.13447491E+09</totfact>
</mgrwt>
</event>
<event>
 4    1  0.3989279E+006  0.7596222E+01  0.7546771E-02  0.2244777E+00
         21   -1    0    0  501  502  0.00000000000E+00  0.00000000000E+00  0.55164112499E+01  0.55164112499E+01  0.00000000000E+00 0.  1.
         21   -1    0    0  502  503 -0.00000000000E+00 -0.00000000000E+00 -0.10481562905E+02  0.10481562905E+02  0.00000000000E+00 0. -1.
          5    1    1    2  501    0 -0.59514696708E+01 -0.43885351867E+00 -0.28439739920E+01  0.81111510725E+01  0.47000000000E+01 0.  1.
         -5    1    1    2    0  503  0.59514696708E+01  0.43885351867E+00 -0.21211776630E+01  0.78868230823E+01  0.47000000000E+01 0. -1.
<mgrwt>
<rscale>  2 0.75962217E+01</rscale>
<asrwt>0</asrwt>
<pdfrwt beam="1">  1       21 0.84867866E-03 0.75962217E+01</pdfrwt>
<pdfrwt beam="2">  1       21 0.16125481E-02 0.75962217E+01</pdfrwt>
<totfact> 0.24399868E+09</totfact>
</mgrwt>
</event>
<event>
 4    1  0.3989279E+006  0.7081565E+01  0.7546771E-02  0.2292849E+00
         21   -1    0    0  501  502  0.00000000000E+00  0.00000000000E+00  0.62708939146E+00  0.62708939146E+00  0.00000000000E+00 0. -1.
         21   -1    0    0  502  503 -0.00000000000E+00 -0.00000000000E+00 -0.85627520146E+02  0.85627520146E+02  0.00000000000E+00 0. -1.
          5    1    1    2  501    0  0.28805206736E+01 -0.44453526232E+01 -0.31414973271E+02  0.32203246807E+02  0.47000000000E+01 0. -1.
         -5    1    1    2    0  503 -0.28805206736E+01  0.44453526232E+01 -0.53585457484E+02  0.54051362731E+02  0.47000000000E+01 0. -1.
<mgrwt>
<rscale>  2 0.70815647E+01</rscale>
<asrwt>0</asrwt>
<pdfrwt beam="1">  1       21 0.96475249E-04 0.70815647E+01</pdfrwt>
<pdfrwt beam="2">  1       21 0.13173470E-01 0.70815647E+01</pdfrwt>
<totfact> 0.20146018E+09</totfact>
</mgrwt>
</event>
<event>
 4    1  0.3989279E+006  0.6752901E+01  0.7546771E-02  0.2326650E+00
         21   -1    0    0  503  502  0.00000000000E+00  0.00000000000E+00  0.50751698791E+01  0.50751698791E+01  0.00000000000E+00 0.  1.
         21   -1    0    0  501  503 -0.00000000000E+00 -0.00000000000E+00 -0.10708483510E+02  0.10708483510E+02  0.00000000000E+00 0.  1.
          5    1    1    2  501    0  0.42726386393E+01  0.22926465801E+01 -0.59824726044E+01  0.90217319704E+01  0.47000000000E+01 0.  1.
         -5    1    1    2    0  502 -0.42726386393E+01 -0.22926465801E+01  0.34915897354E+00  0.67619214186E+01  0.47000000000E+01 0.  1.
<mgrwt>
<rscale>  2 0.67529008E+01</rscale>
<asrwt>0</asrwt>
<pdfrwt beam="1">  1       21 0.78079537E-03 0.67529008E+01</pdfrwt>
<pdfrwt beam="2">  1       21 0.16474590E-02 0.67529008E+01</pdfrwt>
<totfact> 0.24304569E+09</totfact>
</mgrwt>
</event>
<event>
 4    1  0.3989279E+006  0.4984646E+01  0.7546771E-02  0.2569885E+00
         21   -1    0    0  503  502  0.00000000000E+00  0.00000000000E+00  0.76436255270E+03  0.76436255270E+03  0.00000000000E+00 0.  1.
         21   -1    0    0  501  503 -0.00000000000E+00 -0.00000000000E+00 -0.35855501611E-01  0.35855501611E-01  0.00000000000E+00 0.  1.
          5    1    1    2  501    0  0.69798899662E+00  0.15064882434E+01  0.49897180721E+03  0.49899670449E+03  0.47000000000E+01 0.  1.
         -5    1    1    2    0  502 -0.69798899662E+00 -0.15064882434E+01  0.26535488999E+03  0.26540170372E+03  0.47000000000E+01 0.  1.
<mgrwt>
<rscale>  2 0.49846460E+01</rscale>
<asrwt>0</asrwt>
<pdfrwt beam="1">  1       21 0.11758119E+00 0.49846460E+01</pdfrwt>
<pdfrwt beam="2">  1       21 0.55168432E-05 0.49846460E+01</pdfrwt>
<totfact> 0.14737923E+09</totfact>
</mgrwt>
</event>
<event>
 4    1  0.3989279E+006  0.9019274E+01  0.7546771E-02  0.2135513E+00
         21   -1    0    0  503  502  0.00000000000E+00  0.00000000000E+00  0.70203956623E+03  0.70203956623E+03  0.00000000000E+00 0.  1.
         21   -1    0    0  501  503 -0.00000000000E+00 -0.00000000000E+00 -0.11823746903E+00  0.11823746903E+00  0.00000000000E+00 0. -1.
          5    1    1    2  501    0 -0.76966515295E+01 -0.13730973540E+00  0.30131158031E+03  0.30144653875E+03  0.47000000000E+01 0. -1.
         -5    1    1    2    0  502  0.76966515295E+01  0.13730973540E+00  0.40060974845E+03  0.40071126494E+03  0.47000000000E+01 0.  1.
<mgrwt>
<rscale>  2 0.90192737E+01</rscale>
<asrwt>0</asrwt>
<pdfrwt beam="1">  1       21 0.10800275E+00 0.90192737E+01</pdfrwt>
<pdfrwt beam="2">  1       21 0.18190942E-04 0.90192737E+01</pdfrwt>
<totfact> 0.51417947E+08</totfact>
</mgrwt>
</event>
<event>
 4    1  0.3989279E+006  0.7109057E+01  0.7546771E-02  0.2290138E+00
         21   -1    0    0  503  502  0.00000000000E+00  0.00000000000E+00  0.25000040271E-01  0.25000040271E-01  0.00000000000E+00 0.  1.
         21   -1    0    0  501  503 -0.00000000000E+00 -0.00000000000E+00 -0.20703745921E+04  0.20703745921E+04  0.00000000000E+00 0.  1.
          5    1    1    2  501    0 -0.49551942527E+01  0.19735104754E+01 -0.11941551743E+04  0.11941763349E+04  0.47000000000E+01 0.  1.
         -5    1    1    2    0  502  0.49551942527E+01 -0.19735104754E+01 -0.87619441779E+03  0.87622325720E+03  0.47000000000E+01 0.  1.
<mgrwt>
<rscale>  2 0.71090572E+01</rscale>
<asrwt>0</asrwt>
<pdfrwt beam="1">  1       21 0.38460535E-05 0.71090572E+01</pdfrwt>
<pdfrwt beam="2">  1       21 0.31852799E+00 0.71090572E+01</pdfrwt>
<totfact> 0.29929114E+08</totfact>
</mgrwt>
</event>
<event>
 4    1  0.3989279E+006  0.1914453E+02  0.7546771E-02  0.1762895E+00
         21   -1    0    0  503  502  0.00000000000E+00  0.00000000000E+00  0.49717428858E+01  0.49717428858E+01  0.00000000000E+00 0. -1.
         21   -1    0    0  501  503 -0.00000000000E+00 -0.00000000000E+00 -0.74246383543E+02  0.74246383543E+02  0.00000000000E+00 0.  1.
          5    1    1    2  501    0  0.89398821318E+01 -0.16263505790E+02 -0.37974817150E+02  0.42527636317E+02  0.47000000000E+01 0. -1.
         -5    1    1    2    0  502 -0.89398821318E+01  0.16263505790E+02 -0.31299823507E+02  0.36690490112E+02  0.47000000000E+01 0.  1.
<mgrwt>
<rscale>  2 0.19144532E+02</rscale>
<asrwt>0</asrwt>
<pdfrwt beam="1">  1       21 0.76488358E-03 0.19144532E+02</pdfrwt>
<pdfrwt beam="2">  1       21 0.11422520E-01 0.19144532E+02</pdfrwt>
<totfact> 0.22514060E+08</totfact>
</mgrwt>
</event>
<event>
 4    1  0.3989279E+006  0.5545977E+01  0.7546771E-02  0.2478548E+00
         21   -1    0    0  503  502  0.00000000000E+00  0.00000000000E+00  0.36585626941E+02  0.36585626941E+02  0.00000000000E+00 0.  1.
         21   -1    0    0  501  503 -0.00000000000E+00 -0.00000000000E+00 -0.85658903075E+00  0.85658903075E+00  0.00000000000E+00 0.  1.
          5    1    1    2  501    0 -0.28663821735E+01 -0.67210013732E+00  0.15315511279E+02  0.16288730801E+02  0.47000000000E+01 0.  1.
         -5    1    1    2    0  502  0.28663821735E+01  0.67210013732E+00  0.20413526631E+02  0.21153485171E+02  0.47000000000E+01 0.  1.
<mgrwt>
<rscale>  2 0.55459774E+01</rscale>
<asrwt>0</asrwt>
<pdfrwt beam="1">  1       21 0.56285568E-02 0.55459774E+01</pdfrwt>
<pdfrwt beam="2">  1       21 0.13178296E-03 0.55459774E+01</pdfrwt>
<totfact> 0.39565585E+09</totfact>
</mgrwt>
</event>
<event>
 4    1  0.3989279E+006  0.5722429E+01  0.7546771E-02  0.2453013E+00
         21   -1    0    0  501  502  0.00000000000E+00  0.00000000000E+00  0.86789026797E+00  0.86789026797E+00  0.00000000000E+00 0.  1.
         21   -1    0    0  502  503 -0.00000000000E+00 -0.00000000000E+00 -0.47176463807E+02  0.47176463807E+02  0.00000000000E+00 0.  1.
          5    1    1    2  501    0 -0.14896767251E+01  0.29046612031E+01 -0.12405339539E+02  0.13661575404E+02  0.47000000000E+01 0.  1.
         -5    1    1    2    0  503  0.14896767251E+01 -0.29046612031E+01 -0.33903234000E+02  0.34382778671E+02  0.47000000000E+01 0.  1.
<mgrwt>
<rscale>  2 0.57224290E+01</rscale>
<asrwt>0</asrwt>
<pdfrwt beam="1">  1       21 0.13352157E-03 0.57224290E+01</pdfrwt>
<pdfrwt beam="2">  1       21 0.72579178E-02 0.57224290E+01</pdfrwt>
<totfact> 0.27370531E+09</totfact>
</mgrwt>
</event>
<event>
 4    1  0.3989279E+006  0.5505996E+01  0.7546771E-02  0.2484526E+00
         21   -1    0    0  503  502  0.00000000000E+00  0.00000000000E+00  0.46140169120E+01  0.46140169120E+01  0.00000000000E+00 0.  1.
         21   -1    0    0  501  503 -0.00000000000E+00 -0.00000000000E+00 -0.25572822664E+02  0.25572822664E+02  0.00000000000E+00 0. -1.
          5    1    1    2  501    0  0.67038791058E+00  0.27886509317E+01 -0.23490162781E+02  0.24126826178E+02  0.47000000000E+01 0. -1.
         -5    1    1    2    0  502 -0.67038791058E+00 -0.27886509317E+01  0.25313570290E+01  0.60600133975E+01  0.47000000000E+01 0.  1.
<mgrwt>
<rscale>  2 0.55059962E+01</rscale>
<asrwt>0</asrwt>
<pdfrwt beam="1">  1       21 0.70984875E-03 0.55059962E+01</pdfrwt>
<pdfrwt beam="2">  1       21 0.39342804E-02 0.55059962E+01</pdfrwt>
<totfact> 0.66580086E+08</totfact>
</mgrwt>
</event>
<event>
 4    1  0.3989279E+006  0.7739690E+01  0.7546771E-02  0.2232309E+00
         21   -1    0    0  501  502  0.00000000000E+00  0.00000000000E+00  0.83856402571E+01  0.83856402571E+01  0.00000000000E+00 0. -1.
         21   -1    0    0  502  503 -0.00000000000E+00 -0.00000000000E+00 -0.71435024030E+01  0.71435024030E+01  0.00000000000E+00 0.  1.
          5    1    1    2  501    0 -0.60261267454E+01  0.12241743515E+01  0.62699830638E+00  0.77650456065E+01  0.47000000000E+01 0.  1.
         -5    1    1    2    0  503  0.60261267454E+01 -0.12241743515E+01  0.61513954769E+00  0.77640970536E+01  0.47000000000E+01 0. -1.
<mgrwt>
<rscale>  2 0.77396903E+01</rscale>
<asrwt>0</asrwt>
<pdfrwt beam="1">  1       21 0.12900985E-02 0.77396903E+01</pdfrwt>
<pdfrwt beam="2">  1       21 0.10990004E-02 0.77396903E+01</pdfrwt>
<totfact> 0.23602148E+09</totfact>
</mgrwt>
</event>
<event>
 4    1  0.3989279E+006  0.6295757E+01  0.7546771E-02  0.2378450E+00
         21   -1    0    0  503  502  0.00000000000E+00  0.00000000000E+00  0.31170710654E+03  0.31170710654E+03  0.00000000000E+00 0. -1.
         21   -1    0    0  501  503 -0.00000000000E+00 -0.00000000000E+00 -0.20749787436E+00  0.20749787436E+00  0.00000000000E+00 0. -1.
          5    1    1    2  501    0  0.68719112222E+00 -0.41321089897E+01  0.58707725582E+02  0.59044335879E+02  0.47000000000E+01 0. -1.
         -5    1    1    2    0  502 -0.68719112222E+00  0.41321089897E+01  0.25279188308E+03  0.25287026853E+03  0.47000000000E+01 0. -1.
<mgrwt>
<rscale>  2 0.62957570E+01</rscale>
<asrwt>0</asrwt>
<pdfrwt beam="1">  1       21 0.47954565E-01 0.62957570E+01</pdfrwt>
<pdfrwt beam="2">  1       21 0.31922999E-04 0.62957570E+01</pdfrwt>
<totfact> 0.94333873E+08</totfact>
</mgrwt>
</event>
<event>
 4    1  0.3989279E+006  0.2533294E+02  0.7546771E-02  0.1656265E+00
         21   -1    0    0  503  502  0.00000000000E+00  0.00000000000E+00  0.23022574975E+02  0.23022574975E+02  0.00000000000E+00 0.  1.
         21   -1    0    0  501  503 -0.00000000000E+00 -0.00000000000E+00 -0.28889317383E+02  0.28889317383E+02  0.00000000000E+00 0. -1.
          5    1    1    2  501    0 -0.18863391589E+02 -0.16243166969E+02  0.19298093930E+01  0.25406341328E+02  0.47000000000E+01 0. -1.
         -5    1    1    2    0  502  0.18863391589E+02  0.16243166969E+02 -0.77965518015E+01  0.26505551030E+02  0.47000000000E+01 0.  1.
<mgrwt>
<rscale>  2 0.25332943E+02</rscale>
<asrwt>0</asrwt>
<pdfrwt beam="1">  1       21 0.35419346E-02 0.25332943E+02</pdfrwt>
<pdfrwt beam="2">  1       21 0.44445103E-02 0.25332943E+02</pdfrwt>
<totfact> 0.10955137E+08</totfact>
</mgrwt>
</event>
<event>
 4    1  0.3989279E+006  0.5386731E+01  0.7546771E-02  0.2502805E+00
         21   -1    0    0  503  502  0.00000000000E+00  0.00000000000E+00  0.37004244268E+01  0.37004244268E+01  0.00000000000E+00 0. -1.
         21   -1    0    0  501  503 -0.00000000000E+00 -0.00000000000E+00 -0.13059649332E+03  0.13059649332E+03  0.00000000000E+00 0. -1.
          5    1    1    2  501    0 -0.25227757939E+01 -0.74998516985E+00 -0.12854936674E+03  0.12866218001E+03  0.47000000000E+01 0. -1.
         -5    1    1    2    0  502  0.25227757939E+01  0.74998516985E+00  0.16532978565E+01  0.56347377280E+01  0.47000000000E+01 0. -1.
<mgrwt>
<rscale>  2 0.53867314E+01</rscale>
<asrwt>0</asrwt>
<pdfrwt beam="1">  1       21 0.56929619E-03 0.53867314E+01</pdfrwt>
<pdfrwt beam="2">  1       21 0.20091764E-01 0.53867314E+01</pdfrwt>
<totfact> 0.74744163E+07</totfact>
</mgrwt>
</event>
<event>
 4    1  0.3989279E+006  0.5205318E+01  0.7546771E-02  0.2531971E+00
         21   -1    0    0  501  502  0.00000000000E+00  0.00000000000E+00  0.12883475602E+02  0.12883475602E+02  0.00000000000E+00 0. -1.
         21   -1    0    0  502  503 -0.00000000000E+00 -0.00000000000E+00 -0.21278758000E+01  0.21278758000E+01  0.00000000000E+00 0. -1.
          5    1    1    2  501    0  0.21230107521E+01  0.70580534757E+00  0.61875735041E+01  0.80858766816E+01  0.47000000000E+01 0. -1.
         -5    1    1    2    0  503 -0.21230107521E+01 -0.70580534757E+00  0.45680262974E+01  0.69254747199E+01  0.47000000000E+01 0. -1.
<mgrwt>
<rscale>  2 0.52053180E+01</rscale>
<asrwt>0</asrwt>
<pdfrwt beam="1">  1       21 0.19820731E-02 0.52053180E+01</pdfrwt>
<pdfrwt beam="2">  1       21 0.32736552E-03 0.52053180E+01</pdfrwt>
<totfact> 0.49235657E+09</totfact>
</mgrwt>
</event>
<event>
 4    1  0.3989279E+006  0.7970414E+01  0.7546771E-02  0.2213023E+00
         21   -1    0    0  503  502  0.00000000000E+00  0.00000000000E+00  0.15834527269E+02  0.15834527269E+02  0.00000000000E+00 0. -1.
         21   -1    0    0  501  503 -0.00000000000E+00 -0.00000000000E+00 -0.42451947969E+01  0.42451947969E+01  0.00000000000E+00 0.  1.
          5    1    1    2  501    0  0.62460344227E+01  0.15570994848E+01  0.34413803382E+01  0.86816244706E+01  0.47000000000E+01 0.  1.
         -5    1    1    2    0  502 -0.62460344227E+01 -0.15570994848E+01  0.81479521338E+01  0.11398097595E+02  0.47000000000E+01 0.  1.
<mgrwt>
<rscale>  2 0.79704143E+01</rscale>
<asrwt>0</asrwt>
<pdfrwt beam="1">  1       21 0.24360811E-02 0.79704143E+01</pdfrwt>
<pdfrwt beam="2">  1       21 0.65310690E-03 0.79704143E+01</pdfrwt>
<totfact> 0.20096871E+09</totfact>
</mgrwt>
</event>
<event>
 4    1  0.3989279E+006  0.8444973E+01  0.7546771E-02  0.2176046E+00
         21   -1    0    0  501  502  0.00000000000E+00  0.00000000000E+00  0.37415274886E+01  0.37415274886E+01  0.00000000000E+00 0. -1.
         21   -1    0    0  502  503 -0.00000000000E+00 -0.00000000000E+00 -0.61447483654E+02  0.61447483654E+02  0.00000000000E+00 0. -1.
          5    1    1    2  501    0  0.32411397688E+01 -0.62227465308E+01 -0.17818956062E+01  0.86309161356E+01  0.47000000000E+01 0. -1.
         -5    1    1    2    0  503 -0.32411397688E+01  0.62227465308E+01 -0.55924060559E+02  0.56558095007E+02  0.47000000000E+01 0. -1.
<mgrwt>
<rscale>  2 0.84449726E+01</rscale>
<asrwt>0</asrwt>
<pdfrwt beam="1">  1       21 0.57561967E-03 0.84449726E+01</pdfrwt>
<pdfrwt beam="2">  1       21 0.94534581E-02 0.84449726E+01</pdfrwt>
<totfact> 0.32050966E+08</totfact>
</mgrwt>
</event>
<event>
 4    1  0.3989279E+006  0.6972342E+01  0.7546771E-02  0.2303791E+00
         21   -1    0    0  503  502  0.00000000000E+00  0.00000000000E+00  0.36126310018E+03  0.36126310018E+03  0.00000000000E+00 0. -1.
         21   -1    0    0  501  503 -0.00000000000E+00 -0.00000000000E+00 -0.28934501990E+00  0.28934501990E+00  0.00000000000E+00 0.  1.
          5    1    1    2  501    0  0.51075357585E+01 -0.66078185469E+00  0.48269045581E+02  0.48770014512E+02  0.47000000000E+01 0.  1.
         -5    1    1    2    0  502 -0.51075357585E+01  0.66078185469E+00  0.31270470958E+03  0.31278243069E+03  0.47000000000E+01 0. -1.
<mgrwt>
<rscale>  2 0.69723421E+01</rscale>
<asrwt>0</asrwt>
<pdfrwt beam="1">  1       21 0.55578578E-01 0.69723421E+01</pdfrwt>
<pdfrwt beam="2">  1       21 0.44514907E-04 0.69723421E+01</pdfrwt>
<totfact> 0.49377078E+08</totfact>
</mgrwt>
</event>
<event>
 4    1  0.3989279E+006  0.8030208E+01  0.7546771E-02  0.2208171E+00
         21   -1    0    0  503  502  0.00000000000E+00  0.00000000000E+00  0.10665931110E+01  0.10665931110E+01  0.00000000000E+00 0. -1.
         21   -1    0    0  501  503 -0.00000000000E+00 -0.00000000000E+00 -0.72301842416E+02  0.72301842416E+02  0.00000000000E+00 0.  1.
          5    1    1    2  501    0 -0.30994695103E+01 -0.57260401771E+01 -0.50464946487E+02  0.51099853927E+02  0.47000000000E+01 0.  1.
         -5    1    1    2    0  502  0.30994695103E+01  0.57260401771E+01 -0.20770302818E+02  0.22268581601E+02  0.47000000000E+01 0. -1.
<mgrwt>
<rscale>  2 0.80302084E+01</rscale>
<asrwt>0</asrwt>
<pdfrwt beam="1">  1       21 0.16409126E-03 0.80302084E+01</pdfrwt>
<pdfrwt beam="2">  1       21 0.11123360E-01 0.80302084E+01</pdfrwt>
<totfact> 0.13915409E+09</totfact>
</mgrwt>
</event>
<event>
 4    1  0.3989279E+006  0.6288858E+01  0.7546771E-02  0.2379279E+00
         21   -1    0    0  503  502  0.00000000000E+00  0.00000000000E+00  0.11188824143E+01  0.11188824143E+01  0.00000000000E+00 0.  1.
         21   -1    0    0  501  503 -0.00000000000E+00 -0.00000000000E+00 -0.36924617136E+02  0.36924617136E+02  0.00000000000E+00 0. -1.
          5    1    1    2  501    0 -0.39358787263E+01 -0.14030673011E+01 -0.21834013060E+02  0.22721660712E+02  0.47000000000E+01 0. -1.
         -5    1    1    2    0  502  0.39358787263E+01  0.14030673011E+01 -0.13971721662E+02  0.15321838839E+02  0.47000000000E+01 0.  1.
<mgrwt>
<rscale>  2 0.62888583E+01</rscale>
<asrwt>0</asrwt>
<pdfrwt beam="1">  1       21 0.17213573E-03 0.62888583E+01</pdfrwt>
<pdfrwt beam="2">  1       21 0.56807112E-02 0.62888583E+01</pdfrwt>
<totfact> 0.30411392E+09</totfact>
</mgrwt>
</event>
<event>
 4    1  0.3989279E+006  0.4803096E+01  0.7546771E-02  0.2603316E+00
         21   -1    0    0  503  502  0.00000000000E+00  0.00000000000E+00  0.51631357518E+01  0.51631357518E+01  0.00000000000E+00 0.  1.
         21   -1    0    0  501  503 -0.00000000000E+00 -0.00000000000E+00 -0.33458632337E+02  0.33458632337E+02  0.00000000000E+00 0.  1.
          5    1    1    2  501    0  0.92141748675E+00  0.36155676003E+00 -0.32123029156E+02  0.32480128319E+02  0.47000000000E+01 0.  1.
         -5    1    1    2    0  502 -0.92141748675E+00 -0.36155676003E+00  0.38275325709E+01  0.61416397694E+01  0.47000000000E+01 0.  1.
<mgrwt>
<rscale>  2 0.48030962E+01</rscale>
<asrwt>0</asrwt>
<pdfrwt beam="1">  1       21 0.79432860E-03 0.48030962E+01</pdfrwt>
<pdfrwt beam="2">  1       21 0.51474818E-02 0.48030962E+01</pdfrwt>
<totfact> 0.34145726E+08</totfact>
</mgrwt>
</event>
<event>
 4    1  0.3989279E+006  0.6148059E+01  0.7546771E-02  0.2396543E+00
         21   -1    0    0  503  502  0.00000000000E+00  0.00000000000E+00  0.33020334405E+02  0.33020334405E+02  0.00000000000E+00 0.  1.
         21   -1    0    0  501  503 -0.00000000000E+00 -0.00000000000E+00 -0.39765132121E+01  0.39765132121E+01  0.00000000000E+00 0.  1.
          5    1    1    2  501    0  0.36276676513E+01  0.15964496727E+01 -0.10885327575E+01  0.62436790204E+01  0.47000000000E+01 0.  1.
         -5    1    1    2    0  502 -0.36276676513E+01 -0.15964496727E+01  0.30132353950E+02  0.30753168596E+02  0.47000000000E+01 0.  1.
<mgrwt>
<rscale>  2 0.61480586E+01</rscale>
<asrwt>0</asrwt>
<pdfrwt beam="1">  1       21 0.50800513E-02 0.61480586E+01</pdfrwt>
<pdfrwt beam="2">  1       21 0.61177129E-03 0.61480586E+01</pdfrwt>
<totfact> 0.61392780E+08</totfact>
</mgrwt>
</event>
<event>
 4    1  0.3989279E+006  0.5861686E+01  0.7546771E-02  0.2433780E+00
         21   -1    0    0  501  502  0.00000000000E+00  0.00000000000E+00  0.41634648950E+03  0.41634648950E+03  0.00000000000E+00 0.  1.
         21   -1    0    0  502  503 -0.00000000000E+00 -0.00000000000E+00 -0.12704340848E+00  0.12704340848E+00  0.00000000000E+00 0.  1.
          5    1    1    2  501    0  0.47071371031E+00  0.34709929529E+01  0.33137672396E+03  0.33142856326E+03  0.47000000000E+01 0.  1.
         -5    1    1    2    0  503 -0.47071371031E+00 -0.34709929529E+01  0.84842722130E+02  0.85044969645E+02  0.47000000000E+01 0.  1.
<mgrwt>
<rscale>  2 0.58616861E+01</rscale>
<asrwt>0</asrwt>
<pdfrwt beam="1">  1       21 0.64052214E-01 0.58616861E+01</pdfrwt>
<pdfrwt beam="2">  1       21 0.19545473E-04 0.58616861E+01</pdfrwt>
<totfact> 0.10152859E+09</totfact>
</mgrwt>
</event>
<event>
 4    1  0.3989279E+006  0.7742748E+01  0.7546771E-02  0.2232047E+00
         21   -1    0    0  503  502  0.00000000000E+00  0.00000000000E+00  0.63116346435E+01  0.63116346435E+01  0.00000000000E+00 0.  1.
         21   -1    0    0  501  503 -0.00000000000E+00 -0.00000000000E+00 -0.96325846367E+01  0.96325846367E+01  0.00000000000E+00 0. -1.
          5    1    1    2  501    0  0.61030563985E+01  0.78285148930E+00 -0.71940015942E+00  0.77760973789E+01  0.47000000000E+01 0.  1.
         -5    1    1    2    0  502 -0.61030563985E+01 -0.78285148930E+00 -0.26015498337E+01  0.81681219013E+01  0.47000000000E+01 0. -1.
<mgrwt>
<rscale>  2 0.77427485E+01</rscale>
<asrwt>0</asrwt>
<pdfrwt beam="1">  1       21 0.97102071E-03 0.77427485E+01</pdfrwt>
<pdfrwt beam="2">  1       21 0.14819361E-02 0.77427485E+01</pdfrwt>
<totfact> 0.23078476E+09</totfact>
</mgrwt>
</event>
<event>
 4    1  0.3989279E+006  0.1815749E+02  0.7546771E-02  0.1784663E+00
         21   -1    0    0  503  502  0.00000000000E+00  0.00000000000E+00  0.17690410541E+02  0.17690410541E+02  0.00000000000E+00 0. -1.
         21   -1    0    0  501  503 -0.00000000000E+00 -0.00000000000E+00 -0.11812677030E+03  0.11812677030E+03  0.00000000000E+00 0.  1.
          5    1    1    2  501    0  0.79428523138E+00  0.17520656770E+02 -0.11253998109E+03  0.11399535801E+03  0.47000000000E+01 0.  1.
         -5    1    1    2    0  502 -0.79428523138E+00 -0.17520656770E+02  0.12103621330E+02  0.21821822839E+02  0.47000000000E+01 0. -1.
<mgrwt>
<rscale>  2 0.18157486E+02</rscale>
<asrwt>0</asrwt>
<pdfrwt beam="1">  1       21 0.27216016E-02 0.18157486E+02</pdfrwt>
<pdfrwt beam="2">  1       21 0.18173350E-01 0.18157486E+02</pdfrwt>
<totfact> 0.14986232E+07</totfact>
</mgrwt>
</event>
<event>
 4    1  0.3989279E+006  0.5105180E+01  0.7546771E-02  0.2548827E+00
         21   -1    0    0  503  502  0.00000000000E+00  0.00000000000E+00  0.32634871604E+02  0.32634871604E+02  0.00000000000E+00 0.  1.
         21   -1    0    0  501  503 -0.00000000000E+00 -0.00000000000E+00 -0.55892713402E+01  0.55892713402E+01  0.00000000000E+00 0. -1.
          5    1    1    2  501    0  0.56654675502E+00 -0.19109917059E+01 -0.41712576651E+01  0.65925909197E+01  0.47000000000E+01 0. -1.
         -5    1    1    2    0  502 -0.56654675502E+00  0.19109917059E+01  0.31216857929E+02  0.31631552024E+02  0.47000000000E+01 0.  1.
<mgrwt>
<rscale>  2 0.51051802E+01</rscale>
<asrwt>0</asrwt>
<pdfrwt beam="1">  1       21 0.50207494E-02 0.51051802E+01</pdfrwt>
<pdfrwt beam="2">  1       21 0.85988792E-03 0.51051802E+01</pdfrwt>
<totfact> 0.33457363E+08</totfact>
</mgrwt>
</event>
<event>
 4    1  0.3989279E+006  0.6423750E+01  0.7546771E-02  0.2363332E+00
         21   -1    0    0  501  502  0.00000000000E+00  0.00000000000E+00  0.26217786015E+00  0.26217786015E+00  0.00000000000E+00 0. -1.
         21   -1    0    0  502  503 -0.00000000000E+00 -0.00000000000E+00 -0.15896144498E+03  0.15896144498E+03  0.00000000000E+00 0.  1.
          5    1    1    2  501    0  0.29344495883E+00  0.43690331845E+01 -0.87261461997E+02  0.87497584600E+02  0.47000000000E+01 0. -1.
         -5    1    1    2    0  503 -0.29344495883E+00 -0.43690331845E+01 -0.71437805120E+02  0.71726038238E+02  0.47000000000E+01 0. -1.
<mgrwt>
<rscale>  2 0.64237498E+01</rscale>
<asrwt>0</asrwt>
<pdfrwt beam="1">  1       21 0.40335063E-04 0.64237498E+01</pdfrwt>
<pdfrwt beam="2">  1       21 0.24455602E-01 0.64237498E+01</pdfrwt>
<totfact> 0.22298490E+09</totfact>
</mgrwt>
</event>
<event>
 4    1  0.3989279E+006  0.6237698E+01  0.7546771E-02  0.2385477E+00
         21   -1    0    0  503  502  0.00000000000E+00  0.00000000000E+00  0.89478832031E+03  0.89478832031E+03  0.00000000000E+00 0. -1.
         21   -1    0    0  501  503 -0.00000000000E+00 -0.00000000000E+00 -0.46633433576E-01  0.46633433576E-01  0.00000000000E+00 0.  1.
          5    1    1    2  501    0 -0.20562442384E+01 -0.35483419470E+01  0.33109526273E+03  0.33115401534E+03  0.47000000000E+01 0.  1.
         -5    1    1    2    0  502  0.20562442384E+01  0.35483419470E+01  0.56364642414E+03  0.56368093840E+03  0.47000000000E+01 0. -1.
<mgrwt>
<rscale>  2 0.62376976E+01</rscale>
<asrwt>0</asrwt>
<pdfrwt beam="1">  1       21 0.13764599E+00 0.62376976E+01</pdfrwt>
<pdfrwt beam="2">  1       21 0.71750910E-05 0.62376976E+01</pdfrwt>
<totfact> 0.87107149E+08</totfact>
</mgrwt>
</event>
<event>
 4    1  0.3989279E+006  0.7270300E+01  0.7546771E-02  0.2274576E+00
         21   -1    0    0  503  502  0.00000000000E+00  0.00000000000E+00  0.80187893611E+01  0.80187893611E+01  0.00000000000E+00 0.  1.
         21   -1    0    0  501  503 -0.00000000000E+00 -0.00000000000E+00 -0.66072214772E+01  0.66072214772E+01  0.00000000000E+00 0. -1.
          5    1    1    2  501    0 -0.38143966585E+01 -0.40271139946E+01  0.35107247534E+00  0.72787719347E+01  0.47000000000E+01 0.  1.
         -5    1    1    2    0  502  0.38143966585E+01  0.40271139946E+01  0.10604954086E+01  0.73472389036E+01  0.47000000000E+01 0. -1.
<mgrwt>
<rscale>  2 0.72703005E+01</rscale>
<asrwt>0</asrwt>
<pdfrwt beam="1">  1       21 0.12336599E-02 0.72703005E+01</pdfrwt>
<pdfrwt beam="2">  1       21 0.10164956E-02 0.72703005E+01</pdfrwt>
<totfact> 0.26834368E+09</totfact>
</mgrwt>
</event>
<event>
 4    1  0.3989279E+006  0.4953733E+01  0.7546771E-02  0.2575428E+00
         21   -1    0    0  503  502  0.00000000000E+00  0.00000000000E+00  0.31022836527E+02  0.31022836527E+02  0.00000000000E+00 0.  1.
         21   -1    0    0  501  503 -0.00000000000E+00 -0.00000000000E+00 -0.19780917257E+01  0.19780917257E+01  0.00000000000E+00 0.  1.
          5    1    1    2  501    0  0.15642552449E+01 -0.50733420286E-01  0.17399636838E+01  0.52504230279E+01  0.47000000000E+01 0.  1.
         -5    1    1    2    0  502 -0.15642552449E+01  0.50733420286E-01  0.27304781118E+02  0.27750505225E+02  0.47000000000E+01 0.  1.
<mgrwt>
<rscale>  2 0.49537328E+01</rscale>
<asrwt>0</asrwt>
<pdfrwt beam="1">  1       21 0.47727437E-02 0.49537328E+01</pdfrwt>
<pdfrwt beam="2">  1       21 0.30432183E-03 0.49537328E+01</pdfrwt>
<totfact> 0.14614549E+09</totfact>
</mgrwt>
</event>
<event>
 4    1  0.3989279E+006  0.6782406E+01  0.7546771E-02  0.2323506E+00
         21   -1    0    0  501  502  0.00000000000E+00  0.00000000000E+00  0.18185107385E+03  0.18185107385E+03  0.00000000000E+00 0. -1.
         21   -1    0    0  502  503 -0.00000000000E+00 -0.00000000000E+00 -0.27373624522E+00  0.27373624522E+00  0.00000000000E+00 0. -1.
          5    1    1    2  501    0  0.44506095372E+01 -0.20256127876E+01  0.65701169721E+02  0.66050319720E+02  0.47000000000E+01 0. -1.
         -5    1    1    2    0  503 -0.44506095372E+01  0.20256127876E+01  0.11587616789E+03  0.11607449038E+03  0.47000000000E+01 0. -1.
<mgrwt>
<rscale>  2 0.67824061E+01</rscale>
<asrwt>0</asrwt>
<pdfrwt beam="1">  1       21 0.27976992E-01 0.67824061E+01</pdfrwt>
<pdfrwt beam="2">  1       21 0.42113414E-04 0.67824061E+01</pdfrwt>
<totfact> 0.17504623E+09</totfact>
</mgrwt>
</event>
<event>
 4    1  0.3989279E+006  0.5761487E+01  0.7546771E-02  0.2447540E+00
         21   -1    0    0  501  502  0.00000000000E+00  0.00000000000E+00  0.80025369917E-01  0.80025369917E-01  0.00000000000E+00 0.  1.
         21   -1    0    0  502  503 -0.00000000000E+00 -0.00000000000E+00 -0.52799421814E+03  0.52799421814E+03  0.00000000000E+00 0.  1.
          5    1    1    2  501    0  0.23945004157E+01 -0.23175642454E+01 -0.14170468716E+03  0.14182176525E+03  0.47000000000E+01 0.  1.
         -5    1    1    2    0  503 -0.23945004157E+01  0.23175642454E+01 -0.38620950562E+03  0.38625247826E+03  0.47000000000E+01 0.  1.
<mgrwt>
<rscale>  2 0.57614873E+01</rscale>
<asrwt>0</asrwt>
<pdfrwt beam="1">  1       21 0.12312222E-04 0.57614873E+01</pdfrwt>
<pdfrwt beam="2">  1       21 0.81225745E-01 0.57614873E+01</pdfrwt>
<totfact> 0.11790656E+09</totfact>
</mgrwt>
</event>
<event>
 4    1  0.3989279E+006  0.4787447E+01  0.7546771E-02  0.2606300E+00
         21   -1    0    0  501  502  0.00000000000E+00  0.00000000000E+00  0.13331136733E+02  0.13331136733E+02  0.00000000000E+00 0.  1.
         21   -1    0    0  502  503 -0.00000000000E+00 -0.00000000000E+00 -0.23919808706E+01  0.23919808706E+01  0.00000000000E+00 0.  1.
          5    1    1    2  501    0 -0.20444919144E+00 -0.88760940456E+00  0.13004210213E+01  0.49609217651E+01  0.47000000000E+01 0. -1.
         -5    1    1    2    0  503  0.20444919144E+00  0.88760940456E+00  0.96387348409E+01  0.10762195838E+02  0.47000000000E+01 0. -1.
<mgrwt>
<rscale>  2 0.47874471E+01</rscale>
<asrwt>0</asrwt>
<pdfrwt beam="1">  1       21 0.20509441E-02 0.47874471E+01</pdfrwt>
<pdfrwt beam="2">  1       21 0.36799706E-03 0.47874471E+01</pdfrwt>
<totfact> 0.36628888E+09</totfact>
</mgrwt>
</event>
<event>
 4    1  0.3989279E+006  0.6117800E+01  0.7546771E-02  0.2400339E+00
         21   -1    0    0  503  502  0.00000000000E+00  0.00000000000E+00  0.25368706727E+03  0.25368706727E+03  0.00000000000E+00 0. -1.
         21   -1    0    0  501  503 -0.00000000000E+00 -0.00000000000E+00 -0.17264945583E+00  0.17264945583E+00  0.00000000000E+00 0.  1.
          5    1    1    2  501    0 -0.39122830737E+01  0.17751796330E+00  0.78345368268E+02  0.78583867305E+02  0.47000000000E+01 0.  1.
         -5    1    1    2    0  502  0.39122830737E+01 -0.17751796330E+00  0.17516904955E+03  0.17527584942E+03  0.47000000000E+01 0. -1.
<mgrwt>
<rscale>  2 0.61177996E+01</rscale>
<asrwt>0</asrwt>
<pdfrwt beam="1">  1       21 0.39028481E-01 0.61177996E+01</pdfrwt>
<pdfrwt beam="2">  1       21 0.26561658E-04 0.61177996E+01</pdfrwt>
<totfact> 0.17003046E+09</totfact>
</mgrwt>
</event>
<event>
 4    1  0.3989279E+006  0.7698618E+01  0.7546771E-02  0.2235840E+00
         21   -1    0    0  501  502  0.00000000000E+00  0.00000000000E+00  0.10309226645E+03  0.10309226645E+03  0.00000000000E+00 0. -1.
         21   -1    0    0  502  503 -0.00000000000E+00 -0.00000000000E+00 -0.12286545000E+01  0.12286545000E+01  0.00000000000E+00 0.  1.
          5    1    1    2  501    0 -0.33192981007E+01  0.51147807930E+01  0.88979708652E+02  0.89312133969E+02  0.47000000000E+01 0. -1.
         -5    1    1    2    0  503  0.33192981007E+01 -0.51147807930E+01  0.12883903302E+02  0.15008786984E+02  0.47000000000E+01 0.  1.
<mgrwt>
<rscale>  2 0.76986182E+01</rscale>
<asrwt>0</asrwt>
<pdfrwt beam="1">  1       21 0.15860342E-01 0.76986182E+01</pdfrwt>
<pdfrwt beam="2">  1       21 0.18902385E-03 0.76986182E+01</pdfrwt>
<totfact> 0.63279290E+08</totfact>
</mgrwt>
</event>
<event>
 4    1  0.3989279E+006  0.5660206E+01  0.7546771E-02  0.2461864E+00
         21   -1    0    0  501  502  0.00000000000E+00  0.00000000000E+00  0.88788124121E+03  0.88788124121E+03  0.00000000000E+00 0.  1.
         21   -1    0    0  502  503 -0.00000000000E+00 -0.00000000000E+00 -0.15006594583E+00  0.15006594583E+00  0.00000000000E+00 0.  1.
          5    1    1    2  501    0 -0.21805202351E+01 -0.22788738647E+01  0.83083446552E+03  0.83085374587E+03  0.47000000000E+01 0.  1.
         -5    1    1    2    0  503  0.21805202351E+01  0.22788738647E+01  0.56896709743E+02  0.57177561282E+02  0.47000000000E+01 0.  1.
<mgrwt>
<rscale>  2 0.56602062E+01</rscale>
<asrwt>0</asrwt>
<pdfrwt beam="1">  1       21 0.13659291E+00 0.56602062E+01</pdfrwt>
<pdfrwt beam="2">  1       21 0.23087780E-04 0.56602062E+01</pdfrwt>
<totfact> 0.17550851E+08</totfact>
</mgrwt>
</event>
<event>
 4    1  0.3989279E+006  0.7531849E+01  0.7546771E-02  0.2250497E+00
         21   -1    0    0  501  502  0.00000000000E+00  0.00000000000E+00  0.80160347019E+00  0.80160347019E+00  0.00000000000E+00 0.  1.
         21   -1    0    0  502  503 -0.00000000000E+00 -0.00000000000E+00 -0.77042140345E+02  0.77042140345E+02  0.00000000000E+00 0.  1.
          5    1    1    2  501    0 -0.26532937409E+01 -0.52534541165E+01 -0.27013979990E+02  0.28044319616E+02  0.47000000000E+01 0.  1.
         -5    1    1    2    0  503  0.26532937409E+01  0.52534541165E+01 -0.49226556885E+02  0.49799424199E+02  0.47000000000E+01 0.  1.
<mgrwt>
<rscale>  2 0.75318489E+01</rscale>
<asrwt>0</asrwt>
<pdfrwt beam="1">  1       21 0.12332357E-03 0.75318489E+01</pdfrwt>
<pdfrwt beam="2">  1       21 0.11852641E-01 0.75318489E+01</pdfrwt>
<totfact> 0.17820936E+09</totfact>
</mgrwt>
</event>
<event>
 4    1  0.3989279E+006  0.7794298E+01  0.7546771E-02  0.2227661E+00
         21   -1    0    0  503  502  0.00000000000E+00  0.00000000000E+00  0.35420342334E+01  0.35420342334E+01  0.00000000000E+00 0. -1.
         21   -1    0    0  501  503 -0.00000000000E+00 -0.00000000000E+00 -0.30574647394E+02  0.30574647394E+02  0.00000000000E+00 0.  1.
          5    1    1    2  501    0 -0.57042192961E+01 -0.24744612704E+01 -0.24819048294E+02  0.26014154504E+02  0.47000000000E+01 0.  1.
         -5    1    1    2    0  502  0.57042192961E+01  0.24744612704E+01 -0.22135648662E+01  0.81025271227E+01  0.47000000000E+01 0. -1.
<mgrwt>
<rscale>  2 0.77942977E+01</rscale>
<asrwt>0</asrwt>
<pdfrwt beam="1">  1       21 0.54492832E-03 0.77942977E+01</pdfrwt>
<pdfrwt beam="2">  1       21 0.47037921E-02 0.77942977E+01</pdfrwt>
<totfact> 0.96140768E+08</totfact>
</mgrwt>
</event>
<event>
 4    1  0.3989279E+006  0.1082445E+02  0.7546771E-02  0.2030895E+00
         21   -1    0    0  503  502  0.00000000000E+00  0.00000000000E+00  0.58243078059E+02  0.58243078059E+02  0.00000000000E+00 0. -1.
         21   -1    0    0  501  503 -0.00000000000E+00 -0.00000000000E+00 -0.20486818070E+01  0.20486818070E+01  0.00000000000E+00 0.  1.
          5    1    1    2  501    0  0.96593152043E+01 -0.13327648600E+01  0.32146504926E+02  0.33920000167E+02  0.47000000000E+01 0.  1.
         -5    1    1    2    0  502 -0.96593152043E+01  0.13327648600E+01  0.24047891326E+02  0.26371759699E+02  0.47000000000E+01 0. -1.
<mgrwt>
<rscale>  2 0.10824446E+02</rscale>
<asrwt>0</asrwt>
<pdfrwt beam="1">  1       21 0.89604723E-02 0.10824446E+02</pdfrwt>
<pdfrwt beam="2">  1       21 0.31518186E-03 0.10824446E+02</pdfrwt>
<totfact> 0.94112830E+08</totfact>
</mgrwt>
</event>
<event>
 4    1  0.3989279E+006  0.5690029E+01  0.7546771E-02  0.2457602E+00
         21   -1    0    0  503  502  0.00000000000E+00  0.00000000000E+00  0.24680741930E+01  0.24680741930E+01  0.00000000000E+00 0.  1.
         21   -1    0    0  501  503 -0.00000000000E+00 -0.00000000000E+00 -0.29590569881E+02  0.29590569881E+02  0.00000000000E+00 0.  1.
          5    1    1    2  501    0 -0.12407863370E+01  0.29575121765E+01 -0.25520882998E+02  0.26147502710E+02  0.47000000000E+01 0.  1.
         -5    1    1    2    0  502  0.12407863370E+01 -0.29575121765E+01 -0.16016126901E+01  0.59111413633E+01  0.47000000000E+01 0.  1.
<mgrwt>
<rscale>  2 0.56900289E+01</rscale>
<asrwt>0</asrwt>
<pdfrwt beam="1">  1       21 0.37970372E-03 0.56900289E+01</pdfrwt>
<pdfrwt beam="2">  1       21 0.45523953E-02 0.56900289E+01</pdfrwt>
<totfact> 0.13140368E+09</totfact>
</mgrwt>
</event>
<event>
 4    1  0.3989279E+006  0.5012403E+01  0.7546771E-02  0.2564958E+00
         21   -1    0    0  503  502  0.00000000000E+00  0.00000000000E+00  0.76574482473E+00  0.76574482473E+00  0.00000000000E+00 0.  1.
         21   -1    0    0  501  503 -0.00000000000E+00 -0.00000000000E+00 -0.38495050609E+02  0.38495050609E+02  0.00000000000E+00 0.  1.
          5    1    1    2  501    0 -0.17366197622E+01 -0.13541838200E+00 -0.26408430878E+02  0.26879907138E+02  0.47000000000E+01 0.  1.
         -5    1    1    2    0  502  0.17366197622E+01  0.13541838200E+00 -0.11320874907E+02  0.12380888296E+02  0.47000000000E+01 0.  1.
<mgrwt>
<rscale>  2 0.50124032E+01</rscale>
<asrwt>0</asrwt>
<pdfrwt beam="1">  1       21 0.11780692E-03 0.50124032E+01</pdfrwt>
<pdfrwt beam="2">  1       21 0.59223143E-02 0.50124032E+01</pdfrwt>
<totfact> 0.38591747E+09</totfact>
</mgrwt>
</event>
<event>
 4    1  0.3989279E+006  0.1414998E+02  0.7546771E-02  0.1895172E+00
         21   -1    0    0  501  502  0.00000000000E+00  0.00000000000E+00  0.94230712152E+02  0.94230712152E+02  0.00000000000E+00 0.  1.
         21   -1    0    0  502  503 -0.00000000000E+00 -0.00000000000E+00 -0.26176902136E+01  0.26176902136E+01  0.00000000000E+00 0.  1.
          5    1    1    2  501    0 -0.12783225336E+02 -0.38368130021E+01  0.24794104755E+02  0.28547672666E+02  0.47000000000E+01 0.  1.
         -5    1    1    2    0  503  0.12783225336E+02  0.38368130021E+01  0.66818917183E+02  0.68300729700E+02  0.47000000000E+01 0.  1.
<mgrwt>
<rscale>  2 0.14149982E+02</rscale>
<asrwt>0</asrwt>
<pdfrwt beam="1">  1       21 0.14497030E-01 0.14149982E+02</pdfrwt>
<pdfrwt beam="2">  1       21 0.40272164E-03 0.14149982E+02</pdfrwt>
<totfact> 0.34545869E+08</totfact>
</mgrwt>
</event>
<event>
 4    1  0.3989279E+006  0.6664423E+01  0.7546771E-02  0.2336216E+00
         21   -1    0    0  501  502  0.00000000000E+00  0.00000000000E+00  0.13334166704E+02  0.13334166704E+02  0.00000000000E+00 0.  1.
         21   -1    0    0  502  503 -0.00000000000E+00 -0.00000000000E+00 -0.58365662335E+01  0.58365662335E+01  0.00000000000E+00 0. -1.
          5    1    1    2  501    0  0.25625443441E+00 -0.47179300650E+01  0.10029285743E+02  0.12041640376E+02  0.47000000000E+01 0.  1.
         -5    1    1    2    0  503 -0.25625443441E+00  0.47179300650E+01 -0.25316852722E+01  0.71290925616E+01  0.47000000000E+01 0. -1.
<mgrwt>
<rscale>  2 0.66644227E+01</rscale>
<asrwt>0</asrwt>
<pdfrwt beam="1">  1       21 0.20514103E-02 0.66644227E+01</pdfrwt>
<pdfrwt beam="2">  1       21 0.89793327E-03 0.66644227E+01</pdfrwt>
<totfact> 0.14384518E+09</totfact>
</mgrwt>
</event>
<event>
 4    1  0.3989279E+006  0.1338489E+02  0.7546771E-02  0.1921767E+00
         21   -1    0    0  501  502  0.00000000000E+00  0.00000000000E+00  0.23884364592E+02  0.23884364592E+02  0.00000000000E+00 0.  1.
         21   -1    0    0  502  503 -0.00000000000E+00 -0.00000000000E+00 -0.10110818949E+02  0.10110818949E+02  0.00000000000E+00 0. -1.
          5    1    1    2  501    0  0.13211143518E+01  0.12462736994E+02  0.15522611317E+02  0.20496502595E+02  0.47000000000E+01 0.  1.
         -5    1    1    2    0  503 -0.13211143518E+01 -0.12462736994E+02 -0.17490656743E+01  0.13498680945E+02  0.47000000000E+01 0. -1.
<mgrwt>
<rscale>  2 0.13384885E+02</rscale>
<asrwt>0</asrwt>
<pdfrwt beam="1">  1       21 0.36745176E-02 0.13384885E+02</pdfrwt>
<pdfrwt beam="2">  1       21 0.15555106E-02 0.13384885E+02</pdfrwt>
<totfact> 0.41327656E+08</totfact>
</mgrwt>
</event>
<event>
 4    1  0.3989279E+006  0.1828204E+02  0.7546771E-02  0.1781821E+00
         21   -1    0    0  501  502  0.00000000000E+00  0.00000000000E+00  0.12031260372E+03  0.12031260372E+03  0.00000000000E+00 0. -1.
         21   -1    0    0  502  503 -0.00000000000E+00 -0.00000000000E+00 -0.40761892726E+01  0.40761892726E+01  0.00000000000E+00 0.  1.
          5    1    1    2  501    0  0.14943316228E+02  0.94255111525E+01  0.93216563102E+02  0.94992423892E+02  0.47000000000E+01 0.  1.
         -5    1    1    2    0  503 -0.14943316228E+02 -0.94255111525E+01  0.23019851349E+02  0.29396369104E+02  0.47000000000E+01 0. -1.
<mgrwt>
<rscale>  2 0.18282039E+02</rscale>
<asrwt>0</asrwt>
<pdfrwt beam="1">  1       21 0.18509629E-01 0.18282039E+02</pdfrwt>
<pdfrwt beam="2">  1       21 0.62710613E-03 0.18282039E+02</pdfrwt>
<totfact> 0.13186950E+08</totfact>
</mgrwt>
</event>
<event>
 4    1  0.3989279E+006  0.5965033E+01  0.7546771E-02  0.2419997E+00
         21   -1    0    0  503  502  0.00000000000E+00  0.00000000000E+00  0.95863018410E+01  0.95863018410E+01  0.00000000000E+00 0. -1.
         21   -1    0    0  501  503 -0.00000000000E+00 -0.00000000000E+00 -0.38446442845E+01  0.38446442845E+01  0.00000000000E+00 0. -1.
          5    1    1    2  501    0  0.35683475780E+01  0.87093059391E+00  0.16221286756E+01  0.61816604547E+01  0.47000000000E+01 0. -1.
         -5    1    1    2    0  502 -0.35683475780E+01 -0.87093059391E+00  0.41195288809E+01  0.72492856708E+01  0.47000000000E+01 0. -1.
<mgrwt>
<rscale>  2 0.59650335E+01</rscale>
<asrwt>0</asrwt>
<pdfrwt beam="1">  1       21 0.14748157E-02 0.59650335E+01</pdfrwt>
<pdfrwt beam="2">  1       21 0.59148374E-03 0.59650335E+01</pdfrwt>
<totfact> 0.37803532E+09</totfact>
</mgrwt>
</event>
<event>
 4    1  0.3989279E+006  0.4704520E+01  0.7546771E-02  0.2622402E+00
         21   -1    0    0  503  502  0.00000000000E+00  0.00000000000E+00  0.25103293172E+00  0.25103293172E+00  0.00000000000E+00 0.  1.
         21   -1    0    0  501  503 -0.00000000000E+00 -0.00000000000E+00 -0.15657930929E+03  0.15657930929E+03  0.00000000000E+00 0.  1.
          5    1    1    2  501    0  0.10975708196E+00  0.17453556057E+00 -0.12999685442E+03  0.13008195366E+03  0.47000000000E+01 0.  1.
         -5    1    1    2    0  502 -0.10975708196E+00 -0.17453556057E+00 -0.26331421936E+02  0.26748388558E+02  0.47000000000E+01 0.  1.
<mgrwt>
<rscale>  2 0.47045201E+01</rscale>
<asrwt>0</asrwt>
<pdfrwt beam="1">  1       21 0.38620408E-04 0.47045201E+01</pdfrwt>
<pdfrwt beam="2">  1       21 0.24089151E-01 0.47045201E+01</pdfrwt>
<totfact> 0.18510820E+09</totfact>
</mgrwt>
</event>
<event>
 4    1  0.3989279E+006  0.6528583E+01  0.7546771E-02  0.2351317E+00
         21   -1    0    0  501  502  0.00000000000E+00  0.00000000000E+00  0.28639588785E+01  0.28639588785E+01  0.00000000000E+00 0. -1.
         21   -1    0    0  502  503 -0.00000000000E+00 -0.00000000000E+00 -0.36013764691E+02  0.36013764691E+02  0.00000000000E+00 0. -1.
          5    1    1    2  501    0  0.44269088115E+01 -0.96688676081E+00 -0.16846859785E+01  0.67424445478E+01  0.47000000000E+01 0. -1.
         -5    1    1    2    0  503 -0.44269088115E+01  0.96688676081E+00 -0.31465119834E+02  0.32135279022E+02  0.47000000000E+01 0. -1.
<mgrwt>
<rscale>  2 0.65285827E+01</rscale>
<asrwt>0</asrwt>
<pdfrwt beam="1">  1       21 0.44060907E-03 0.65285827E+01</pdfrwt>
<pdfrwt beam="2">  1       21 0.55405791E-02 0.65285827E+01</pdfrwt>
<totfact> 0.89278826E+08</totfact>
</mgrwt>
</event>
<event>
 4    1  0.3989279E+006  0.6582594E+01  0.7546771E-02  0.2345251E+00
         21   -1    0    0  503  502  0.00000000000E+00  0.00000000000E+00  0.89927917064E+01  0.89927917064E+01  0.00000000000E+00 0. -1.
         21   -1    0    0  501  503 -0.00000000000E+00 -0.00000000000E+00 -0.16964513971E+02  0.16964513971E+02  0.00000000000E+00 0. -1.
          5    1    1    2  501    0 -0.43035935133E+01  0.16491304232E+01 -0.14967779614E+02  0.16351298874E+02  0.47000000000E+01 0. -1.
         -5    1    1    2    0  502  0.43035935133E+01 -0.16491304232E+01  0.69960573494E+01  0.96060068039E+01  0.47000000000E+01 0. -1.
<mgrwt>
<rscale>  2 0.65825943E+01</rscale>
<asrwt>0</asrwt>
<pdfrwt beam="1">  1       21 0.13835064E-02 0.65825943E+01</pdfrwt>
<pdfrwt beam="2">  1       21 0.26099252E-02 0.65825943E+01</pdfrwt>
<totfact> 0.54314538E+08</totfact>
</mgrwt>
</event>
<event>
 4    1  0.3989279E+006  0.7473230E+01  0.7546771E-02  0.2255774E+00
         21   -1    0    0  501  502  0.00000000000E+00  0.00000000000E+00  0.16782393265E+00  0.16782393265E+00  0.00000000000E+00 0. -1.
         21   -1    0    0  502  503 -0.00000000000E+00 -0.00000000000E+00 -0.33278979569E+03  0.33278979569E+03  0.00000000000E+00 0.  1.
          5    1    1    2  501    0 -0.58039614387E+01  0.27054796132E+00 -0.16563249316E+03  0.16580100107E+03  0.47000000000E+01 0. -1.
         -5    1    1    2    0  503  0.58039614387E+01 -0.27054796132E+00 -0.16698947860E+03  0.16715661855E+03  0.47000000000E+01 0.  1.
<mgrwt>
<rscale>  2 0.74732299E+01</rscale>
<asrwt>0</asrwt>
<pdfrwt beam="1">  1       21 0.25819050E-04 0.74732299E+01</pdfrwt>
<pdfrwt beam="2">  1       21 0.51198464E-01 0.74732299E+01</pdfrwt>
<totfact> 0.12492817E+09</totfact>
</mgrwt>
</event>
<event>
 4    1  0.3989279E+006  0.6405386E+01  0.7546771E-02  0.2365470E+00
         21   -1    0    0  501  502  0.00000000000E+00  0.00000000000E+00  0.46971016091E+00  0.46971016091E+00  0.00000000000E+00 0. -1.
         21   -1    0    0  502  503 -0.00000000000E+00 -0.00000000000E+00 -0.34617481294E+03  0.34617481294E+03  0.00000000000E+00 0.  1.
          5    1    1    2  501    0 -0.34060736907E+01 -0.27088060067E+01 -0.22984192463E+02  0.23860051784E+02  0.47000000000E+01 0. -1.
         -5    1    1    2    0  503  0.34060736907E+01  0.27088060067E+01 -0.32272091031E+03  0.32278447132E+03  0.47000000000E+01 0.  1.
<mgrwt>
<rscale>  2 0.64053859E+01</rscale>
<asrwt>0</asrwt>
<pdfrwt beam="1">  1       21 0.72262826E-04 0.64053859E+01</pdfrwt>
<pdfrwt beam="2">  1       21 0.53257867E-01 0.64053859E+01</pdfrwt>
<totfact> 0.26393280E+08</totfact>
</mgrwt>
</event>
<event>
 4    1  0.3989279E+006  0.6239972E+01  0.7546771E-02  0.2385199E+00
         21   -1    0    0  501  502  0.00000000000E+00  0.00000000000E+00  0.36440398353E+01  0.36440398353E+01  0.00000000000E+00 0. -1.
         21   -1    0    0  502  503 -0.00000000000E+00 -0.00000000000E+00 -0.11856150872E+02  0.11856150872E+02  0.00000000000E+00 0.  1.
          5    1    1    2  501    0  0.37708813083E+01  0.16210206453E+01 -0.16704519908E+01  0.64596953200E+01  0.47000000000E+01 0. -1.
         -5    1    1    2    0  503 -0.37708813083E+01 -0.16210206453E+01 -0.65416590456E+01  0.90404953871E+01  0.47000000000E+01 0.  1.
<mgrwt>
<rscale>  2 0.62399723E+01</rscale>
<asrwt>0</asrwt>
<pdfrwt beam="1">  1       21 0.56062152E-03 0.62399723E+01</pdfrwt>
<pdfrwt beam="2">  1       21 0.18240232E-02 0.62399723E+01</pdfrwt>
<totfact> 0.31290399E+09</totfact>
</mgrwt>
</event>
<event>
 4    1  0.3989279E+006  0.5175594E+01  0.7546771E-02  0.2536916E+00
         21   -1    0    0  501  502  0.00000000000E+00  0.00000000000E+00  0.21882613420E+01  0.21882613420E+01  0.00000000000E+00 0. -1.
         21   -1    0    0  502  503 -0.00000000000E+00 -0.00000000000E+00 -0.17119856200E+02  0.17119856200E+02  0.00000000000E+00 0.  1.
          5    1    1    2  501    0 -0.20754031067E+01 -0.62407875094E+00 -0.23121643401E+01  0.56685867973E+01  0.47000000000E+01 0. -1.
         -5    1    1    2    0  503  0.20754031067E+01  0.62407875094E+00 -0.12619430518E+02  0.13639530745E+02  0.47000000000E+01 0.  1.
<mgrwt>
<rscale>  2 0.51755939E+01</rscale>
<asrwt>0</asrwt>
<pdfrwt beam="1">  1       21 0.33665559E-03 0.51755939E+01</pdfrwt>
<pdfrwt beam="2">  1       21 0.26338240E-02 0.51755939E+01</pdfrwt>
<totfact> 0.31400723E+09</totfact>
</mgrwt>
</event>
<event>
 4    1  0.3989279E+006  0.6446450E+01  0.7546771E-02  0.2360703E+00
         21   -1    0    0  503  502  0.00000000000E+00  0.00000000000E+00  0.20665076599E+00  0.20665076599E+00  0.00000000000E+00 0.  1.
         21   -1    0    0  501  503 -0.00000000000E+00 -0.00000000000E+00 -0.20941396015E+03  0.20941396015E+03  0.00000000000E+00 0. -1.
          5    1    1    2  501    0 -0.43062328278E+01 -0.96076553082E+00 -0.83715462462E+02  0.83963297737E+02  0.47000000000E+01 0. -1.
         -5    1    1    2    0  502  0.43062328278E+01  0.96076553082E+00 -0.12549184692E+03  0.12565731318E+03  0.47000000000E+01 0.  1.
<mgrwt>
<rscale>  2 0.64464495E+01</rscale>
<asrwt>0</asrwt>
<pdfrwt beam="1">  1       21 0.31792457E-04 0.64464495E+01</pdfrwt>
<pdfrwt beam="2">  1       21 0.32217500E-01 0.64464495E+01</pdfrwt>
<totfact> 0.19353213E+09</totfact>
</mgrwt>
</event>
<event>
 4    1  0.3989279E+006  0.6435416E+01  0.7546771E-02  0.2361979E+00
         21   -1    0    0  503  502  0.00000000000E+00  0.00000000000E+00  0.33920674312E+01  0.33920674312E+01  0.00000000000E+00 0. -1.
         21   -1    0    0  501  503 -0.00000000000E+00 -0.00000000000E+00 -0.30493829100E+02  0.30493829100E+02  0.00000000000E+00 0. -1.
          5    1    1    2  501    0 -0.27689903180E+01 -0.34142741194E+01 -0.26670631212E+02  0.27436055555E+02  0.47000000000E+01 0. -1.
         -5    1    1    2    0  502  0.27689903180E+01  0.34142741194E+01 -0.43113045604E+00  0.64498409759E+01  0.47000000000E+01 0. -1.
<mgrwt>
<rscale>  2 0.64354157E+01</rscale>
<asrwt>0</asrwt>
<pdfrwt beam="1">  1       21 0.52185651E-03 0.64354157E+01</pdfrwt>
<pdfrwt beam="2">  1       21 0.46913585E-02 0.64354157E+01</pdfrwt>
<totfact> 0.89383376E+08</totfact>
</mgrwt>
</event>
<event>
 4    1  0.3989279E+006  0.4848290E+01  0.7546771E-02  0.2594792E+00
         21   -1    0    0  503  502  0.00000000000E+00  0.00000000000E+00  0.73236345585E+03  0.73236345585E+03  0.00000000000E+00 0. -1.
         21   -1    0    0  501  503 -0.00000000000E+00 -0.00000000000E+00 -0.14184640860E+00  0.14184640860E+00  0.00000000000E+00 0. -1.
          5    1    1    2  501    0  0.47431251794E+00  0.10913037734E+01  0.43948491506E+02  0.44215108526E+02  0.47000000000E+01 0. -1.
         -5    1    1    2    0  502 -0.47431251794E+00 -0.10913037734E+01  0.68827311793E+03  0.68829019373E+03  0.47000000000E+01 0. -1.
<mgrwt>
<rscale>  2 0.48482900E+01</rscale>
<asrwt>0</asrwt>
<pdfrwt beam="1">  1       21 0.11266827E+00 0.48482900E+01</pdfrwt>
<pdfrwt beam="2">  1       21 0.21823111E-04 0.48482900E+01</pdfrwt>
<totfact> 0.25356973E+08</totfact>
</mgrwt>
</event>
<event>
 4    1  0.3989279E+006  0.5652998E+01  0.7546771E-02  0.2462900E+00
         21   -1    0    0  501  502  0.00000000000E+00  0.00000000000E+00  0.20498701159E+03  0.20498701159E+03  0.00000000000E+00 0.  1.
         21   -1    0    0  502  503 -0.00000000000E+00 -0.00000000000E+00 -0.34680168655E+00  0.34680168655E+00  0.00000000000E+00 0. -1.
          5    1    1    2  501    0 -0.21515258143E+01 -0.22885198073E+01  0.26147150380E+02  0.26751259021E+02  0.47000000000E+01 0. -1.
         -5    1    1    2    0  503  0.21515258143E+01  0.22885198073E+01  0.17849305952E+03  0.17858255425E+03  0.47000000000E+01 0.  1.
<mgrwt>
<rscale>  2 0.56529980E+01</rscale>
<asrwt>0</asrwt>
<pdfrwt beam="1">  1       21 0.31536366E-01 0.56529980E+01</pdfrwt>
<pdfrwt beam="2">  1       21 0.53354269E-04 0.56529980E+01</pdfrwt>
<totfact> 0.90861926E+08</totfact>
</mgrwt>
</event>
<event>
 4    1  0.3989279E+006  0.6690499E+01  0.7546771E-02  0.2333375E+00
         21   -1    0    0  503  502  0.00000000000E+00  0.00000000000E+00  0.13276276443E+03  0.13276276443E+03  0.00000000000E+00 0.  1.
         21   -1    0    0  501  503 -0.00000000000E+00 -0.00000000000E+00 -0.18782153967E+01  0.18782153967E+01  0.00000000000E+00 0.  1.
          5    1    1    2  501    0 -0.30953677131E+01  0.36182136328E+01  0.44628687163E+01  0.80423857375E+01  0.47000000000E+01 0.  1.
         -5    1    1    2    0  502  0.30953677131E+01 -0.36182136328E+01  0.12642168031E+03  0.12659859409E+03  0.47000000000E+01 0.  1.
<mgrwt>
<rscale>  2 0.66904986E+01</rscale>
<asrwt>0</asrwt>
<pdfrwt beam="1">  1       21 0.20425033E-01 0.66904986E+01</pdfrwt>
<pdfrwt beam="2">  1       21 0.28895632E-03 0.66904986E+01</pdfrwt>
<totfact> 0.21395435E+08</totfact>
</mgrwt>
</event>
<event>
 4    1  0.3989279E+006  0.4720270E+01  0.7546771E-02  0.2619306E+00
         21   -1    0    0  503  502  0.00000000000E+00  0.00000000000E+00  0.43657651253E+01  0.43657651253E+01  0.00000000000E+00 0.  1.
         21   -1    0    0  501  503 -0.00000000000E+00 -0.00000000000E+00 -0.78053728900E+01  0.78053728900E+01  0.00000000000E+00 0.  1.
          5    1    1    2  501    0  0.40926419730E+00  0.15312483370E+00 -0.53002075706E+01  0.70974040810E+01  0.47000000000E+01 0.  1.
         -5    1    1    2    0  502 -0.40926419730E+00 -0.15312483370E+00  0.18605998059E+01  0.50737339343E+01  0.47000000000E+01 0.  1.
<mgrwt>
<rscale>  2 0.47202695E+01</rscale>
<asrwt>0</asrwt>
<pdfrwt beam="1">  1       21 0.67165618E-03 0.47202695E+01</pdfrwt>
<pdfrwt beam="2">  1       21 0.12008266E-02 0.47202695E+01</pdfrwt>
<totfact> 0.33580878E+09</totfact>
</mgrwt>
</event>
<event>
 4    1  0.3989279E+006  0.4988905E+01  0.7546771E-02  0.2569126E+00
         21   -1    0    0  503  502  0.00000000000E+00  0.00000000000E+00  0.90690539008E+00  0.90690539008E+00  0.00000000000E+00 0. -1.
         21   -1    0    0  501  503 -0.00000000000E+00 -0.00000000000E+00 -0.27515542828E+02  0.27515542828E+02  0.00000000000E+00 0. -1.
          5    1    1    2  501    0 -0.10451522423E+01 -0.13064587598E+01 -0.12580043027E+02  0.13533168892E+02  0.47000000000E+01 0. -1.
         -5    1    1    2    0  502  0.10451522423E+01  0.13064587598E+01 -0.14028594410E+02  0.14889279325E+02  0.47000000000E+01 0. -1.
<mgrwt>
<rscale>  2 0.49889055E+01</rscale>
<asrwt>0</asrwt>
<pdfrwt beam="1">  1       21 0.13952393E-03 0.49889055E+01</pdfrwt>
<pdfrwt beam="2">  1       21 0.42331597E-02 0.49889055E+01</pdfrwt>
<totfact> 0.50070996E+09</totfact>
</mgrwt>
</event>
<event>
 4    1  0.3989279E+006  0.5989785E+01  0.7546771E-02  0.2416755E+00
         21   -1    0    0  501  502  0.00000000000E+00  0.00000000000E+00  0.11889296175E+01  0.11889296175E+01  0.00000000000E+00 0. -1.
         21   -1    0    0  502  503 -0.00000000000E+00 -0.00000000000E+00 -0.45974918290E+02  0.45974918290E+02  0.00000000000E+00 0.  1.
          5    1    1    2  501    0 -0.20039055809E+01 -0.31260010645E+01 -0.36216813181E+02  0.36708787466E+02  0.47000000000E+01 0.  1.
         -5    1    1    2    0  503  0.20039055809E+01  0.31260010645E+01 -0.85691754917E+01  0.10455060442E+02  0.47000000000E+01 0. -1.
<mgrwt>
<rscale>  2 0.59897847E+01</rscale>
<asrwt>0</asrwt>
<pdfrwt beam="1">  1       21 0.18291223E-03 0.59897847E+01</pdfrwt>
<pdfrwt beam="2">  1       21 0.70730651E-02 0.59897847E+01</pdfrwt>
<totfact> 0.19338583E+09</totfact>
</mgrwt>
</event>
<event>
 4    1  0.3989279E+006  0.5198513E+01  0.7546771E-02  0.2533098E+00
         21   -1    0    0  503  502  0.00000000000E+00  0.00000000000E+00  0.55963824969E+02  0.55963824969E+02  0.00000000000E+00 0.  1.
         21   -1    0    0  501  503 -0.00000000000E+00 -0.00000000000E+00 -0.16780609894E+01  0.16780609894E+01  0.00000000000E+00 0. -1.
          5    1    1    2  501    0  0.21853924093E+01 -0.39824250598E+00  0.28197890508E+01  0.59140297063E+01  0.47000000000E+01 0. -1.
         -5    1    1    2    0  502 -0.21853924093E+01  0.39824250598E+00  0.51465974929E+02  0.51727856252E+02  0.47000000000E+01 0.  1.
<mgrwt>
<rscale>  2 0.51985130E+01</rscale>
<asrwt>0</asrwt>
<pdfrwt beam="1">  1       21 0.86098178E-02 0.51985130E+01</pdfrwt>
<pdfrwt beam="2">  1       21 0.25816327E-03 0.51985130E+01</pdfrwt>
<totfact> 0.79795734E+08</totfact>
</mgrwt>
</event>
<event>
 4    1  0.3989279E+006  0.4933585E+01  0.7546771E-02  0.2579072E+00
         21   -1    0    0  503  502  0.00000000000E+00  0.00000000000E+00  0.11542766425E+02  0.11542766425E+02  0.00000000000E+00 0.  1.
         21   -1    0    0  501  503 -0.00000000000E+00 -0.00000000000E+00 -0.30378855035E+01  0.30378855035E+01  0.00000000000E+00 0. -1.
          5    1    1    2  501    0 -0.11187650488E+01 -0.99931389663E+00  0.22052133416E+00  0.49385112288E+01  0.47000000000E+01 0. -1.
         -5    1    1    2    0  502  0.11187650488E+01  0.99931389663E+00  0.82843595870E+01  0.96421406993E+01  0.47000000000E+01 0.  1.
<mgrwt>
<rscale>  2 0.49335853E+01</rscale>
<asrwt>0</asrwt>
<pdfrwt beam="1">  1       21 0.17758102E-02 0.49335853E+01</pdfrwt>
<pdfrwt beam="2">  1       21 0.46736700E-03 0.49335853E+01</pdfrwt>
<totfact> 0.33442936E+09</totfact>
</mgrwt>
</event>
<event>
 4    1  0.3989279E+006  0.5306303E+01  0.7546771E-02  0.2515525E+00
         21   -1    0    0  501  502  0.00000000000E+00  0.00000000000E+00  0.28131524218E+02  0.28131524218E+02  0.00000000000E+00 0.  1.
         21   -1    0    0  502  503 -0.00000000000E+00 -0.00000000000E+00 -0.10376582201E+01  0.10376582201E+01  0.00000000000E+00 0.  1.
          5    1    1    2  501    0 -0.23914424028E+01 -0.58979483573E+00  0.16291929445E+02  0.17134287839E+02  0.47000000000E+01 0.  1.
         -5    1    1    2    0  503  0.23914424028E+01  0.58979483573E+00  0.10801936553E+02  0.12034894599E+02  0.47000000000E+01 0.  1.
<mgrwt>
<rscale>  2 0.53063033E+01</rscale>
<asrwt>0</asrwt>
<pdfrwt beam="1">  1       21 0.43279262E-02 0.53063033E+01</pdfrwt>
<pdfrwt beam="2">  1       21 0.15963975E-03 0.53063033E+01</pdfrwt>
<totfact> 0.43122921E+09</totfact>
</mgrwt>
</event>
<event>
 4    1  0.3989279E+006  0.5999082E+01  0.7546771E-02  0.2415543E+00
         21   -1    0    0  501  502  0.00000000000E+00  0.00000000000E+00  0.14990682971E+00  0.14990682971E+00  0.00000000000E+00 0. -1.
         21   -1    0    0  502  503 -0.00000000000E+00 -0.00000000000E+00 -0.61499199873E+03  0.61499199873E+03  0.00000000000E+00 0. -1.
          5    1    1    2  501    0  0.21293339168E+01 -0.30602160688E+01 -0.67273721448E+02  0.67540673544E+02  0.47000000000E+01 0. -1.
         -5    1    1    2    0  503 -0.21293339168E+01  0.30602160688E+01 -0.54756837045E+03  0.54760123201E+03  0.47000000000E+01 0. -1.
<mgrwt>
<rscale>  2 0.59990820E+01</rscale>
<asrwt>0</asrwt>
<pdfrwt beam="1">  1       21 0.23062507E-04 0.59990820E+01</pdfrwt>
<pdfrwt beam="2">  1       21 0.94614489E-01 0.59990820E+01</pdfrwt>
<totfact> 0.38911803E+08</totfact>
</mgrwt>
</event>
<event>
 4    1  0.3989279E+006  0.5016651E+01  0.7546771E-02  0.2564208E+00
         21   -1    0    0  503  502  0.00000000000E+00  0.00000000000E+00  0.90130762632E+01  0.90130762632E+01  0.00000000000E+00 0.  1.
         21   -1    0    0  501  503 -0.00000000000E+00 -0.00000000000E+00 -0.34624066755E+01  0.34624066755E+01  0.00000000000E+00 0. -1.
          5    1    1    2  501    0 -0.17506318805E+01 -0.10990522050E+00  0.31073461772E-01  0.50167476216E+01  0.47000000000E+01 0. -1.
         -5    1    1    2    0  502  0.17506318805E+01  0.10990522050E+00  0.55195961259E+01  0.74587353172E+01  0.47000000000E+01 0.  1.
<mgrwt>
<rscale>  2 0.50166514E+01</rscale>
<asrwt>0</asrwt>
<pdfrwt beam="1">  1       21 0.13866271E-02 0.50166514E+01</pdfrwt>
<pdfrwt beam="2">  1       21 0.53267795E-03 0.50166514E+01</pdfrwt>
<totfact> 0.40295984E+09</totfact>
</mgrwt>
</event>
<event>
 4    1  0.3989279E+006  0.5911614E+01  0.7546771E-02  0.2427071E+00
         21   -1    0    0  503  502  0.00000000000E+00  0.00000000000E+00  0.62182080440E+01  0.62182080440E+01  0.00000000000E+00 0. -1.
         21   -1    0    0  501  503 -0.00000000000E+00 -0.00000000000E+00 -0.60866062717E+01  0.60866062717E+01  0.00000000000E+00 0. -1.
          5    1    1    2  501    0 -0.31072738122E+01  0.17894216311E+01 -0.16374124263E+01  0.61341910446E+01  0.47000000000E+01 0. -1.
         -5    1    1    2    0  502  0.31072738122E+01 -0.17894216311E+01  0.17690141986E+01  0.61706232711E+01  0.47000000000E+01 0. -1.
<mgrwt>
<rscale>  2 0.59116140E+01</rscale>
<asrwt>0</asrwt>
<pdfrwt beam="1">  1       21 0.95664739E-03 0.59116140E+01</pdfrwt>
<pdfrwt beam="2">  1       21 0.93640096E-03 0.59116140E+01</pdfrwt>
<totfact> 0.36367740E+09</totfact>
</mgrwt>
</event>
<event>
 4    1  0.3989279E+006  0.6835573E+01  0.7546771E-02  0.2317897E+00
         21   -1    0    0  503  502  0.00000000000E+00  0.00000000000E+00  0.64771061852E+01  0.64771061852E+01  0.00000000000E+00 0. -1.
         21   -1    0    0  501  503 -0.00000000000E+00 -0.00000000000E+00 -0.14059478728E+02  0.14059478728E+02  0.00000000000E+00 0. -1.
          5    1    1    2  501    0 -0.44918086096E-01  0.49631682962E+01 -0.10956238924E+02  0.12913722489E+02  0.47000000000E+01 0. -1.
         -5    1    1    2    0  502  0.44918086096E-01 -0.49631682962E+01  0.33738663813E+01  0.76228624237E+01  0.47000000000E+01 0. -1.
<mgrwt>
<rscale>  2 0.68355729E+01</rscale>
<asrwt>0</asrwt>
<pdfrwt beam="1">  1       21 0.99647789E-03 0.68355729E+01</pdfrwt>
<pdfrwt beam="2">  1       21 0.21629967E-02 0.68355729E+01</pdfrwt>
<totfact> 0.11714502E+09</totfact>
</mgrwt>
</event>
<event>
 4    1  0.3989279E+006  0.6432079E+01  0.7546771E-02  0.2362366E+00
         21   -1    0    0  501  502  0.00000000000E+00  0.00000000000E+00  0.22976325413E+02  0.22976325413E+02  0.00000000000E+00 0. -1.
         21   -1    0    0  502  503 -0.00000000000E+00 -0.00000000000E+00 -0.10118070567E+02  0.10118070567E+02  0.00000000000E+00 0. -1.
          5    1    1    2  501    0 -0.29684077614E+01  0.32357671839E+01  0.21431872238E+02  0.22376254859E+02  0.47000000000E+01 0. -1.
         -5    1    1    2    0  503  0.29684077614E+01 -0.32357671839E+01 -0.85736173923E+01  0.10718141121E+02  0.47000000000E+01 0. -1.
<mgrwt>
<rscale>  2 0.64320785E+01</rscale>
<asrwt>0</asrwt>
<pdfrwt beam="1">  1       21 0.35348193E-02 0.64320785E+01</pdfrwt>
<pdfrwt beam="2">  1       21 0.15566262E-02 0.64320785E+01</pdfrwt>
<totfact> 0.28948769E+08</totfact>
</mgrwt>
</event>
<event>
 4    1  0.3989279E+006  0.6223072E+01  0.7546771E-02  0.2387264E+00
         21   -1    0    0  501  502  0.00000000000E+00  0.00000000000E+00  0.31492963390E+03  0.31492963390E+03  0.00000000000E+00 0.  1.
         21   -1    0    0  502  503 -0.00000000000E+00 -0.00000000000E+00 -0.46511684202E+00  0.46511684202E+00  0.00000000000E+00 0.  1.
          5    1    1    2  501    0 -0.29966514975E+01 -0.27670746003E+01  0.29248630112E+03  0.29255249608E+03  0.47000000000E+01 0.  1.
         -5    1    1    2    0  503  0.29966514975E+01  0.27670746003E+01  0.21978215932E+02  0.22842254652E+02  0.47000000000E+01 0.  1.
<mgrwt>
<rscale>  2 0.62230718E+01</rscale>
<asrwt>0</asrwt>
<pdfrwt beam="1">  1       21 0.48450543E-01 0.62230718E+01</pdfrwt>
<pdfrwt beam="2">  1       21 0.71556689E-04 0.62230718E+01</pdfrwt>
<totfact> 0.31158307E+08</totfact>
</mgrwt>
</event>
<event>
 4    1  0.3989279E+006  0.6342118E+01  0.7546771E-02  0.2372915E+00
         21   -1    0    0  501  502  0.00000000000E+00  0.00000000000E+00  0.47722579795E+01  0.47722579795E+01  0.00000000000E+00 0.  1.
         21   -1    0    0  502  503 -0.00000000000E+00 -0.00000000000E+00 -0.93910613410E+01  0.93910613410E+01  0.00000000000E+00 0. -1.
          5    1    1    2  501    0  0.38973699104E+01  0.17155070721E+01 -0.42062550286E-01  0.63422571685E+01  0.47000000000E+01 0.  1.
         -5    1    1    2    0  503 -0.38973699104E+01 -0.17155070721E+01 -0.45767408112E+01  0.78210621520E+01  0.47000000000E+01 0. -1.
<mgrwt>
<rscale>  2 0.63421177E+01</rscale>
<asrwt>0</asrwt>
<pdfrwt beam="1">  1       21 0.73419355E-03 0.63421177E+01</pdfrwt>
<pdfrwt beam="2">  1       21 0.14447786E-02 0.63421177E+01</pdfrwt>
<totfact> 0.30370608E+09</totfact>
</mgrwt>
</event>
<event>
 4    1  0.3989279E+006  0.5179319E+01  0.7546771E-02  0.2536293E+00
         21   -1    0    0  501  502  0.00000000000E+00  0.00000000000E+00  0.18174204406E-01  0.18174204406E-01  0.00000000000E+00 0.  1.
         21   -1    0    0  502  503 -0.00000000000E+00 -0.00000000000E+00 -0.14886099384E+04  0.14886099384E+04  0.00000000000E+00 0.  1.
          5    1    1    2  501    0 -0.40227956563E+00 -0.21385774698E+01 -0.67582328744E+03  0.67584313356E+03  0.47000000000E+01 0.  1.
         -5    1    1    2    0  503  0.40227956563E+00  0.21385774698E+01 -0.81276847680E+03  0.81278497908E+03  0.47000000000E+01 0.  1.
<mgrwt>
<rscale>  2 0.51793187E+01</rscale>
<asrwt>0</asrwt>
<pdfrwt beam="1">  1       21 0.27956955E-05 0.51793187E+01</pdfrwt>
<pdfrwt beam="2">  1       21 0.22904444E+00 0.51793187E+01</pdfrwt>
<totfact> 0.91756247E+08</totfact>
</mgrwt>
</event>
<event>
 4    1  0.3989279E+006  0.7905962E+01  0.7546771E-02  0.2218319E+00
         21   -1    0    0  501  502  0.00000000000E+00  0.00000000000E+00  0.60397141279E+01  0.60397141279E+01  0.00000000000E+00 0.  1.
         21   -1    0    0  502  503 -0.00000000000E+00 -0.00000000000E+00 -0.12694543238E+02  0.12694543238E+02  0.00000000000E+00 0.  1.
          5    1    1    2  501    0 -0.63521044339E+01  0.25495013200E+00  0.69912054609E+00  0.79368129528E+01  0.47000000000E+01 0.  1.
         -5    1    1    2    0  503  0.63521044339E+01 -0.25495013200E+00 -0.73539496562E+01  0.10797444413E+02  0.47000000000E+01 0.  1.
<mgrwt>
<rscale>  2 0.79059617E+01</rscale>
<asrwt>0</asrwt>
<pdfrwt beam="1">  1       21 0.92918680E-03 0.79059617E+01</pdfrwt>
<pdfrwt beam="2">  1       21 0.19530066E-02 0.79059617E+01</pdfrwt>
<totfact> 0.16712686E+09</totfact>
</mgrwt>
</event>
<event>
 4    1  0.3989279E+006  0.5915470E+01  0.7546771E-02  0.2426557E+00
         21   -1    0    0  503  502  0.00000000000E+00  0.00000000000E+00  0.23976835025E-01  0.23976835025E-01  0.00000000000E+00 0. -1.
         21   -1    0    0  501  503 -0.00000000000E+00 -0.00000000000E+00 -0.14670395017E+04  0.14670395017E+04  0.00000000000E+00 0. -1.
          5    1    1    2  501    0  0.33032549907E+01 -0.14111300108E+01 -0.78629824166E+03  0.78632049294E+03  0.47000000000E+01 0. -1.
         -5    1    1    2    0  502 -0.33032549907E+01  0.14111300108E+01 -0.68071728317E+03  0.68074298556E+03  0.47000000000E+01 0. -1.
<mgrwt>
<rscale>  2 0.59154697E+01</rscale>
<asrwt>0</asrwt>
<pdfrwt beam="1">  1       21 0.36904830E-05 0.59154697E+01</pdfrwt>
<pdfrwt beam="2">  1       21 0.22559202E+00 0.59154697E+01</pdfrwt>
<totfact> 0.69897536E+08</totfact>
</mgrwt>
</event>
<event>
 4    1  0.3989279E+006  0.1084219E+02  0.7546771E-02  0.2030004E+00
         21   -1    0    0  501  502  0.00000000000E+00  0.00000000000E+00  0.95040794570E+03  0.95040794570E+03  0.00000000000E+00 0. -1.
         21   -1    0    0  502  503 -0.00000000000E+00 -0.00000000000E+00 -0.35820297899E+01  0.35820297899E+01  0.00000000000E+00 0. -1.
          5    1    1    2  501    0  0.65042363517E+01 -0.72909544553E+01  0.94210031443E+03  0.94216270122E+03  0.47000000000E+01 0. -1.
         -5    1    1    2    0  503 -0.65042363517E+01  0.72909544553E+01  0.47256014736E+01  0.11827274271E+02  0.47000000000E+01 0. -1.
<mgrwt>
<rscale>  2 0.10842191E+02</rscale>
<asrwt>0</asrwt>
<pdfrwt beam="1">  1       21 0.14621641E+00 0.10842191E+02</pdfrwt>
<pdfrwt beam="2">  1       21 0.55108226E-03 0.10842191E+02</pdfrwt>
<totfact> 0.25241864E+06</totfact>
</mgrwt>
</event>
<event>
 4    1  0.3989279E+006  0.6973519E+01  0.7546771E-02  0.2303672E+00
         21   -1    0    0  503  502  0.00000000000E+00  0.00000000000E+00  0.64498636170E-01  0.64498636170E-01  0.00000000000E+00 0. -1.
         21   -1    0    0  501  503 -0.00000000000E+00 -0.00000000000E+00 -0.87934996756E+03  0.87934996756E+03  0.00000000000E+00 0.  1.
          5    1    1    2  501    0  0.31433595718E+01  0.40815760929E+01 -0.60567730629E+03  0.60571745008E+03  0.47000000000E+01 0.  1.
         -5    1    1    2    0  502 -0.31433595718E+01 -0.40815760929E+01 -0.27360816263E+03  0.27369701612E+03  0.47000000000E+01 0. -1.
<mgrwt>
<rscale>  2 0.69735194E+01</rscale>
<asrwt>0</asrwt>
<pdfrwt beam="1">  1       21 0.99220208E-05 0.69735194E+01</pdfrwt>
<pdfrwt beam="2">  1       21 0.13529615E+00 0.69735194E+01</pdfrwt>
<totfact> 0.62646297E+08</totfact>
</mgrwt>
</event>
<event>
 4    1  0.3989279E+006  0.4749311E+01  0.7546771E-02  0.2613644E+00
         21   -1    0    0  501  502  0.00000000000E+00  0.00000000000E+00  0.11485204308E+04  0.11485204308E+04  0.00000000000E+00 0. -1.
         21   -1    0    0  502  503 -0.00000000000E+00 -0.00000000000E+00 -0.41276955156E-01  0.41276955156E-01  0.00000000000E+00 0. -1.
          5    1    1    2  501    0  0.47585795344E+00  0.48939847457E+00  0.99003263118E+03  0.99004402264E+03  0.47000000000E+01 0. -1.
         -5    1    1    2    0  503 -0.47585795344E+00 -0.48939847457E+00  0.15844652264E+03  0.15851768509E+03  0.47000000000E+01 0. -1.
<mgrwt>
<rscale>  2 0.47493107E+01</rscale>
<asrwt>0</asrwt>
<pdfrwt beam="1">  1       21 0.17666986E+00 0.47493107E+01</pdfrwt>
<pdfrwt beam="2">  1       21 0.63512207E-05 0.47493107E+01</pdfrwt>
<totfact> 0.50065100E+08</totfact>
</mgrwt>
</event>
<event>
 4    1  0.3989279E+006  0.1604636E+02  0.7546771E-02  0.1837721E+00
         21   -1    0    0  501  502  0.00000000000E+00  0.00000000000E+00  0.30801495579E+01  0.30801495579E+01  0.00000000000E+00 0. -1.
         21   -1    0    0  502  503 -0.00000000000E+00 -0.00000000000E+00 -0.83871735232E+02  0.83871735232E+02  0.00000000000E+00 0.  1.
          5    1    1    2  501    0  0.10735560850E+02  0.10961000280E+02 -0.42892095006E+02  0.45795388501E+02  0.47000000000E+01 0. -1.
         -5    1    1    2    0  503 -0.10735560850E+02 -0.10961000280E+02 -0.37899490668E+02  0.41156496290E+02  0.47000000000E+01 0.  1.
<mgrwt>
<rscale>  2 0.16046364E+02</rscale>
<asrwt>0</asrwt>
<pdfrwt beam="1">  1       21 0.47386921E-03 0.16046364E+02</pdfrwt>
<pdfrwt beam="2">  1       21 0.12903343E-01 0.16046364E+02</pdfrwt>
<totfact> 0.34829246E+08</totfact>
</mgrwt>
</event>
<event>
 4    1  0.3989279E+006  0.5105106E+01  0.7546771E-02  0.2548839E+00
         21   -1    0    0  503  502  0.00000000000E+00  0.00000000000E+00  0.65019049222E+03  0.65019049222E+03  0.00000000000E+00 0.  1.
         21   -1    0    0  501  503 -0.00000000000E+00 -0.00000000000E+00 -0.40197507327E-01  0.40197507327E-01  0.00000000000E+00 0.  1.
          5    1    1    2  501    0  0.10063993417E+01 -0.17202535444E+01  0.30778439848E+03  0.30782673383E+03  0.47000000000E+01 0.  1.
         -5    1    1    2    0  502 -0.10063993417E+01  0.17202535444E+01  0.34236589622E+03  0.34240395589E+03  0.47000000000E+01 0.  1.
<mgrwt>
<rscale>  2 0.51051065E+01</rscale>
<asrwt>0</asrwt>
<pdfrwt beam="1">  1       21 0.10002088E+00 0.51051065E+01</pdfrwt>
<pdfrwt beam="2">  1       21 0.61847526E-05 0.51051065E+01</pdfrwt>
<totfact> 0.17868944E+09</totfact>
</mgrwt>
</event>
<event>
 4    1  0.3989279E+006  0.4916742E+01  0.7546771E-02  0.2582139E+00
         21   -1    0    0  503  502  0.00000000000E+00  0.00000000000E+00  0.14326973777E+02  0.14326973777E+02  0.00000000000E+00 0.  1.
         21   -1    0    0  501  503 -0.00000000000E+00 -0.00000000000E+00 -0.20180204429E+01  0.20180204429E+01  0.00000000000E+00 0.  1.
          5    1    1    2  501    0 -0.14432685922E+01  0.36424895997E-01  0.28461988238E+01  0.56811265386E+01  0.47000000000E+01 0.  1.
         -5    1    1    2    0  502  0.14432685922E+01 -0.36424895997E-01  0.94627545103E+01  0.10663867681E+02  0.47000000000E+01 0.  1.
<mgrwt>
<rscale>  2 0.49167419E+01</rscale>
<asrwt>0</asrwt>
<pdfrwt beam="1">  1       21 0.22041498E-02 0.49167419E+01</pdfrwt>
<pdfrwt beam="2">  1       21 0.31046469E-03 0.49167419E+01</pdfrwt>
<totfact> 0.42867016E+09</totfact>
</mgrwt>
</event>
<event>
 4    1  0.3989279E+006  0.1069383E+02  0.7546771E-02  0.2037526E+00
         21   -1    0    0  501  502  0.00000000000E+00  0.00000000000E+00  0.60715765602E+02  0.60715765602E+02  0.00000000000E+00 0.  1.
         21   -1    0    0  502  503 -0.00000000000E+00 -0.00000000000E+00 -0.70073117588E+01  0.70073117588E+01  0.00000000000E+00 0. -1.
          5    1    1    2  501    0  0.79545038837E+01 -0.53845945114E+01  0.55809499629E+02  0.56824803026E+02  0.47000000000E+01 0.  1.
         -5    1    1    2    0  503 -0.79545038837E+01  0.53845945114E+01 -0.21010457856E+01  0.10898274335E+02  0.47000000000E+01 0. -1.
<mgrwt>
<rscale>  2 0.10693830E+02</rscale>
<asrwt>0</asrwt>
<pdfrwt beam="1">  1       21 0.93408867E-02 0.10693830E+02</pdfrwt>
<pdfrwt beam="2">  1       21 0.10780480E-02 0.10693830E+02</pdfrwt>
<totfact> 0.14954327E+08</totfact>
</mgrwt>
</event>
<event>
 4    1  0.3989279E+006  0.5442973E+01  0.7546771E-02  0.2494100E+00
         21   -1    0    0  503  502  0.00000000000E+00  0.00000000000E+00  0.21819045617E+02  0.21819045617E+02  0.00000000000E+00 0. -1.
         21   -1    0    0  501  503 -0.00000000000E+00 -0.00000000000E+00 -0.16242265336E+01  0.16242265336E+01  0.00000000000E+00 0. -1.
          5    1    1    2  501    0 -0.26910264601E+01  0.54252452232E+00  0.53500560188E+01  0.76321068959E+01  0.47000000000E+01 0. -1.
         -5    1    1    2    0  502  0.26910264601E+01 -0.54252452232E+00  0.14844763065E+02  0.15811165255E+02  0.47000000000E+01 0. -1.
<mgrwt>
<rscale>  2 0.54429731E+01</rscale>
<asrwt>0</asrwt>
<pdfrwt beam="1">  1       21 0.33567760E-02 0.54429731E+01</pdfrwt>
<pdfrwt beam="2">  1       21 0.24988102E-03 0.54429731E+01</pdfrwt>
<totfact> 0.34924728E+09</totfact>
</mgrwt>
</event>
<event>
 4    1  0.3989279E+006  0.5770272E+01  0.7546771E-02  0.2446317E+00
         21   -1    0    0  503  502  0.00000000000E+00  0.00000000000E+00  0.41080843404E+00  0.41080843404E+00  0.00000000000E+00 0. -1.
         21   -1    0    0  501  503 -0.00000000000E+00 -0.00000000000E+00 -0.81090327678E+02  0.81090327678E+02  0.00000000000E+00 0. -1.
          5    1    1    2  501    0  0.13117811224E+01 -0.30798173013E+01 -0.41247953749E+02  0.41649606634E+02  0.47000000000E+01 0. -1.
         -5    1    1    2    0  502 -0.13117811224E+01  0.30798173013E+01 -0.39431565495E+02  0.39851529478E+02  0.47000000000E+01 0. -1.
<mgrwt>
<rscale>  2 0.57702725E+01</rscale>
<asrwt>0</asrwt>
<pdfrwt beam="1">  1       21 0.63201323E-04 0.57702725E+01</pdfrwt>
<pdfrwt beam="2">  1       21 0.12475430E-01 0.57702725E+01</pdfrwt>
<totfact> 0.32859760E+09</totfact>
</mgrwt>
</event>
<event>
 4    1  0.3989279E+006  0.5980556E+01  0.7546771E-02  0.2417961E+00
         21   -1    0    0  503  502  0.00000000000E+00  0.00000000000E+00  0.19617861413E+00  0.19617861413E+00  0.00000000000E+00 0. -1.
         21   -1    0    0  501  503 -0.00000000000E+00 -0.00000000000E+00 -0.37315291527E+03  0.37315291527E+03  0.00000000000E+00 0.  1.
          5    1    1    2  501    0 -0.47024000865E+00 -0.36682317268E+01 -0.31997481115E+03  0.32003069668E+03  0.47000000000E+01 0.  1.
         -5    1    1    2    0  502  0.47024000865E+00  0.36682317268E+01 -0.52981925511E+02  0.53318397205E+02  0.47000000000E+01 0. -1.
<mgrwt>
<rscale>  2 0.59805560E+01</rscale>
<asrwt>0</asrwt>
<pdfrwt beam="1">  1       21 0.30181726E-04 0.59805560E+01</pdfrwt>
<pdfrwt beam="2">  1       21 0.57407378E-01 0.59805560E+01</pdfrwt>
<totfact> 0.70706857E+08</totfact>
</mgrwt>
</event>
<event>
 4    1  0.3989279E+006  0.6440297E+01  0.7546771E-02  0.2361414E+00
         21   -1    0    0  503  502  0.00000000000E+00  0.00000000000E+00  0.24491866357E+01  0.24491866357E+01  0.00000000000E+00 0.  1.
         21   -1    0    0  501  503 -0.00000000000E+00 -0.00000000000E+00 -0.20563991896E+02  0.20563991896E+02  0.00000000000E+00 0.  1.
          5    1    1    2  501    0  0.12221444319E+01  0.42301057557E+01 -0.13891047686E+02  0.15311389145E+02  0.47000000000E+01 0.  1.
         -5    1    1    2    0  502 -0.12221444319E+01 -0.42301057557E+01 -0.42237575737E+01  0.77017893867E+01  0.47000000000E+01 0.  1.
<mgrwt>
<rscale>  2 0.64402975E+01</rscale>
<asrwt>0</asrwt>
<pdfrwt beam="1">  1       21 0.37679796E-03 0.64402975E+01</pdfrwt>
<pdfrwt beam="2">  1       21 0.31636910E-02 0.64402975E+01</pdfrwt>
<totfact> 0.25150173E+09</totfact>
</mgrwt>
</event>
<event>
 4    1  0.3989279E+006  0.7452287E+01  0.7546771E-02  0.2257676E+00
         21   -1    0    0  503  502  0.00000000000E+00  0.00000000000E+00  0.20135853823E+01  0.20135853823E+01  0.00000000000E+00 0. -1.
         21   -1    0    0  501  503 -0.00000000000E+00 -0.00000000000E+00 -0.34915626297E+02  0.34915626297E+02  0.00000000000E+00 0. -1.
          5    1    1    2  501    0  0.56801908202E+01 -0.10872057328E+01 -0.24913951461E+02  0.26004644998E+02  0.47000000000E+01 0. -1.
         -5    1    1    2    0  502 -0.56801908202E+01  0.10872057328E+01 -0.79880894541E+01  0.10924566682E+02  0.47000000000E+01 0. -1.
<mgrwt>
<rscale>  2 0.74522872E+01</rscale>
<asrwt>0</asrwt>
<pdfrwt beam="1">  1       21 0.30978237E-03 0.74522872E+01</pdfrwt>
<pdfrwt beam="2">  1       21 0.53716348E-02 0.74522872E+01</pdfrwt>
<totfact> 0.16827916E+09</totfact>
</mgrwt>
</event>
<event>
 4    1  0.3989279E+006  0.1169892E+02  0.7546771E-02  0.1989504E+00
         21   -1    0    0  501  502  0.00000000000E+00  0.00000000000E+00  0.20026865312E+03  0.20026865312E+03  0.00000000000E+00 0.  1.
         21   -1    0    0  502  503 -0.00000000000E+00 -0.00000000000E+00 -0.71915406501E+00  0.71915406501E+00  0.00000000000E+00 0. -1.
          5    1    1    2  501    0 -0.10417479669E+02  0.25001654168E+01  0.12218040881E+03  0.12273922359E+03  0.47000000000E+01 0.  1.
         -5    1    1    2    0  503  0.10417479669E+02 -0.25001654168E+01  0.77369090245E+02  0.78248583598E+02  0.47000000000E+01 0. -1.
<mgrwt>
<rscale>  2 0.11698919E+02</rscale>
<asrwt>0</asrwt>
<pdfrwt beam="1">  1       21 0.30810518E-01 0.11698919E+02</pdfrwt>
<pdfrwt beam="2">  1       21 0.11063925E-03 0.11698919E+02</pdfrwt>
<totfact> 0.54555480E+08</totfact>
</mgrwt>
</event>
<event>
 4    1  0.3989279E+006  0.5108794E+01  0.7546771E-02  0.2548208E+00
         21   -1    0    0  501  502  0.00000000000E+00  0.00000000000E+00  0.78284993162E-01  0.78284993162E-01  0.00000000000E+00 0. -1.
         21   -1    0    0  502  503 -0.00000000000E+00 -0.00000000000E+00 -0.52265211923E+03  0.52265211923E+03  0.00000000000E+00 0. -1.
          5    1    1    2  501    0  0.16288010063E+01 -0.11648104471E+01 -0.10400882168E+03  0.10413421515E+03  0.47000000000E+01 0. -1.
         -5    1    1    2    0  503 -0.16288010063E+01  0.11648104471E+01 -0.41856501256E+03  0.41859618908E+03  0.47000000000E+01 0. -1.
<mgrwt>
<rscale>  2 0.51087940E+01</rscale>
<asrwt>0</asrwt>
<pdfrwt beam="1">  1       21 0.12044547E-04 0.51087940E+01</pdfrwt>
<pdfrwt beam="2">  1       21 0.80403330E-01 0.51087940E+01</pdfrwt>
<totfact> 0.11297154E+09</totfact>
</mgrwt>
</event>
<event>
 4    1  0.3989279E+006  0.4743028E+01  0.7546771E-02  0.2614864E+00
         21   -1    0    0  501  502  0.00000000000E+00  0.00000000000E+00  0.35532885337E+01  0.35532885337E+01  0.00000000000E+00 0.  1.
         21   -1    0    0  502  503 -0.00000000000E+00 -0.00000000000E+00 -0.88994345791E+01  0.88994345791E+01  0.00000000000E+00 0.  1.
          5    1    1    2  501    0  0.31824047869E+00  0.55230358656E+00  0.67177783205E+00  0.47903655090E+01  0.47000000000E+01 0.  1.
         -5    1    1    2    0  503 -0.31824047869E+00 -0.55230358656E+00 -0.60179238775E+01  0.76623576038E+01  0.47000000000E+01 0.  1.
<mgrwt>
<rscale>  2 0.47430282E+01</rscale>
<asrwt>0</asrwt>
<pdfrwt beam="1">  1       21 0.54665978E-03 0.47430282E+01</pdfrwt>
<pdfrwt beam="2">  1       21 0.13691438E-02 0.47430282E+01</pdfrwt>
<totfact> 0.37293920E+09</totfact>
</mgrwt>
</event>
<event>
 4    1  0.3989279E+006  0.4922870E+01  0.7546771E-02  0.2581021E+00
         21   -1    0    0  503  502  0.00000000000E+00  0.00000000000E+00  0.44250084469E+01  0.44250084469E+01  0.00000000000E+00 0.  1.
         21   -1    0    0  501  503 -0.00000000000E+00 -0.00000000000E+00 -0.59694215988E+02  0.59694215988E+02  0.00000000000E+00 0.  1.
          5    1    1    2  501    0 -0.95462655663E+00  0.11105591974E+01 -0.58188159321E+02  0.58396031875E+02  0.47000000000E+01 0.  1.
         -5    1    1    2    0  502  0.95462655663E+00 -0.11105591974E+01  0.29189517793E+01  0.57231925604E+01  0.47000000000E+01 0.  1.
<mgrwt>
<rscale>  2 0.49228705E+01</rscale>
<asrwt>0</asrwt>
<pdfrwt beam="1">  1       21 0.68077055E-03 0.49228705E+01</pdfrwt>
<pdfrwt beam="2">  1       21 0.91837253E-02 0.49228705E+01</pdfrwt>
<totfact> 0.18323613E+08</totfact>
</mgrwt>
</event>
<event>
 4    1  0.3989279E+006  0.6346296E+01  0.7546771E-02  0.2372420E+00
         21   -1    0    0  503  502  0.00000000000E+00  0.00000000000E+00  0.91907050096E+02  0.91907050096E+02  0.00000000000E+00 0.  1.
         21   -1    0    0  501  503 -0.00000000000E+00 -0.00000000000E+00 -0.98791054858E+00  0.98791054858E+00  0.00000000000E+00 0. -1.
          5    1    1    2  501    0  0.36412320923E+01  0.22196633358E+01  0.10812810687E+02  0.12537637394E+02  0.47000000000E+01 0. -1.
         -5    1    1    2    0  502 -0.36412320923E+01 -0.22196633358E+01  0.80106328861E+02  0.80357323251E+02  0.47000000000E+01 0.  1.
<mgrwt>
<rscale>  2 0.63462963E+01</rscale>
<asrwt>0</asrwt>
<pdfrwt beam="1">  1       21 0.14139539E-01 0.63462963E+01</pdfrwt>
<pdfrwt beam="2">  1       21 0.15198631E-03 0.63462963E+01</pdfrwt>
<totfact> 0.89665844E+08</totfact>
</mgrwt>
</event>
<event>
 4    1  0.3989279E+006  0.5321423E+01  0.7546771E-02  0.2513109E+00
         21   -1    0    0  503  502  0.00000000000E+00  0.00000000000E+00  0.10509637585E+02  0.10509637585E+02  0.00000000000E+00 0.  1.
         21   -1    0    0  501  503 -0.00000000000E+00 -0.00000000000E+00 -0.27058405490E+01  0.27058405490E+01  0.00000000000E+00 0.  1.
          5    1    1    2  501    0  0.81444014503E+00  0.23588628118E+01  0.43308810925E+01  0.68610551340E+01  0.47000000000E+01 0.  1.
         -5    1    1    2    0  502 -0.81444014503E+00 -0.23588628118E+01  0.34729159439E+01  0.63544230004E+01  0.47000000000E+01 0.  1.
<mgrwt>
<rscale>  2 0.53214234E+01</rscale>
<asrwt>0</asrwt>
<pdfrwt beam="1">  1       21 0.16168673E-02 0.53214234E+01</pdfrwt>
<pdfrwt beam="2">  1       21 0.41628317E-03 0.53214234E+01</pdfrwt>
<totfact> 0.48397134E+09</totfact>
</mgrwt>
</event>
<event>
 4    1  0.3989279E+006  0.7097448E+01  0.7546771E-02  0.2291280E+00
         21   -1    0    0  501  502  0.00000000000E+00  0.00000000000E+00  0.58340891831E+00  0.58340891831E+00  0.00000000000E+00 0.  1.
         21   -1    0    0  502  503 -0.00000000000E+00 -0.00000000000E+00 -0.25687972897E+03  0.25687972897E+03  0.00000000000E+00 0.  1.
          5    1    1    2  501    0 -0.23577841020E+01  0.47670348570E+01 -0.23259620594E+02  0.24318382294E+02  0.47000000000E+01 0. -1.
         -5    1    1    2    0  503  0.23577841020E+01 -0.47670348570E+01 -0.23303669945E+03  0.23314475559E+03  0.47000000000E+01 0. -1.
<mgrwt>
<rscale>  2 0.70974479E+01</rscale>
<asrwt>0</asrwt>
<pdfrwt beam="1">  1       21 0.89755296E-04 0.70974479E+01</pdfrwt>
<pdfrwt beam="2">  1       21 0.39519924E-01 0.70974479E+01</pdfrwt>
<totfact> 0.35864881E+08</totfact>
</mgrwt>
</event>
<event>
 4    1  0.3989279E+006  0.5471798E+01  0.7546771E-02  0.2489698E+00
         21   -1    0    0  503  502  0.00000000000E+00  0.00000000000E+00  0.16138352955E+01  0.16138352955E+01  0.00000000000E+00 0. -1.
         21   -1    0    0  501  503 -0.00000000000E+00 -0.00000000000E+00 -0.18568179284E+02  0.18568179284E+02  0.00000000000E+00 0. -1.
          5    1    1    2  501    0 -0.13906155521E+01  0.24324399395E+01 -0.87710050255E+01  0.10337848172E+02  0.47000000000E+01 0. -1.
         -5    1    1    2    0  502  0.13906155521E+01 -0.24324399395E+01 -0.81833389634E+01  0.98441664077E+01  0.47000000000E+01 0. -1.
<mgrwt>
<rscale>  2 0.54717982E+01</rscale>
<asrwt>0</asrwt>
<pdfrwt beam="1">  1       21 0.24828235E-03 0.54717982E+01</pdfrwt>
<pdfrwt beam="2">  1       21 0.28566430E-02 0.54717982E+01</pdfrwt>
<totfact> 0.44709653E+09</totfact>
</mgrwt>
</event>
<event>
 4    1  0.3989279E+006  0.5224645E+01  0.7546771E-02  0.2528781E+00
         21   -1    0    0  503  502  0.00000000000E+00  0.00000000000E+00  0.52990695943E+01  0.52990695943E+01  0.00000000000E+00 0. -1.
         21   -1    0    0  501  503 -0.00000000000E+00 -0.00000000000E+00 -0.56827874076E+01  0.56827874076E+01  0.00000000000E+00 0. -1.
          5    1    1    2  501    0 -0.19273654986E+01  0.12215469398E+01  0.14874308732E+01  0.54322523224E+01  0.47000000000E+01 0. -1.
         -5    1    1    2    0  502  0.19273654986E+01 -0.12215469398E+01 -0.18711486865E+01  0.55496046795E+01  0.47000000000E+01 0. -1.
<mgrwt>
<rscale>  2 0.52246449E+01</rscale>
<asrwt>0</asrwt>
<pdfrwt beam="1">  1       21 0.81524148E-03 0.52246449E+01</pdfrwt>
<pdfrwt beam="2">  1       21 0.87427498E-03 0.52246449E+01</pdfrwt>
<totfact> 0.44487912E+09</totfact>
</mgrwt>
</event>
<event>
 4    1  0.3989279E+006  0.7719055E+01  0.7546771E-02  0.2234079E+00
         21   -1    0    0  501  502  0.00000000000E+00  0.00000000000E+00  0.50393565486E+02  0.50393565486E+02  0.00000000000E+00 0. -1.
         21   -1    0    0  502  503 -0.00000000000E+00 -0.00000000000E+00 -0.15130835423E+01  0.15130835423E+01  0.00000000000E+00 0. -1.
          5    1    1    2  501    0  0.34646040160E+01  0.50487945138E+01  0.36573793168E+02  0.37379488409E+02  0.47000000000E+01 0. -1.
         -5    1    1    2    0  503 -0.34646040160E+01 -0.50487945138E+01  0.12306688775E+02  0.14527160619E+02  0.47000000000E+01 0. -1.
<mgrwt>
<rscale>  2 0.77190548E+01</rscale>
<asrwt>0</asrwt>
<pdfrwt beam="1">  1       21 0.77528550E-02 0.77190548E+01</pdfrwt>
<pdfrwt beam="2">  1       21 0.23278212E-03 0.77190548E+01</pdfrwt>
<totfact> 0.14667260E+09</totfact>
</mgrwt>
</event>
<event>
 4    1  0.3989279E+006  0.6368224E+01  0.7546771E-02  0.2369828E+00
         21   -1    0    0  501  502  0.00000000000E+00  0.00000000000E+00  0.14983211020E+02  0.14983211020E+02  0.00000000000E+00 0. -1.
         21   -1    0    0  502  503 -0.00000000000E+00 -0.00000000000E+00 -0.27546418259E+01  0.27546418259E+01  0.00000000000E+00 0. -1.
          5    1    1    2  501    0  0.41781314379E+01 -0.10037377232E+01  0.72849508665E+01  0.96759899161E+01  0.47000000000E+01 0. -1.
         -5    1    1    2    0  503 -0.41781314379E+01  0.10037377232E+01  0.49436183273E+01  0.80618629296E+01  0.47000000000E+01 0. -1.
<mgrwt>
<rscale>  2 0.63682236E+01</rscale>
<asrwt>0</asrwt>
<pdfrwt beam="1">  1       21 0.23051093E-02 0.63682236E+01</pdfrwt>
<pdfrwt beam="2">  1       21 0.42379106E-03 0.63682236E+01</pdfrwt>
<totfact> 0.33550439E+09</totfact>
</mgrwt>
</event>
<event>
 4    1  0.3989279E+006  0.8521911E+01  0.7546771E-02  0.2170364E+00
         21   -1    0    0  501  502  0.00000000000E+00  0.00000000000E+00  0.19428443012E+02  0.19428443012E+02  0.00000000000E+00 0. -1.
         21   -1    0    0  502  503 -0.00000000000E+00 -0.00000000000E+00 -0.18939696629E+02  0.18939696629E+02  0.00000000000E+00 0.  1.
          5    1    1    2  501    0  0.29605125228E+01  0.64628422329E+01  0.17431396920E+02  0.19403003961E+02  0.47000000000E+01 0. -1.
         -5    1    1    2    0  503 -0.29605125228E+01 -0.64628422329E+01 -0.16942650537E+02  0.18965135679E+02  0.47000000000E+01 0.  1.
<mgrwt>
<rscale>  2 0.85219108E+01</rscale>
<asrwt>0</asrwt>
<pdfrwt beam="1">  1       21 0.29889912E-02 0.85219108E+01</pdfrwt>
<pdfrwt beam="2">  1       21 0.29137995E-02 0.85219108E+01</pdfrwt>
<totfact> 0.17707172E+08</totfact>
</mgrwt>
</event>
<event>
 4    1  0.3989279E+006  0.1001683E+02  0.7546771E-02  0.2074031E+00
         21   -1    0    0  503  502  0.00000000000E+00  0.00000000000E+00  0.11966374404E+02  0.11966374404E+02  0.00000000000E+00 0. -1.
         21   -1    0    0  501  503 -0.00000000000E+00 -0.00000000000E+00 -0.36015287150E+02  0.36015287150E+02  0.00000000000E+00 0.  1.
          5    1    1    2  501    0  0.87341833808E+01  0.14003515653E+01 -0.33037805287E+02  0.34522941966E+02  0.47000000000E+01 0.  1.
         -5    1    1    2    0  502 -0.87341833808E+01 -0.14003515653E+01  0.89888925403E+01  0.13458719588E+02  0.47000000000E+01 0. -1.
<mgrwt>
<rscale>  2 0.10016833E+02</rscale>
<asrwt>0</asrwt>
<pdfrwt beam="1">  1       21 0.18409807E-02 0.10016833E+02</pdfrwt>
<pdfrwt beam="2">  1       21 0.55408133E-02 0.10016833E+02</pdfrwt>
<totfact> 0.14950711E+08</totfact>
</mgrwt>
</event>
<event>
 4    1  0.3989279E+006  0.1087903E+02  0.7546771E-02  0.2028161E+00
         21   -1    0    0  503  502  0.00000000000E+00  0.00000000000E+00  0.36270291440E+01  0.36270291440E+01  0.00000000000E+00 0. -1.
         21   -1    0    0  501  503 -0.00000000000E+00 -0.00000000000E+00 -0.35649673363E+02  0.35649673363E+02  0.00000000000E+00 0.  1.
          5    1    1    2  501    0  0.42773320441E+01  0.88299348800E+01 -0.21725985238E+02  0.24297566832E+02  0.47000000000E+01 0.  1.
         -5    1    1    2    0  502 -0.42773320441E+01 -0.88299348800E+01 -0.10296658982E+02  0.14979135675E+02  0.47000000000E+01 0. -1.
<mgrwt>
<rscale>  2 0.10879031E+02</rscale>
<asrwt>0</asrwt>
<pdfrwt beam="1">  1       21 0.55800451E-03 0.10879031E+02</pdfrwt>
<pdfrwt beam="2">  1       21 0.54845649E-02 0.10879031E+02</pdfrwt>
<totfact> 0.90013852E+08</totfact>
</mgrwt>
</event>
<event>
 4    1  0.3989279E+006  0.5378457E+01  0.7546771E-02  0.2504098E+00
         21   -1    0    0  503  502  0.00000000000E+00  0.00000000000E+00  0.46688946264E+02  0.46688946264E+02  0.00000000000E+00 0.  1.
         21   -1    0    0  501  503 -0.00000000000E+00 -0.00000000000E+00 -0.83371417186E+00  0.83371417186E+00  0.00000000000E+00 0. -1.
          5    1    1    2  501    0 -0.25108734779E+01  0.73028274355E+00  0.10885592442E+02  0.12141825288E+02  0.47000000000E+01 0. -1.
         -5    1    1    2    0  502  0.25108734779E+01 -0.73028274355E+00  0.34969639651E+02  0.35380835149E+02  0.47000000000E+01 0.  1.
<mgrwt>
<rscale>  2 0.53784569E+01</rscale>
<asrwt>0</asrwt>
<pdfrwt beam="1">  1       21 0.71829128E-02 0.53784569E+01</pdfrwt>
<pdfrwt beam="2">  1       21 0.12826376E-03 0.53784569E+01</pdfrwt>
<totfact> 0.27737499E+09</totfact>
</mgrwt>
</event>
<event>
 4    1  0.3989279E+006  0.5007443E+01  0.7546771E-02  0.2565835E+00
         21   -1    0    0  503  502  0.00000000000E+00  0.00000000000E+00  0.70547767188E+00  0.70547767188E+00  0.00000000000E+00 0. -1.
         21   -1    0    0  501  503 -0.00000000000E+00 -0.00000000000E+00 -0.14658189802E+03  0.14658189802E+03  0.00000000000E+00 0. -1.
          5    1    1    2  501    0  0.11102075375E+01  0.13236020000E+01 -0.13703463240E+03  0.13712609147E+03  0.47000000000E+01 0. -1.
         -5    1    1    2    0  502 -0.11102075375E+01 -0.13236020000E+01 -0.88417879399E+01  0.10161284220E+02  0.47000000000E+01 0. -1.
<mgrwt>
<rscale>  2 0.50074428E+01</rscale>
<asrwt>0</asrwt>
<pdfrwt beam="1">  1       21 0.10853501E-03 0.50074428E+01</pdfrwt>
<pdfrwt beam="2">  1       21 0.22551064E-01 0.50074428E+01</pdfrwt>
<totfact> 0.55498199E+08</totfact>
</mgrwt>
</event>
<event>
 4    1  0.3989279E+006  0.6385862E+01  0.7546771E-02  0.2367755E+00
         21   -1    0    0  501  502  0.00000000000E+00  0.00000000000E+00  0.16847639917E+01  0.16847639917E+01  0.00000000000E+00 0.  1.
         21   -1    0    0  502  503 -0.00000000000E+00 -0.00000000000E+00 -0.57962927158E+02  0.57962927158E+02  0.00000000000E+00 0. -1.
          5    1    1    2  501    0 -0.41638278149E+01 -0.11626574200E+01 -0.53787702507E+01  0.83492756427E+01  0.47000000000E+01 0.  1.
         -5    1    1    2    0  503  0.41638278149E+01  0.11626574200E+01 -0.50899392916E+02  0.51298415507E+02  0.47000000000E+01 0. -1.
<mgrwt>
<rscale>  2 0.63858621E+01</rscale>
<asrwt>0</asrwt>
<pdfrwt beam="1">  1       21 0.25919450E-03 0.63858621E+01</pdfrwt>
<pdfrwt beam="2">  1       21 0.89173720E-02 0.63858621E+01</pdfrwt>
<totfact> 0.88944166E+08</totfact>
</mgrwt>
</event>
<event>
 4    1  0.3989279E+006  0.9217424E+01  0.7546771E-02  0.2122467E+00
         21   -1    0    0  501  502  0.00000000000E+00  0.00000000000E+00  0.24735052989E+02  0.24735052989E+02  0.00000000000E+00 0. -1.
         21   -1    0    0  502  503 -0.00000000000E+00 -0.00000000000E+00 -0.50416103835E+01  0.50416103835E+01  0.00000000000E+00 0.  1.
          5    1    1    2  501    0  0.22437171109E+01 -0.76050407139E+01  0.18251736746E+02  0.20447171075E+02  0.47000000000E+01 0. -1.
         -5    1    1    2    0  503 -0.22437171109E+01  0.76050407139E+01  0.14417058591E+01  0.93294922969E+01  0.47000000000E+01 0.  1.
<mgrwt>
<rscale>  2 0.92174243E+01</rscale>
<asrwt>0</asrwt>
<pdfrwt beam="1">  1       21 0.38053927E-02 0.92174243E+01</pdfrwt>
<pdfrwt beam="2">  1       21 0.77563238E-03 0.92174243E+01</pdfrwt>
<totfact> 0.89057690E+08</totfact>
</mgrwt>
</event>
<event>
 4    1  0.3989279E+006  0.5699431E+01  0.7546771E-02  0.2456266E+00
         21   -1    0    0  503  502  0.00000000000E+00  0.00000000000E+00  0.20335101382E+02  0.20335101382E+02  0.00000000000E+00 0.  1.
         21   -1    0    0  501  503 -0.00000000000E+00 -0.00000000000E+00 -0.17183572529E+01  0.17183572529E+01  0.00000000000E+00 0.  1.
          5    1    1    2  501    0  0.27223916196E+01 -0.17268735038E+01  0.63829619545E+01  0.85572023197E+01  0.47000000000E+01 0.  1.
         -5    1    1    2    0  502 -0.27223916196E+01  0.17268735038E+01  0.12233782175E+02  0.13496256316E+02  0.47000000000E+01 0.  1.
<mgrwt>
<rscale>  2 0.56994305E+01</rscale>
<asrwt>0</asrwt>
<pdfrwt beam="1">  1       21 0.31284770E-02 0.56994305E+01</pdfrwt>
<pdfrwt beam="2">  1       21 0.26436267E-03 0.56994305E+01</pdfrwt>
<totfact> 0.37387887E+09</totfact>
</mgrwt>
</event>
<event>
 4    1  0.3989279E+006  0.8969281E+01  0.7546771E-02  0.2138876E+00
         21   -1    0    0  501  502  0.00000000000E+00  0.00000000000E+00  0.61273564230E+03  0.61273564230E+03  0.00000000000E+00 0. -1.
         21   -1    0    0  502  503 -0.00000000000E+00 -0.00000000000E+00 -0.11080313202E+01  0.11080313202E+01  0.00000000000E+00 0. -1.
          5    1    1    2  501    0 -0.75112106270E+01 -0.13927339162E+01  0.59397855280E+03  0.59404626855E+03  0.47000000000E+01 0. -1.
         -5    1    1    2    0  503  0.75112106270E+01  0.13927339162E+01  0.17649058180E+02  0.19797405069E+02  0.47000000000E+01 0. -1.
<mgrwt>
<rscale>  2 0.89692805E+01</rscale>
<asrwt>0</asrwt>
<pdfrwt beam="1">  1       21 0.94266751E-01 0.89692805E+01</pdfrwt>
<pdfrwt beam="2">  1       21 0.17046685E-03 0.89692805E+01</pdfrwt>
<totfact> 0.32087973E+07</totfact>
</mgrwt>
</event>
<event>
 4    1  0.3989279E+006  0.1197494E+02  0.7546771E-02  0.1977418E+00
         21   -1    0    0  503  502  0.00000000000E+00  0.00000000000E+00  0.15830330985E+03  0.15830330985E+03  0.00000000000E+00 0. -1.
         21   -1    0    0  501  503 -0.00000000000E+00 -0.00000000000E+00 -0.10664076634E+01  0.10664076634E+01  0.00000000000E+00 0.  1.
          5    1    1    2  501    0  0.10855667710E+02  0.18610878102E+01  0.47699218472E+02  0.49179412482E+02  0.47000000000E+01 0.  1.
         -5    1    1    2    0  502 -0.10855667710E+02 -0.18610878102E+01  0.10953768371E+03  0.11019030503E+03  0.47000000000E+01 0. -1.
<mgrwt>
<rscale>  2 0.11974939E+02</rscale>
<asrwt>0</asrwt>
<pdfrwt beam="1">  1       21 0.24354337E-01 0.11974939E+02</pdfrwt>
<pdfrwt beam="2">  1       21 0.16406284E-03 0.11974939E+02</pdfrwt>
<totfact> 0.47914478E+08</totfact>
</mgrwt>
</event>
<event>
 4    1  0.3989279E+006  0.8296222E+01  0.7546771E-02  0.2187270E+00
         21   -1    0    0  503  502  0.00000000000E+00  0.00000000000E+00  0.51999969791E+01  0.51999969791E+01  0.00000000000E+00 0. -1.
         21   -1    0    0  501  503 -0.00000000000E+00 -0.00000000000E+00 -0.14720826649E+02  0.14720826649E+02  0.00000000000E+00 0. -1.
          5    1    1    2  501    0 -0.40328373237E+01 -0.55202832077E+01 -0.15970809400E+01  0.84485484612E+01  0.47000000000E+01 0. -1.
         -5    1    1    2    0  502  0.40328373237E+01  0.55202832077E+01 -0.79237487303E+01  0.11472275167E+02  0.47000000000E+01 0. -1.
<mgrwt>
<rscale>  2 0.82962222E+01</rscale>
<asrwt>0</asrwt>
<pdfrwt beam="1">  1       21 0.79999953E-03 0.82962222E+01</pdfrwt>
<pdfrwt beam="2">  1       21 0.22647426E-02 0.82962222E+01</pdfrwt>
<totfact> 0.17225287E+09</totfact>
</mgrwt>
</event>
<event>
 4    1  0.3989279E+006  0.8397432E+01  0.7546771E-02  0.2179599E+00
         21   -1    0    0  501  502  0.00000000000E+00  0.00000000000E+00  0.18768245195E+00  0.18768245195E+00  0.00000000000E+00 0.  1.
         21   -1    0    0  502  503 -0.00000000000E+00 -0.00000000000E+00 -0.12474896986E+04  0.12474896986E+04  0.00000000000E+00 0.  1.
          5    1    1    2  501    0 -0.33323386232E+01 -0.61092048805E+01 -0.10215183215E+03  0.10249640812E+03  0.47000000000E+01 0.  1.
         -5    1    1    2    0  503  0.33323386232E+01  0.61092048805E+01 -0.11451501840E+04  0.11451809729E+04  0.47000000000E+01 0.  1.
<mgrwt>
<rscale>  2 0.83974320E+01</rscale>
<asrwt>0</asrwt>
<pdfrwt beam="1">  1       21 0.28874623E-04 0.83974320E+01</pdfrwt>
<pdfrwt beam="2">  1       21 0.19191884E+00 0.83974320E+01</pdfrwt>
<totfact> 0.75076670E+07</totfact>
</mgrwt>
</event>
<event>
 4    1  0.3989279E+006  0.8807424E+01  0.7546771E-02  0.2149974E+00
         21   -1    0    0  501  502  0.00000000000E+00  0.00000000000E+00  0.27049657266E+02  0.27049657266E+02  0.00000000000E+00 0. -1.
         21   -1    0    0  502  503 -0.00000000000E+00 -0.00000000000E+00 -0.85958716175E+01  0.85958716175E+01  0.00000000000E+00 0.  1.
          5    1    1    2  501    0  0.37967454745E+00  0.74388552977E+01  0.23776039782E+02  0.25354896738E+02  0.47000000000E+01 0. -1.
         -5    1    1    2    0  503 -0.37967454745E+00 -0.74388552977E+01 -0.53222541328E+01  0.10290632146E+02  0.47000000000E+01 0.  1.
<mgrwt>
<rscale>  2 0.88074242E+01</rscale>
<asrwt>0</asrwt>
<pdfrwt beam="1">  1       21 0.41614857E-02 0.88074242E+01</pdfrwt>
<pdfrwt beam="2">  1       21 0.13224418E-02 0.88074242E+01</pdfrwt>
<totfact> 0.35049514E+08</totfact>
</mgrwt>
</event>
<event>
 4    1  0.3989279E+006  0.1570800E+02  0.7546771E-02  0.1847202E+00
         21   -1    0    0  501  502  0.00000000000E+00  0.00000000000E+00  0.12602402707E+04  0.12602402707E+04  0.00000000000E+00 0. -1.
         21   -1    0    0  502  503 -0.00000000000E+00 -0.00000000000E+00 -0.61334315622E+00  0.61334315622E+00  0.00000000000E+00 0.  1.
          5    1    1    2  501    0 -0.12657230475E+02  0.80278082415E+01  0.11499762914E+04  0.11500835674E+04  0.47000000000E+01 0. -1.
         -5    1    1    2    0  503  0.12657230475E+02 -0.80278082415E+01  0.10965063619E+03  0.11077004652E+03  0.47000000000E+01 0.  1.
<mgrwt>
<rscale>  2 0.15707998E+02</rscale>
<asrwt>0</asrwt>
<pdfrwt beam="1">  1       21 0.19388105E+00 0.15707998E+02</pdfrwt>
<pdfrwt beam="2">  1       21 0.94361494E-04 0.15707998E+02</pdfrwt>
<totfact> 0.17164261E+07</totfact>
</mgrwt>
</event>
<event>
 4    1  0.3989279E+006  0.4967246E+01  0.7546771E-02  0.2572997E+00
         21   -1    0    0  503  502  0.00000000000E+00  0.00000000000E+00  0.37158389423E+01  0.37158389423E+01  0.00000000000E+00 0. -1.
         21   -1    0    0  501  503 -0.00000000000E+00 -0.00000000000E+00 -0.85146396371E+01  0.85146396371E+01  0.00000000000E+00 0. -1.
          5    1    1    2  501    0 -0.14051238623E+01  0.78048845227E+00 -0.52687128302E+01  0.72410544936E+01  0.47000000000E+01 0. -1.
         -5    1    1    2    0  502  0.14051238623E+01 -0.78048845227E+00  0.46991213549E+00  0.49894240858E+01  0.47000000000E+01 0. -1.
<mgrwt>
<rscale>  2 0.49672462E+01</rscale>
<asrwt>0</asrwt>
<pdfrwt beam="1">  1       21 0.57166754E-03 0.49672462E+01</pdfrwt>
<pdfrwt beam="2">  1       21 0.13099445E-02 0.49672462E+01</pdfrwt>
<totfact> 0.39193556E+09</totfact>
</mgrwt>
</event>
<event>
 4    1  0.3989279E+006  0.6257541E+01  0.7546771E-02  0.2383063E+00
         21   -1    0    0  503  502  0.00000000000E+00  0.00000000000E+00  0.12395410755E+01  0.12395410755E+01  0.00000000000E+00 0. -1.
         21   -1    0    0  501  503 -0.00000000000E+00 -0.00000000000E+00 -0.78231054459E+02  0.78231054459E+02  0.00000000000E+00 0. -1.
          5    1    1    2  501    0 -0.31336192864E+01 -0.26920721200E+01 -0.69176940562E+02  0.69459383295E+02  0.47000000000E+01 0. -1.
         -5    1    1    2    0  502  0.31336192864E+01  0.26920721200E+01 -0.78145728215E+01  0.10011212240E+02  0.47000000000E+01 0. -1.
<mgrwt>
<rscale>  2 0.62575412E+01</rscale>
<asrwt>0</asrwt>
<pdfrwt beam="1">  1       21 0.19069860E-03 0.62575412E+01</pdfrwt>
<pdfrwt beam="2">  1       21 0.12035549E-01 0.62575412E+01</pdfrwt>
<totfact> 0.83874307E+08</totfact>
</mgrwt>
</event>
<event>
 4    1  0.3989279E+006  0.5283701E+01  0.7546771E-02  0.2519159E+00
         21   -1    0    0  501  502  0.00000000000E+00  0.00000000000E+00  0.72075212169E+00  0.72075212169E+00  0.00000000000E+00 0. -1.
         21   -1    0    0  502  503 -0.00000000000E+00 -0.00000000000E+00 -0.40793930626E+02  0.40793930626E+02  0.00000000000E+00 0. -1.
          5    1    1    2  501    0 -0.63350323561E+00 -0.23294130602E+01 -0.15371951064E+02  0.16254672284E+02  0.47000000000E+01 0. -1.
         -5    1    1    2    0  503  0.63350323561E+00  0.23294130602E+01 -0.24701227441E+02  0.25260010464E+02  0.47000000000E+01 0. -1.
<mgrwt>
<rscale>  2 0.52837006E+01</rscale>
<asrwt>0</asrwt>
<pdfrwt beam="1">  1       21 0.11088496E-03 0.52837006E+01</pdfrwt>
<pdfrwt beam="2">  1       21 0.62759883E-02 0.52837006E+01</pdfrwt>
<totfact> 0.40496431E+09</totfact>
</mgrwt>
</event>
<event>
 4    1  0.3989279E+006  0.7589131E+01  0.7546771E-02  0.2245403E+00
         21   -1    0    0  503  502  0.00000000000E+00  0.00000000000E+00  0.11029705559E+02  0.11029705559E+02  0.00000000000E+00 0. -1.
         21   -1    0    0  501  503 -0.00000000000E+00 -0.00000000000E+00 -0.52328493457E+01  0.52328493457E+01  0.00000000000E+00 0.  1.
          5    1    1    2  501    0 -0.40667303705E+01  0.43550676249E+01  0.32720821110E+01  0.82644679965E+01  0.47000000000E+01 0.  1.
         -5    1    1    2    0  502  0.40667303705E+01 -0.43550676249E+01  0.25247741024E+01  0.79980869083E+01  0.47000000000E+01 0. -1.
<mgrwt>
<rscale>  2 0.75891310E+01</rscale>
<asrwt>0</asrwt>
<pdfrwt beam="1">  1       21 0.16968778E-02 0.75891310E+01</pdfrwt>
<pdfrwt beam="2">  1       21 0.80505375E-03 0.75891310E+01</pdfrwt>
<totfact> 0.24413484E+09</totfact>
</mgrwt>
</event>
<event>
 4    1  0.3989279E+006  0.5468280E+01  0.7546771E-02  0.2490233E+00
         21   -1    0    0  501  502  0.00000000000E+00  0.00000000000E+00  0.17877051459E+02  0.17877051459E+02  0.00000000000E+00 0. -1.
         21   -1    0    0  502  503 -0.00000000000E+00 -0.00000000000E+00 -0.58910520885E+01  0.58910520885E+01  0.00000000000E+00 0. -1.
          5    1    1    2  501    0  0.73881139903E+00 -0.26955978995E+01  0.16049386610E+02  0.16955379703E+02  0.47000000000E+01 0. -1.
         -5    1    1    2    0  503 -0.73881139903E+00  0.26955978995E+01 -0.40633872396E+01  0.68127238443E+01  0.47000000000E+01 0. -1.
<mgrwt>
<rscale>  2 0.54682804E+01</rscale>
<asrwt>0</asrwt>
<pdfrwt beam="1">  1       21 0.27503156E-02 0.54682804E+01</pdfrwt>
<pdfrwt beam="2">  1       21 0.90631571E-03 0.54682804E+01</pdfrwt>
<totfact> 0.79085269E+08</totfact>
</mgrwt>
</event>
<event>
 4    1  0.3989279E+006  0.5428599E+01  0.7546771E-02  0.2496310E+00
         21   -1    0    0  503  502  0.00000000000E+00  0.00000000000E+00  0.54333875206E+01  0.54333875206E+01  0.00000000000E+00 0. -1.
         21   -1    0    0  501  503 -0.00000000000E+00 -0.00000000000E+00 -0.68185993576E+01  0.68185993576E+01  0.00000000000E+00 0.  1.
          5    1    1    2  501    0  0.18392278475E+01 -0.19992321679E+01 -0.34632611426E+01  0.64392442164E+01  0.47000000000E+01 0. -1.
         -5    1    1    2    0  502 -0.18392278475E+01  0.19992321679E+01  0.20780493057E+01  0.58127426619E+01  0.47000000000E+01 0. -1.
<mgrwt>
<rscale>  2 0.54285991E+01</rscale>
<asrwt>0</asrwt>
<pdfrwt beam="1">  1       21 0.83590577E-03 0.54285991E+01</pdfrwt>
<pdfrwt beam="2">  1       21 0.10490153E-02 0.54285991E+01</pdfrwt>
<totfact> 0.34610695E+09</totfact>
</mgrwt>
</event>
<event>
 4    1  0.3989279E+006  0.6256731E+01  0.7546771E-02  0.2383161E+00
         21   -1    0    0  503  502  0.00000000000E+00  0.00000000000E+00  0.81019707209E+00  0.81019707209E+00  0.00000000000E+00 0.  1.
         21   -1    0    0  501  503 -0.00000000000E+00 -0.00000000000E+00 -0.50173159155E+02  0.50173159155E+02  0.00000000000E+00 0. -1.
          5    1    1    2  501    0  0.34510302078E+01  0.22687164199E+01 -0.19779024713E+02  0.20745035606E+02  0.47000000000E+01 0.  1.
         -5    1    1    2    0  502 -0.34510302078E+01 -0.22687164199E+01 -0.29583937370E+02  0.30238320622E+02  0.47000000000E+01 0.  1.
<mgrwt>
<rscale>  2 0.62567311E+01</rscale>
<asrwt>0</asrwt>
<pdfrwt beam="1">  1       21 0.12464572E-03 0.62567311E+01</pdfrwt>
<pdfrwt beam="2">  1       21 0.77189468E-02 0.62567311E+01</pdfrwt>
<totfact> 0.29557658E+09</totfact>
</mgrwt>
</event>
<event>
 4    1  0.3989279E+006  0.5088295E+01  0.7546771E-02  0.2551725E+00
         21   -1    0    0  503  502  0.00000000000E+00  0.00000000000E+00  0.53439644823E+02  0.53439644823E+02  0.00000000000E+00 0. -1.
         21   -1    0    0  501  503 -0.00000000000E+00 -0.00000000000E+00 -0.72510546318E+01  0.72510546318E+01  0.00000000000E+00 0.  1.
          5    1    1    2  501    0  0.82575366567E+00  0.17660343533E+01 -0.62197540749E+01  0.80359247884E+01  0.47000000000E+01 0.  1.
         -5    1    1    2    0  502 -0.82575366567E+00 -0.17660343533E+01  0.52408344266E+02  0.52654774666E+02  0.47000000000E+01 0. -1.
<mgrwt>
<rscale>  2 0.50882950E+01</rscale>
<asrwt>0</asrwt>
<pdfrwt beam="1">  1       21 0.82214836E-02 0.50882950E+01</pdfrwt>
<pdfrwt beam="2">  1       21 0.11155469E-02 0.50882950E+01</pdfrwt>
<totfact> 0.11178754E+08</totfact>
</mgrwt>
</event>
<event>
 4    1  0.3989279E+006  0.4912047E+01  0.7546771E-02  0.2582997E+00
         21   -1    0    0  503  502  0.00000000000E+00  0.00000000000E+00  0.69154520150E+02  0.69154520150E+02  0.00000000000E+00 0. -1.
         21   -1    0    0  501  503 -0.00000000000E+00 -0.00000000000E+00 -0.58713001452E+00  0.58713001452E+00  0.00000000000E+00 0. -1.
          5    1    1    2  501    0  0.17237034201E+00 -0.14172151644E+01  0.12071539456E+02  0.13032661861E+02  0.47000000000E+01 0. -1.
         -5    1    1    2    0  502 -0.17237034201E+00  0.14172151644E+01  0.56495850680E+02  0.56708988304E+02  0.47000000000E+01 0. -1.
<mgrwt>
<rscale>  2 0.49120475E+01</rscale>
<asrwt>0</asrwt>
<pdfrwt beam="1">  1       21 0.10639150E-01 0.49120475E+01</pdfrwt>
<pdfrwt beam="2">  1       21 0.90327749E-04 0.49120475E+01</pdfrwt>
<totfact> 0.22442915E+09</totfact>
</mgrwt>
</event>
<event>
 4    1  0.3989279E+006  0.8221020E+01  0.7546771E-02  0.2193068E+00
         21   -1    0    0  501  502  0.00000000000E+00  0.00000000000E+00  0.35889033394E+03  0.35889033394E+03  0.00000000000E+00 0. -1.
         21   -1    0    0  502  503 -0.00000000000E+00 -0.00000000000E+00 -0.32221388659E+00  0.32221388659E+00  0.00000000000E+00 0. -1.
          5    1    1    2  501    0  0.48536576260E+01  0.46837147377E+01  0.29506431522E+03  0.29517881918E+03  0.47000000000E+01 0. -1.
         -5    1    1    2    0  503 -0.48536576260E+01 -0.46837147377E+01  0.63503804828E+02  0.64033728641E+02  0.47000000000E+01 0. -1.
<mgrwt>
<rscale>  2 0.82210204E+01</rscale>
<asrwt>0</asrwt>
<pdfrwt beam="1">  1       21 0.55213578E-01 0.82210204E+01</pdfrwt>
<pdfrwt beam="2">  1       21 0.49571654E-04 0.82210204E+01</pdfrwt>
<totfact> 0.47627924E+08</totfact>
</mgrwt>
</event>
<event>
 4    1  0.3989279E+006  0.6840031E+01  0.7546771E-02  0.2317429E+00
         21   -1    0    0  503  502  0.00000000000E+00  0.00000000000E+00  0.12426215723E+03  0.12426215723E+03  0.00000000000E+00 0.  1.
         21   -1    0    0  501  503 -0.00000000000E+00 -0.00000000000E+00 -0.17891936886E+01  0.17891936886E+01  0.00000000000E+00 0.  1.
          5    1    1    2  501    0  0.43527465507E+01 -0.23978377429E+01  0.52334946858E+01  0.86125196663E+01  0.47000000000E+01 0.  1.
         -5    1    1    2    0  502 -0.43527465507E+01  0.23978377429E+01  0.11723946886E+03  0.11743883125E+03  0.47000000000E+01 0.  1.
<mgrwt>
<rscale>  2 0.68400313E+01</rscale>
<asrwt>0</asrwt>
<pdfrwt beam="1">  1       21 0.19117248E-01 0.68400313E+01</pdfrwt>
<pdfrwt beam="2">  1       21 0.27526066E-03 0.68400313E+01</pdfrwt>
<totfact> 0.25835315E+08</totfact>
</mgrwt>
</event>
<event>
 4    1  0.3989279E+006  0.1098447E+02  0.7546771E-02  0.2022940E+00
         21   -1    0    0  503  502  0.00000000000E+00  0.00000000000E+00  0.10453470941E+02  0.10453470941E+02  0.00000000000E+00 0.  1.
         21   -1    0    0  501  503 -0.00000000000E+00 -0.00000000000E+00 -0.12172526340E+02  0.12172526340E+02  0.00000000000E+00 0.  1.
          5    1    1    2  501    0 -0.68767247545E+01  0.71609532978E+01 -0.34333957147E+01  0.11508553411E+02  0.47000000000E+01 0.  1.
         -5    1    1    2    0  502  0.68767247545E+01 -0.71609532978E+01  0.17143403149E+01  0.11117443870E+02  0.47000000000E+01 0.  1.
<mgrwt>
<rscale>  2 0.10984471E+02</rscale>
<asrwt>0</asrwt>
<pdfrwt beam="1">  1       21 0.16082263E-02 0.10984471E+02</pdfrwt>
<pdfrwt beam="2">  1       21 0.18726964E-02 0.10984471E+02</pdfrwt>
<totfact> 0.98383338E+08</totfact>
</mgrwt>
</event>
<event>
 4    1  0.3989279E+006  0.4740133E+01  0.7546771E-02  0.2615427E+00
         21   -1    0    0  503  502  0.00000000000E+00  0.00000000000E+00  0.29042963966E+01  0.29042963966E+01  0.00000000000E+00 0.  1.
         21   -1    0    0  501  503 -0.00000000000E+00 -0.00000000000E+00 -0.97026397306E+01  0.97026397306E+01  0.00000000000E+00 0.  1.
          5    1    1    2  501    0 -0.52356197993E+00 -0.32364212398E+00 -0.62367669419E+01  0.78336532511E+01  0.47000000000E+01 0.  1.
         -5    1    1    2    0  502  0.52356197993E+00  0.32364212398E+00 -0.56157639205E+00  0.47732828761E+01  0.47000000000E+01 0.  1.
<mgrwt>
<rscale>  2 0.47401331E+01</rscale>
<asrwt>0</asrwt>
<pdfrwt beam="1">  1       21 0.44681482E-03 0.47401331E+01</pdfrwt>
<pdfrwt beam="2">  1       21 0.14927138E-02 0.47401331E+01</pdfrwt>
<totfact> 0.43512955E+09</totfact>
</mgrwt>
</event>
<event>
 4    1  0.3989279E+006  0.5080548E+01  0.7546771E-02  0.2553060E+00
         21   -1    0    0  501  502  0.00000000000E+00  0.00000000000E+00  0.63425943628E+00  0.63425943628E+00  0.00000000000E+00 0. -1.
         21   -1    0    0  502  503 -0.00000000000E+00 -0.00000000000E+00 -0.49323225615E+02  0.49323225615E+02  0.00000000000E+00 0. -1.
          5    1    1    2  501    0  0.17643524176E+00  0.19211567794E+01 -0.13897895941E+02  0.14797414787E+02  0.47000000000E+01 0. -1.
         -5    1    1    2    0  503 -0.17643524176E+00 -0.19211567794E+01 -0.34791070237E+02  0.35160070264E+02  0.47000000000E+01 0. -1.
<mgrwt>
<rscale>  2 0.50805485E+01</rscale>
<asrwt>0</asrwt>
<pdfrwt beam="1">  1       21 0.97578355E-04 0.50805485E+01</pdfrwt>
<pdfrwt beam="2">  1       21 0.75881901E-02 0.50805485E+01</pdfrwt>
<totfact> 0.34817156E+09</totfact>
</mgrwt>
</event>
<event>
 4    1  0.3989279E+006  0.6974252E+01  0.7546771E-02  0.2303597E+00
         21   -1    0    0  503  502  0.00000000000E+00  0.00000000000E+00  0.14326231636E+04  0.14326231636E+04  0.00000000000E+00 0.  1.
         21   -1    0    0  501  503 -0.00000000000E+00 -0.00000000000E+00 -0.42024468658E-01  0.42024468658E-01  0.00000000000E+00 0.  1.
          5    1    1    2  501    0  0.25775229590E+01 -0.44616775958E+01  0.40233289710E+03  0.40239334025E+03  0.47000000000E+01 0.  1.
         -5    1    1    2    0  502 -0.25775229590E+01  0.44616775958E+01  0.10302482420E+04  0.10302718478E+04  0.47000000000E+01 0.  1.
<mgrwt>
<rscale>  2 0.69742520E+01</rscale>
<asrwt>0</asrwt>
<pdfrwt beam="1">  1       21 0.22036445E+00 0.69742520E+01</pdfrwt>
<pdfrwt beam="2">  1       21 0.64664503E-05 0.69742520E+01</pdfrwt>
<totfact> 0.37544430E+08</totfact>
</mgrwt>
</event>
<event>
 4    1  0.3989279E+006  0.6545078E+01  0.7546771E-02  0.2349456E+00
         21   -1    0    0  503  502  0.00000000000E+00  0.00000000000E+00  0.22365745820E+01  0.22365745820E+01  0.00000000000E+00 0. -1.
         21   -1    0    0  501  503 -0.00000000000E+00 -0.00000000000E+00 -0.91086476682E+02  0.91086476682E+02  0.00000000000E+00 0. -1.
          5    1    1    2  501    0  0.10232558497E+01 -0.44385801179E+01 -0.85891343032E+02  0.86140355547E+02  0.47000000000E+01 0. -1.
         -5    1    1    2    0  502 -0.10232558497E+01  0.44385801179E+01 -0.29585590680E+01  0.71826957165E+01  0.47000000000E+01 0. -1.
<mgrwt>
<rscale>  2 0.65450780E+01</rscale>
<asrwt>0</asrwt>
<pdfrwt beam="1">  1       21 0.34408843E-03 0.65450780E+01</pdfrwt>
<pdfrwt beam="2">  1       21 0.14013303E-01 0.65450780E+01</pdfrwt>
<totfact> 0.30335171E+08</totfact>
</mgrwt>
</event>
<event>
 4    1  0.3989279E+006  0.4869820E+01  0.7546771E-02  0.2590779E+00
         21   -1    0    0  501  502  0.00000000000E+00  0.00000000000E+00  0.52765215992E+03  0.52765215992E+03  0.00000000000E+00 0.  1.
         21   -1    0    0  502  503 -0.00000000000E+00 -0.00000000000E+00 -0.51771820596E-01  0.51771820596E-01  0.00000000000E+00 0.  1.
          5    1    1    2  501    0  0.11671652879E+01 -0.51271008345E+00  0.35961523826E+03  0.35964820970E+03  0.47000000000E+01 0.  1.
         -5    1    1    2    0  503 -0.11671652879E+01  0.51271008345E+00  0.16798514983E+03  0.16805572204E+03  0.47000000000E+01 0.  1.
<mgrwt>
<rscale>  2 0.48698200E+01</rscale>
<asrwt>0</asrwt>
<pdfrwt beam="1">  1       21 0.81172949E-01 0.48698200E+01</pdfrwt>
<pdfrwt beam="2">  1       21 0.79653181E-05 0.48698200E+01</pdfrwt>
<totfact> 0.18458061E+09</totfact>
</mgrwt>
</event>
<event>
 4    1  0.3989279E+006  0.7162816E+01  0.7546771E-02  0.2284886E+00
         21   -1    0    0  501  502  0.00000000000E+00  0.00000000000E+00  0.64249691457E-01  0.64249691457E-01  0.00000000000E+00 0.  1.
         21   -1    0    0  502  503 -0.00000000000E+00 -0.00000000000E+00 -0.14812452096E+04  0.14812452096E+04  0.00000000000E+00 0. -1.
          5    1    1    2  501    0  0.52757616234E+01  0.11756988246E+01 -0.23776297083E+03  0.23787083937E+03  0.47000000000E+01 0.  1.
         -5    1    1    2    0  503 -0.52757616234E+01 -0.11756988246E+01 -0.12434179891E+04  0.12434386199E+04  0.47000000000E+01 0. -1.
<mgrwt>
<rscale>  2 0.71628157E+01</rscale>
<asrwt>0</asrwt>
<pdfrwt beam="1">  1       21 0.98847925E-05 0.71628157E+01</pdfrwt>
<pdfrwt beam="2">  1       21 0.22787870E+00 0.71628157E+01</pdfrwt>
<totfact> 0.19890533E+08</totfact>
</mgrwt>
</event>
<event>
 4    1  0.3989279E+006  0.5779793E+01  0.7546771E-02  0.2444996E+00
         21   -1    0    0  501  502  0.00000000000E+00  0.00000000000E+00  0.32064783357E-01  0.32064783357E-01  0.00000000000E+00 0. -1.
         21   -1    0    0  502  503 -0.00000000000E+00 -0.00000000000E+00 -0.16959990056E+04  0.16959990056E+04  0.00000000000E+00 0. -1.
          5    1    1    2  501    0 -0.18797486035E+01 -0.27897219939E+01 -0.32131598516E+03  0.32136796406E+03  0.47000000000E+01 0. -1.
         -5    1    1    2    0  503  0.18797486035E+01  0.27897219939E+01 -0.13746509556E+04  0.13746631063E+04  0.47000000000E+01 0. -1.
<mgrwt>
<rscale>  2 0.57797927E+01</rscale>
<asrwt>0</asrwt>
<pdfrwt beam="1">  1       21 0.49324306E-05 0.57797927E+01</pdfrwt>
<pdfrwt beam="2">  1       21 0.26095535E+00 0.57797927E+01</pdfrwt>
<totfact> 0.33235523E+08</totfact>
</mgrwt>
</event>
<event>
 4    1  0.3989279E+006  0.5503936E+01  0.7546771E-02  0.2484836E+00
         21   -1    0    0  503  502  0.00000000000E+00  0.00000000000E+00  0.13028242806E+01  0.13028242806E+01  0.00000000000E+00 0.  1.
         21   -1    0    0  501  503 -0.00000000000E+00 -0.00000000000E+00 -0.13618607234E+03  0.13618607234E+03  0.00000000000E+00 0. -1.
          5    1    1    2  501    0 -0.68154613777E+00  0.27818715976E+01 -0.13004297595E+03  0.13015939808E+03  0.47000000000E+01 0. -1.
         -5    1    1    2    0  502  0.68154613777E+00 -0.27818715976E+01 -0.48402721026E+01  0.73294985334E+01  0.47000000000E+01 0.  1.
<mgrwt>
<rscale>  2 0.55039363E+01</rscale>
<asrwt>0</asrwt>
<pdfrwt beam="1">  1       21 0.20043447E-03 0.55039363E+01</pdfrwt>
<pdfrwt beam="2">  1       21 0.20951707E-01 0.55039363E+01</pdfrwt>
<totfact> 0.29617180E+08</totfact>
</mgrwt>
</event>
<event>
 4    1  0.3989279E+006  0.7059252E+01  0.7546771E-02  0.2295061E+00
         21   -1    0    0  503  502  0.00000000000E+00  0.00000000000E+00  0.12891804087E+03  0.12891804087E+03  0.00000000000E+00 0. -1.
         21   -1    0    0  501  503 -0.00000000000E+00 -0.00000000000E+00 -0.39636912776E+00  0.39636912776E+00  0.00000000000E+00 0. -1.
          5    1    1    2  501    0  0.47637028420E+01  0.22472590861E+01  0.74438380465E+02  0.74772358023E+02  0.47000000000E+01 0. -1.
         -5    1    1    2    0  502 -0.47637028420E+01 -0.22472590861E+01  0.54083291278E+02  0.54542051975E+02  0.47000000000E+01 0. -1.
<mgrwt>
<rscale>  2 0.70592520E+01</rscale>
<asrwt>0</asrwt>
<pdfrwt beam="1">  1       21 0.19833511E-01 0.70592520E+01</pdfrwt>
<pdfrwt beam="2">  1       21 0.60979968E-04 0.70592520E+01</pdfrwt>
<totfact> 0.19367528E+09</totfact>
</mgrwt>
</event>
<event>
 4    1  0.3989279E+006  0.1149034E+02  0.7546771E-02  0.1998932E+00
         21   -1    0    0  503  502  0.00000000000E+00  0.00000000000E+00  0.22242476433E+01  0.22242476433E+01  0.00000000000E+00 0.  1.
         21   -1    0    0  501  503 -0.00000000000E+00 -0.00000000000E+00 -0.82242058738E+02  0.82242058738E+02  0.00000000000E+00 0. -1.
          5    1    1    2  501    0 -0.98029507606E+01  0.37202113840E+01 -0.62286541505E+02  0.63337517073E+02  0.47000000000E+01 0. -1.
         -5    1    1    2    0  502  0.98029507606E+01 -0.37202113840E+01 -0.17731269589E+02  0.21128789308E+02  0.47000000000E+01 0.  1.
<mgrwt>
<rscale>  2 0.11490336E+02</rscale>
<asrwt>0</asrwt>
<pdfrwt beam="1">  1       21 0.34219195E-03 0.11490336E+02</pdfrwt>
<pdfrwt beam="2">  1       21 0.12652624E-01 0.11490336E+02</pdfrwt>
<totfact> 0.49664652E+08</totfact>
</mgrwt>
</event>
<event>
 4    1  0.3989279E+006  0.5942273E+01  0.7546771E-02  0.2422998E+00
         21   -1    0    0  503  502  0.00000000000E+00  0.00000000000E+00  0.20275526097E+01  0.20275526097E+01  0.00000000000E+00 0. -1.
         21   -1    0    0  501  503 -0.00000000000E+00 -0.00000000000E+00 -0.37019587705E+02  0.37019587705E+02  0.00000000000E+00 0.  1.
          5    1    1    2  501    0  0.26001620932E+01 -0.25416057659E+01 -0.31703531017E+02  0.32255611631E+02  0.47000000000E+01 0.  1.
         -5    1    1    2    0  502 -0.26001620932E+01  0.25416057659E+01 -0.32885040781E+01  0.67915286830E+01  0.47000000000E+01 0. -1.
<mgrwt>
<rscale>  2 0.59422725E+01</rscale>
<asrwt>0</asrwt>
<pdfrwt beam="1">  1       21 0.31193119E-03 0.59422725E+01</pdfrwt>
<pdfrwt beam="2">  1       21 0.56953208E-02 0.59422725E+01</pdfrwt>
<totfact> 0.12817396E+09</totfact>
</mgrwt>
</event>
<event>
 4    1  0.3989279E+006  0.6397990E+01  0.7546771E-02  0.2366334E+00
         21   -1    0    0  501  502  0.00000000000E+00  0.00000000000E+00  0.60593441154E+02  0.60593441154E+02  0.00000000000E+00 0. -1.
         21   -1    0    0  502  503 -0.00000000000E+00 -0.00000000000E+00 -0.70220774520E+00  0.70220774520E+00  0.00000000000E+00 0.  1.
          5    1    1    2  501    0 -0.29287481572E+01 -0.32041698935E+01  0.35916363151E+02  0.36481768220E+02  0.47000000000E+01 0. -1.
         -5    1    1    2    0  503  0.29287481572E+01  0.32041698935E+01  0.23974870258E+02  0.24813880679E+02  0.47000000000E+01 0.  1.
<mgrwt>
<rscale>  2 0.63979896E+01</rscale>
<asrwt>0</asrwt>
<pdfrwt beam="1">  1       21 0.93220638E-02 0.63979896E+01</pdfrwt>
<pdfrwt beam="2">  1       21 0.10803201E-03 0.63979896E+01</pdfrwt>
<totfact> 0.27389223E+09</totfact>
</mgrwt>
</event>
<event>
 4    1  0.3989279E+006  0.6226129E+01  0.7546771E-02  0.2386890E+00
         21   -1    0    0  503  502  0.00000000000E+00  0.00000000000E+00  0.42904061843E+03  0.42904061843E+03  0.00000000000E+00 0. -1.
         21   -1    0    0  501  503 -0.00000000000E+00 -0.00000000000E+00 -0.11480103540E+00  0.11480103540E+00  0.00000000000E+00 0.  1.
          5    1    1    2  501    0  0.19593133983E+01  0.35827044687E+01  0.11543844040E+03  0.11560622043E+03  0.47000000000E+01 0. -1.
         -5    1    1    2    0  502 -0.19593133983E+01 -0.35827044687E+01  0.31348737700E+03  0.31354919904E+03  0.47000000000E+01 0. -1.
<mgrwt>
<rscale>  2 0.62261288E+01</rscale>
<asrwt>0</asrwt>
<pdfrwt beam="1">  1       21 0.66004965E-01 0.62261288E+01</pdfrwt>
<pdfrwt beam="2">  1       21 0.17662041E-04 0.62261288E+01</pdfrwt>
<totfact> 0.11465840E+09</totfact>
</mgrwt>
</event>
<event>
 4    1  0.3989279E+006  0.7143330E+01  0.7546771E-02  0.2286782E+00
         21   -1    0    0  503  502  0.00000000000E+00  0.00000000000E+00  0.15011184482E+02  0.15011184482E+02  0.00000000000E+00 0. -1.
         21   -1    0    0  501  503 -0.00000000000E+00 -0.00000000000E+00 -0.33860692958E+02  0.33860692958E+02  0.00000000000E+00 0. -1.
          5    1    1    2  501    0 -0.23625577526E+01 -0.48327511927E+01 -0.32601697373E+02  0.33375108013E+02  0.47000000000E+01 0. -1.
         -5    1    1    2    0  502  0.23625577526E+01  0.48327511927E+01  0.13752188897E+02  0.15496769427E+02  0.47000000000E+01 0. -1.
<mgrwt>
<rscale>  2 0.71433300E+01</rscale>
<asrwt>0</asrwt>
<pdfrwt beam="1">  1       21 0.23094130E-02 0.71433300E+01</pdfrwt>
<pdfrwt beam="2">  1       21 0.52093373E-02 0.71433300E+01</pdfrwt>
<totfact> 0.98344541E+07</totfact>
</mgrwt>
</event>
<event>
 4    1  0.3989279E+006  0.5860545E+01  0.7546771E-02  0.2433935E+00
         21   -1    0    0  503  502  0.00000000000E+00  0.00000000000E+00  0.34205322620E+01  0.34205322620E+01  0.00000000000E+00 0.  1.
         21   -1    0    0  501  503 -0.00000000000E+00 -0.00000000000E+00 -0.14672219376E+02  0.14672219376E+02  0.00000000000E+00 0. -1.
          5    1    1    2  501    0  0.18908396738E+01  0.29463041912E+01 -0.10708241405E+02  0.12207064228E+02  0.47000000000E+01 0. -1.
         -5    1    1    2    0  502 -0.18908396738E+01 -0.29463041912E+01 -0.54344570897E+00  0.58856874108E+01  0.47000000000E+01 0.  1.
<mgrwt>
<rscale>  2 0.58605446E+01</rscale>
<asrwt>0</asrwt>
<pdfrwt beam="1">  1       21 0.52623573E-03 0.58605446E+01</pdfrwt>
<pdfrwt beam="2">  1       21 0.22572645E-02 0.58605446E+01</pdfrwt>
<totfact> 0.23808192E+09</totfact>
</mgrwt>
</event>
<event>
 4    1  0.3989279E+006  0.4833276E+01  0.7546771E-02  0.2597608E+00
         21   -1    0    0  501  502  0.00000000000E+00  0.00000000000E+00  0.53064359414E+01  0.53064359414E+01  0.00000000000E+00 0.  1.
         21   -1    0    0  502  503 -0.00000000000E+00 -0.00000000000E+00 -0.96568953920E+01  0.96568953920E+01  0.00000000000E+00 0. -1.
          5    1    1    2  501    0 -0.11270281555E+01  0.19141976745E-01  0.33436241338E+01  0.58771065353E+01  0.47000000000E+01 0.  1.
         -5    1    1    2    0  503  0.11270281555E+01 -0.19141976745E-01 -0.76940835844E+01  0.90862247981E+01  0.47000000000E+01 0. -1.
<mgrwt>
<rscale>  2 0.48332762E+01</rscale>
<asrwt>0</asrwt>
<pdfrwt beam="1">  1       21 0.81637477E-03 0.48332762E+01</pdfrwt>
<pdfrwt beam="2">  1       21 0.14856762E-02 0.48332762E+01</pdfrwt>
<totfact> 0.19520037E+09</totfact>
</mgrwt>
</event>
<event>
 4    1  0.3989279E+006  0.4935875E+01  0.7546771E-02  0.2578657E+00
         21   -1    0    0  503  502  0.00000000000E+00  0.00000000000E+00  0.18878405603E+02  0.18878405603E+02  0.00000000000E+00 0.  1.
         21   -1    0    0  501  503 -0.00000000000E+00 -0.00000000000E+00 -0.12953598597E+01  0.12953598597E+01  0.00000000000E+00 0.  1.
          5    1    1    2  501    0  0.12764576217E+01 -0.80219264290E+00  0.94084339382E+01  0.10624569933E+02  0.47000000000E+01 0.  1.
         -5    1    1    2    0  502 -0.12764576217E+01  0.80219264290E+00  0.81746118056E+01  0.95491955299E+01  0.47000000000E+01 0.  1.
<mgrwt>
<rscale>  2 0.49358745E+01</rscale>
<asrwt>0</asrwt>
<pdfrwt beam="1">  1       21 0.29043699E-02 0.49358745E+01</pdfrwt>
<pdfrwt beam="2">  1       21 0.19928615E-03 0.49358745E+01</pdfrwt>
<totfact> 0.52863047E+09</totfact>
</mgrwt>
</event>
<event>
 4    1  0.3989279E+006  0.5818445E+01  0.7546771E-02  0.2439670E+00
         21   -1    0    0  501  502  0.00000000000E+00  0.00000000000E+00  0.25486218782E+00  0.25486218782E+00  0.00000000000E+00 0. -1.
         21   -1    0    0  502  503 -0.00000000000E+00 -0.00000000000E+00 -0.17197829646E+03  0.17197829646E+03  0.00000000000E+00 0. -1.
          5    1    1    2  501    0  0.16381133645E+01 -0.30134502018E+01 -0.44776495011E+02  0.45152948996E+02  0.47000000000E+01 0. -1.
         -5    1    1    2    0  503 -0.16381133645E+01  0.30134502018E+01 -0.12694693926E+03  0.12708020965E+03  0.47000000000E+01 0. -1.
<mgrwt>
<rscale>  2 0.58184446E+01</rscale>
<asrwt>0</asrwt>
<pdfrwt beam="1">  1       21 0.39209611E-04 0.58184446E+01</pdfrwt>
<pdfrwt beam="2">  1       21 0.26458170E-01 0.58184446E+01</pdfrwt>
<totfact> 0.18800411E+09</totfact>
</mgrwt>
</event>
<event>
 4    1  0.3989279E+006  0.5308123E+01  0.7546771E-02  0.2515234E+00
         21   -1    0    0  503  502  0.00000000000E+00  0.00000000000E+00  0.20991837083E+02  0.20991837083E+02  0.00000000000E+00 0. -1.
         21   -1    0    0  501  503 -0.00000000000E+00 -0.00000000000E+00 -0.22708867255E+01  0.22708867255E+01  0.00000000000E+00 0. -1.
          5    1    1    2  501    0 -0.72707067166E+00 -0.23574424421E+01  0.19224580902E+01  0.56455302442E+01  0.47000000000E+01 0. -1.
         -5    1    1    2    0  502  0.72707067166E+00  0.23574424421E+01  0.16798492267E+02  0.17617193564E+02  0.47000000000E+01 0. -1.
<mgrwt>
<rscale>  2 0.53081227E+01</rscale>
<asrwt>0</asrwt>
<pdfrwt beam="1">  1       21 0.32295133E-02 0.53081227E+01</pdfrwt>
<pdfrwt beam="2">  1       21 0.34936720E-03 0.53081227E+01</pdfrwt>
<totfact> 0.22823522E+09</totfact>
</mgrwt>
</event>
<event>
 4    1  0.3989279E+006  0.5765146E+01  0.7546771E-02  0.2447030E+00
         21   -1    0    0  501  502  0.00000000000E+00  0.00000000000E+00  0.26999680050E+00  0.26999680050E+00  0.00000000000E+00 0.  1.
         21   -1    0    0  502  503 -0.00000000000E+00 -0.00000000000E+00 -0.17877975618E+03  0.17877975618E+03  0.00000000000E+00 0.  1.
          5    1    1    2  501    0  0.27886483767E+01  0.18358513547E+01 -0.39294142948E+02  0.39714815623E+02  0.47000000000E+01 0.  1.
         -5    1    1    2    0  503 -0.27886483767E+01 -0.18358513547E+01 -0.13921561643E+03  0.13933493735E+03  0.47000000000E+01 0.  1.
<mgrwt>
<rscale>  2 0.57651461E+01</rscale>
<asrwt>0</asrwt>
<pdfrwt beam="1">  1       21 0.41537992E-04 0.57651461E+01</pdfrwt>
<pdfrwt beam="2">  1       21 0.27504563E-01 0.57651461E+01</pdfrwt>
<totfact> 0.16202018E+09</totfact>
</mgrwt>
</event>
<event>
 4    1  0.3989279E+006  0.4785937E+01  0.7546771E-02  0.2606589E+00
         21   -1    0    0  503  502  0.00000000000E+00  0.00000000000E+00  0.55364352160E+01  0.55364352160E+01  0.00000000000E+00 0. -1.
         21   -1    0    0  501  503 -0.00000000000E+00 -0.00000000000E+00 -0.84381074007E+02  0.84381074007E+02  0.00000000000E+00 0. -1.
          5    1    1    2  501    0  0.69739369782E+00  0.57344209457E+00 -0.83265066973E+02  0.83402497396E+02  0.47000000000E+01 0. -1.
         -5    1    1    2    0  502 -0.69739369782E+00 -0.57344209457E+00  0.44204281816E+01  0.65150118277E+01  0.47000000000E+01 0. -1.
<mgrwt>
<rscale>  2 0.47859371E+01</rscale>
<asrwt>0</asrwt>
<pdfrwt beam="1">  1       21 0.85175927E-03 0.47859371E+01</pdfrwt>
<pdfrwt beam="2">  1       21 0.12981704E-01 0.47859371E+01</pdfrwt>
<totfact> 0.77735226E+07</totfact>
</mgrwt>
</event>
<event>
 4    1  0.3989279E+006  0.6023256E+01  0.7546771E-02  0.2412407E+00
         21   -1    0    0  503  502  0.00000000000E+00  0.00000000000E+00  0.19776590379E-01  0.19776590379E-01  0.00000000000E+00 0.  1.
         21   -1    0    0  501  503 -0.00000000000E+00 -0.00000000000E+00 -0.18640561144E+04  0.18640561144E+04  0.00000000000E+00 0.  1.
          5    1    1    2  501    0  0.36475288028E+01  0.94082388978E+00 -0.81460198787E+03  0.81462425588E+03  0.47000000000E+01 0.  1.
         -5    1    1    2    0  502 -0.36475288028E+01 -0.94082388978E+00 -0.10494343499E+04  0.10494516351E+04  0.47000000000E+01 0.  1.
<mgrwt>
<rscale>  2 0.60232563E+01</rscale>
<asrwt>0</asrwt>
<pdfrwt beam="1">  1       21 0.30436166E-05 0.60232563E+01</pdfrwt>
<pdfrwt beam="2">  1       21 0.28667759E+00 0.60232563E+01</pdfrwt>
<totfact> 0.51860737E+08</totfact>
</mgrwt>
</event>
<event>
 4    1  0.3989279E+006  0.6341362E+01  0.7546771E-02  0.2373005E+00
         21   -1    0    0  503  502  0.00000000000E+00  0.00000000000E+00  0.25340633338E+03  0.25340633338E+03  0.00000000000E+00 0.  1.
         21   -1    0    0  501  503 -0.00000000000E+00 -0.00000000000E+00 -0.16263295903E+00  0.16263295903E+00  0.00000000000E+00 0.  1.
          5    1    1    2  501    0 -0.70645342280E+00 -0.41980705598E+01  0.10687891707E+03  0.10706687530E+03  0.47000000000E+01 0.  1.
         -5    1    1    2    0  502  0.70645342280E+00  0.41980705598E+01  0.14636478336E+03  0.14650209105E+03  0.47000000000E+01 0.  1.
<mgrwt>
<rscale>  2 0.63413621E+01</rscale>
<asrwt>0</asrwt>
<pdfrwt beam="1">  1       21 0.38985274E-01 0.63413621E+01</pdfrwt>
<pdfrwt beam="2">  1       21 0.25020658E-04 0.63413621E+01</pdfrwt>
<totfact> 0.18954906E+09</totfact>
</mgrwt>
</event>
<event>
 4    1  0.3989279E+006  0.7163107E+01  0.7546771E-02  0.2284858E+00
         21   -1    0    0  501  502  0.00000000000E+00  0.00000000000E+00  0.10534931247E+03  0.10534931247E+03  0.00000000000E+00 0. -1.
         21   -1    0    0  502  503 -0.00000000000E+00 -0.00000000000E+00 -0.82047599917E+00  0.82047599917E+00  0.00000000000E+00 0. -1.
          5    1    1    2  501    0  0.34673916893E+01  0.41469620228E+01  0.18423705694E+02  0.19767221116E+02  0.47000000000E+01 0. -1.
         -5    1    1    2    0  503 -0.34673916893E+01 -0.41469620228E+01  0.86105130775E+02  0.86402567352E+02  0.47000000000E+01 0. -1.
<mgrwt>
<rscale>  2 0.71631068E+01</rscale>
<asrwt>0</asrwt>
<pdfrwt beam="1">  1       21 0.16207576E-01 0.71631068E+01</pdfrwt>
<pdfrwt beam="2">  1       21 0.12622716E-03 0.71631068E+01</pdfrwt>
<totfact> 0.10128846E+09</totfact>
</mgrwt>
</event>
<event>
 4    1  0.3989279E+006  0.5168664E+01  0.7546771E-02  0.2538075E+00
         21   -1    0    0  503  502  0.00000000000E+00  0.00000000000E+00  0.25022468258E+00  0.25022468258E+00  0.00000000000E+00 0.  1.
         21   -1    0    0  501  503 -0.00000000000E+00 -0.00000000000E+00 -0.10749912449E+03  0.10749912449E+03  0.00000000000E+00 0. -1.
          5    1    1    2  501    0 -0.12177638780E+00  0.21471509946E+01 -0.49170494204E+02  0.49441405594E+02  0.47000000000E+01 0. -1.
         -5    1    1    2    0  502  0.12177638780E+00 -0.21471509946E+01 -0.58078405601E+02  0.58307943575E+02  0.47000000000E+01 0. -1.
<mgrwt>
<rscale>  2 0.51686639E+01</rscale>
<asrwt>0</asrwt>
<pdfrwt beam="1">  1       21 0.38496180E-04 0.51686639E+01</pdfrwt>
<pdfrwt beam="2">  1       21 0.16538294E-01 0.51686639E+01</pdfrwt>
<totfact> 0.37004416E+09</totfact>
</mgrwt>
</event>
<event>
 4    1  0.3989279E+006  0.8028874E+01  0.7546771E-02  0.2208278E+00
         21   -1    0    0  503  502  0.00000000000E+00  0.00000000000E+00  0.49379301083E+02  0.49379301083E+02  0.00000000000E+00 0.  1.
         21   -1    0    0  501  503 -0.00000000000E+00 -0.00000000000E+00 -0.14364514357E+01  0.14364514357E+01  0.00000000000E+00 0.  1.
          5    1    1    2  501    0  0.58269900092E-01  0.65091798902E+01  0.31643987666E+02  0.32646665582E+02  0.47000000000E+01 0.  1.
         -5    1    1    2    0  502 -0.58269900092E-01 -0.65091798902E+01  0.16298861981E+02  0.18169086936E+02  0.47000000000E+01 0.  1.
<mgrwt>
<rscale>  2 0.80288740E+01</rscale>
<asrwt>0</asrwt>
<pdfrwt beam="1">  1       21 0.75968143E-02 0.80288740E+01</pdfrwt>
<pdfrwt beam="2">  1       21 0.22099257E-03 0.80288740E+01</pdfrwt>
<totfact> 0.16711534E+09</totfact>
</mgrwt>
</event>
<event>
 4    1  0.3989279E+006  0.7244293E+01  0.7546771E-02  0.2277048E+00
         21   -1    0    0  503  502  0.00000000000E+00  0.00000000000E+00  0.66549176376E+01  0.66549176376E+01  0.00000000000E+00 0. -1.
         21   -1    0    0  501  503 -0.00000000000E+00 -0.00000000000E+00 -0.85707818703E+01  0.85707818703E+01  0.00000000000E+00 0.  1.
          5    1    1    2  501    0 -0.34676853875E+01 -0.42854326531E+01 -0.31100016920E+01  0.78836467130E+01  0.47000000000E+01 0.  1.
         -5    1    1    2    0  502  0.34676853875E+01  0.42854326531E+01  0.11941374593E+01  0.73420527949E+01  0.47000000000E+01 0. -1.
<mgrwt>
<rscale>  2 0.72442926E+01</rscale>
<asrwt>0</asrwt>
<pdfrwt beam="1">  1       21 0.10238335E-02 0.72442926E+01</pdfrwt>
<pdfrwt beam="2">  1       21 0.13185818E-02 0.72442926E+01</pdfrwt>
<totfact> 0.24072246E+09</totfact>
</mgrwt>
</event>
<event>
 4    1  0.3989279E+006  0.8268609E+01  0.7546771E-02  0.2189390E+00
         21   -1    0    0  503  502  0.00000000000E+00  0.00000000000E+00  0.13401155111E+03  0.13401155111E+03  0.00000000000E+00 0.  1.
         21   -1    0    0  501  503 -0.00000000000E+00 -0.00000000000E+00 -0.15417171910E+01  0.15417171910E+01  0.00000000000E+00 0. -1.
          5    1    1    2  501    0  0.67741139603E+01 -0.62551322464E+00  0.10795291970E+02  0.13598096023E+02  0.47000000000E+01 0. -1.
         -5    1    1    2    0  502 -0.67741139603E+01  0.62551322464E+00  0.12167454195E+03  0.12195517228E+03  0.47000000000E+01 0.  1.
<mgrwt>
<rscale>  2 0.82686085E+01</rscale>
<asrwt>0</asrwt>
<pdfrwt beam="1">  1       21 0.20617152E-01 0.82686085E+01</pdfrwt>
<pdfrwt beam="2">  1       21 0.23718737E-03 0.82686085E+01</pdfrwt>
<totfact> 0.31412824E+08</totfact>
</mgrwt>
</event>
<event>
 4    1  0.3989279E+006  0.4744697E+01  0.7546771E-02  0.2614540E+00
         21   -1    0    0  501  502  0.00000000000E+00  0.00000000000E+00  0.38606652923E+00  0.38606652923E+00  0.00000000000E+00 0. -1.
         21   -1    0    0  502  503 -0.00000000000E+00 -0.00000000000E+00 -0.73354683212E+02  0.73354683212E+02  0.00000000000E+00 0. -1.
          5    1    1    2  501    0 -0.34323532167E+00  0.55167311886E+00 -0.19787549176E+02  0.20348446036E+02  0.47000000000E+01 0. -1.
         -5    1    1    2    0  503  0.34323532167E+00 -0.55167311886E+00 -0.53181067507E+02  0.53392303705E+02  0.47000000000E+01 0. -1.
<mgrwt>
<rscale>  2 0.47446974E+01</rscale>
<asrwt>0</asrwt>
<pdfrwt beam="1">  1       21 0.59394781E-04 0.47446974E+01</pdfrwt>
<pdfrwt beam="2">  1       21 0.11285349E-01 0.47446974E+01</pdfrwt>
<totfact> 0.34508144E+09</totfact>
</mgrwt>
</event>
<event>
 4    1  0.3989279E+006  0.5562473E+01  0.7546771E-02  0.2476103E+00
         21   -1    0    0  501  502  0.00000000000E+00  0.00000000000E+00  0.11068517433E+03  0.11068517433E+03  0.00000000000E+00 0. -1.
         21   -1    0    0  502  503 -0.00000000000E+00 -0.00000000000E+00 -0.38097532263E+00  0.38097532263E+00  0.00000000000E+00 0. -1.
          5    1    1    2  501    0 -0.23265678380E+01  0.18542349512E+01  0.83806715172E+02  0.83991110322E+02  0.47000000000E+01 0. -1.
         -5    1    1    2    0  503  0.23265678380E+01 -0.18542349512E+01  0.26497483833E+02  0.27075039328E+02  0.47000000000E+01 0. -1.
<mgrwt>
<rscale>  2 0.55624729E+01</rscale>
<asrwt>0</asrwt>
<pdfrwt beam="1">  1       21 0.17028463E-01 0.55624729E+01</pdfrwt>
<pdfrwt beam="2">  1       21 0.58611676E-04 0.55624729E+01</pdfrwt>
<totfact> 0.21612920E+09</totfact>
</mgrwt>
</event>
<event>
 4    1  0.3989279E+006  0.4705524E+01  0.7546771E-02  0.2622204E+00
         21   -1    0    0  501  502  0.00000000000E+00  0.00000000000E+00  0.76305558410E+03  0.76305558410E+03  0.00000000000E+00 0.  1.
         21   -1    0    0  502  503 -0.00000000000E+00 -0.00000000000E+00 -0.40837682381E-01  0.40837682381E-01  0.00000000000E+00 0.  1.
          5    1    1    2  501    0 -0.22763326722E+00 -0.11976021295E-01  0.58678002328E+03  0.58679889032E+03  0.47000000000E+01 0.  1.
         -5    1    1    2    0  503  0.22763326722E+00  0.11976021295E-01  0.17623472314E+03  0.17629753147E+03  0.47000000000E+01 0.  1.
<mgrwt>
<rscale>  2 0.47055244E+01</rscale>
<asrwt>0</asrwt>
<pdfrwt beam="1">  1       21 0.11738175E+00 0.47055244E+01</pdfrwt>
<pdfrwt beam="2">  1       21 0.62833315E-05 0.47055244E+01</pdfrwt>
<totfact> 0.11860801E+09</totfact>
</mgrwt>
</event>
<event>
 4    1  0.3989279E+006  0.6814149E+01  0.7546771E-02  0.2320148E+00
         21   -1    0    0  501  502  0.00000000000E+00  0.00000000000E+00  0.10073687436E+01  0.10073687436E+01  0.00000000000E+00 0. -1.
         21   -1    0    0  502  503 -0.00000000000E+00 -0.00000000000E+00 -0.84316790940E+02  0.84316790940E+02  0.00000000000E+00 0. -1.
          5    1    1    2  501    0  0.35368486687E+01  0.34399604316E+01 -0.12930243503E+02  0.14615875729E+02  0.47000000000E+01 0. -1.
         -5    1    1    2    0  503 -0.35368486687E+01 -0.34399604316E+01 -0.70379178692E+02  0.70708283954E+02  0.47000000000E+01 0. -1.
<mgrwt>
<rscale>  2 0.68141490E+01</rscale>
<asrwt>0</asrwt>
<pdfrwt beam="1">  1       21 0.15497971E-03 0.68141490E+01</pdfrwt>
<pdfrwt beam="2">  1       21 0.12971822E-01 0.68141490E+01</pdfrwt>
<totfact> 0.10538348E+09</totfact>
</mgrwt>
</event>
<event>
 4    1  0.3989279E+006  0.1054162E+02  0.7546771E-02  0.2045413E+00
         21   -1    0    0  501  502  0.00000000000E+00  0.00000000000E+00  0.93501314033E+02  0.93501314033E+02  0.00000000000E+00 0. -1.
         21   -1    0    0  502  503 -0.00000000000E+00 -0.00000000000E+00 -0.15092525592E+01  0.15092525592E+01  0.00000000000E+00 0. -1.
          5    1    1    2  501    0 -0.36950860609E+01 -0.86822912796E+01  0.67896297844E+02  0.68709774441E+02  0.47000000000E+01 0. -1.
         -5    1    1    2    0  503  0.36950860609E+01  0.86822912796E+01  0.24095763630E+02  0.26300792151E+02  0.47000000000E+01 0. -1.
<mgrwt>
<rscale>  2 0.10541624E+02</rscale>
<asrwt>0</asrwt>
<pdfrwt beam="1">  1       21 0.14384813E-01 0.10541624E+02</pdfrwt>
<pdfrwt beam="2">  1       21 0.23219277E-03 0.10541624E+02</pdfrwt>
<totfact> 0.66736231E+08</totfact>
</mgrwt>
</event>
<event>
 4    1  0.3989279E+006  0.7316289E+01  0.7546771E-02  0.2270241E+00
         21   -1    0    0  501  502  0.00000000000E+00  0.00000000000E+00  0.56061135062E-01  0.56061135062E-01  0.00000000000E+00 0. -1.
         21   -1    0    0  502  503 -0.00000000000E+00 -0.00000000000E+00 -0.10713016633E+04  0.10713016633E+04  0.00000000000E+00 0. -1.
          5    1    1    2  501    0 -0.53216217211E+01  0.17659080102E+01 -0.35898478031E+03  0.35905932738E+03  0.47000000000E+01 0. -1.
         -5    1    1    2    0  503  0.53216217211E+01 -0.17659080102E+01 -0.71226082182E+03  0.71229839702E+03  0.47000000000E+01 0. -1.
<mgrwt>
<rscale>  2 0.73162893E+01</rscale>
<asrwt>0</asrwt>
<pdfrwt beam="1">  1       21 0.86246797E-05 0.73162893E+01</pdfrwt>
<pdfrwt beam="2">  1       21 0.16481775E+00 0.73162893E+01</pdfrwt>
<totfact> 0.50506582E+08</totfact>
</mgrwt>
</event>
<event>
 4    1  0.3989279E+006  0.5045004E+01  0.7546771E-02  0.2559231E+00
         21   -1    0    0  501  502  0.00000000000E+00  0.00000000000E+00  0.69779111946E+01  0.69779111946E+01  0.00000000000E+00 0. -1.
         21   -1    0    0  502  503 -0.00000000000E+00 -0.00000000000E+00 -0.13052322268E+03  0.13052322268E+03  0.00000000000E+00 0. -1.
          5    1    1    2  501    0 -0.58980407568E+00  0.17361448446E+01  0.60104744872E+01  0.78471568947E+01  0.47000000000E+01 0. -1.
         -5    1    1    2    0  503  0.58980407568E+00 -0.17361448446E+01 -0.12955578597E+03  0.12965397698E+03  0.47000000000E+01 0. -1.
<mgrwt>
<rscale>  2 0.50450042E+01</rscale>
<asrwt>0</asrwt>
<pdfrwt beam="1">  1       21 0.10735249E-02 0.50450042E+01</pdfrwt>
<pdfrwt beam="2">  1       21 0.20080494E-01 0.50450042E+01</pdfrwt>
<totfact> 0.29604924E+07</totfact>
</mgrwt>
</event>
<event>
 4    1  0.3989279E+006  0.4786420E+01  0.7546771E-02  0.2606497E+00
         21   -1    0    0  503  502  0.00000000000E+00  0.00000000000E+00  0.97863679974E+01  0.97863679974E+01  0.00000000000E+00 0.  1.
         21   -1    0    0  501  503 -0.00000000000E+00 -0.00000000000E+00 -0.31114382598E+01  0.31114382598E+01  0.00000000000E+00 0.  1.
          5    1    1    2  501    0 -0.31317256979E+00  0.84955173500E+00  0.12841651039E+00  0.47881422294E+01  0.47000000000E+01 0.  1.
         -5    1    1    2    0  502  0.31317256979E+00 -0.84955173500E+00  0.65465132273E+01  0.81096640278E+01  0.47000000000E+01 0.  1.
<mgrwt>
<rscale>  2 0.47864199E+01</rscale>
<asrwt>0</asrwt>
<pdfrwt beam="1">  1       21 0.15055951E-02 0.47864199E+01</pdfrwt>
<pdfrwt beam="2">  1       21 0.47868281E-03 0.47864199E+01</pdfrwt>
<totfact> 0.39542598E+09</totfact>
</mgrwt>
</event>
<event>
 4    1  0.3989279E+006  0.5942880E+01  0.7546771E-02  0.2422918E+00
         21   -1    0    0  501  502  0.00000000000E+00  0.00000000000E+00  0.12080457839E+02  0.12080457839E+02  0.00000000000E+00 0.  1.
         21   -1    0    0  502  503 -0.00000000000E+00 -0.00000000000E+00 -0.83733416735E+01  0.83733416735E+01  0.00000000000E+00 0. -1.
          5    1    1    2  501    0 -0.22295987191E+01  0.28734495313E+01  0.10104139278E+02  0.11722263144E+02  0.47000000000E+01 0.  1.
         -5    1    1    2    0  503  0.22295987191E+01 -0.28734495313E+01 -0.63970231127E+01  0.87315363689E+01  0.47000000000E+01 0. -1.
<mgrwt>
<rscale>  2 0.59428800E+01</rscale>
<asrwt>0</asrwt>
<pdfrwt beam="1">  1       21 0.18585320E-02 0.59428800E+01</pdfrwt>
<pdfrwt beam="2">  1       21 0.12882064E-02 0.59428800E+01</pdfrwt>
<totfact> 0.90648135E+08</totfact>
</mgrwt>
</event>
<event>
 4    1  0.3989279E+006  0.1796029E+02  0.7546771E-02  0.1789223E+00
         21   -1    0    0  501  502  0.00000000000E+00  0.00000000000E+00  0.60152609972E+01  0.60152609972E+01  0.00000000000E+00 0.  1.
         21   -1    0    0  502  503 -0.00000000000E+00 -0.00000000000E+00 -0.59210541451E+02  0.59210541451E+02  0.00000000000E+00 0. -1.
          5    1    1    2  501    0 -0.26154331529E+01  0.17135970828E+02 -0.36613752592E+02  0.40781599597E+02  0.47000000000E+01 0.  1.
         -5    1    1    2    0  503  0.26154331529E+01 -0.17135970828E+02 -0.16581527861E+02  0.24444202851E+02  0.47000000000E+01 0. -1.
<mgrwt>
<rscale>  2 0.17960289E+02</rscale>
<asrwt>0</asrwt>
<pdfrwt beam="1">  1       21 0.92542480E-03 0.17960289E+02</pdfrwt>
<pdfrwt beam="2">  1       21 0.91093138E-02 0.17960289E+02</pdfrwt>
<totfact> 0.24059966E+08</totfact>
</mgrwt>
</event>
<event>
 4    1  0.3989279E+006  0.1466647E+02  0.7546771E-02  0.1878420E+00
         21   -1    0    0  503  502  0.00000000000E+00  0.00000000000E+00  0.87360218140E+01  0.87360218140E+01  0.00000000000E+00 0. -1.
         21   -1    0    0  501  503 -0.00000000000E+00 -0.00000000000E+00 -0.24997093788E+02  0.24997093788E+02  0.00000000000E+00 0.  1.
          5    1    1    2  501    0  0.13773476988E+02  0.18184307322E+01 -0.10194420078E+02  0.17861454571E+02  0.47000000000E+01 0.  1.
         -5    1    1    2    0  502 -0.13773476988E+02 -0.18184307322E+01 -0.60666518951E+01  0.15871661031E+02  0.47000000000E+01 0. -1.
<mgrwt>
<rscale>  2 0.14666471E+02</rscale>
<asrwt>0</asrwt>
<pdfrwt beam="1">  1       21 0.13440034E-02 0.14666471E+02</pdfrwt>
<pdfrwt beam="2">  1       21 0.38457067E-02 0.14666471E+02</pdfrwt>
<totfact> 0.49888982E+08</totfact>
</mgrwt>
</event>
<event>
 4    1  0.3989279E+006  0.7360559E+01  0.7546771E-02  0.2266109E+00
         21   -1    0    0  503  502  0.00000000000E+00  0.00000000000E+00  0.24918279100E+02  0.24918279100E+02  0.00000000000E+00 0.  1.
         21   -1    0    0  501  503 -0.00000000000E+00 -0.00000000000E+00 -0.21959638671E+01  0.21959638671E+01  0.00000000000E+00 0. -1.
          5    1    1    2  501    0  0.26393738406E+01 -0.50121385427E+01  0.10012130197E+02  0.12426607667E+02  0.47000000000E+01 0. -1.
         -5    1    1    2    0  502 -0.26393738406E+01  0.50121385427E+01  0.12710185036E+02  0.14687635299E+02  0.47000000000E+01 0.  1.
<mgrwt>
<rscale>  2 0.73605589E+01</rscale>
<asrwt>0</asrwt>
<pdfrwt beam="1">  1       21 0.38335812E-02 0.73605589E+01</pdfrwt>
<pdfrwt beam="2">  1       21 0.33784061E-03 0.73605589E+01</pdfrwt>
<totfact> 0.24492278E+09</totfact>
</mgrwt>
</event>
<event>
 4    1  0.3989279E+006  0.4851254E+01  0.7546771E-02  0.2594237E+00
         21   -1    0    0  501  502  0.00000000000E+00  0.00000000000E+00  0.12681524720E+02  0.12681524720E+02  0.00000000000E+00 0. -1.
         21   -1    0    0  502  503 -0.00000000000E+00 -0.00000000000E+00 -0.24035445561E+01  0.24035445561E+01  0.00000000000E+00 0.  1.
          5    1    1    2  501    0 -0.96228627214E+00 -0.72018492189E+00  0.87395601611E+01  0.99957277374E+01  0.47000000000E+01 0. -1.
         -5    1    1    2    0  503  0.96228627214E+00  0.72018492189E+00  0.15384200027E+01  0.50893415385E+01  0.47000000000E+01 0.  1.
<mgrwt>
<rscale>  2 0.48512536E+01</rscale>
<asrwt>0</asrwt>
<pdfrwt beam="1">  1       21 0.19510038E-02 0.48512536E+01</pdfrwt>
<pdfrwt beam="2">  1       21 0.36977609E-03 0.48512536E+01</pdfrwt>
<totfact> 0.39608595E+09</totfact>
</mgrwt>
</event>
<event>
 4    1  0.3989279E+006  0.6394173E+01  0.7546771E-02  0.2366781E+00
         21   -1    0    0  503  502  0.00000000000E+00  0.00000000000E+00  0.40659151795E+01  0.40659151795E+01  0.00000000000E+00 0.  1.
         21   -1    0    0  501  503 -0.00000000000E+00 -0.00000000000E+00 -0.10471135667E+02  0.10471135667E+02  0.00000000000E+00 0.  1.
          5    1    1    2  501    0  0.38406686886E+01  0.20111461200E+01 -0.17547579231E+01  0.66305821811E+01  0.47000000000E+01 0. -1.
         -5    1    1    2    0  502 -0.38406686886E+01 -0.20111461200E+01 -0.46504625639E+01  0.79064686649E+01  0.47000000000E+01 0. -1.
<mgrwt>
<rscale>  2 0.63941727E+01</rscale>
<asrwt>0</asrwt>
<pdfrwt beam="1">  1       21 0.62552541E-03 0.63941727E+01</pdfrwt>
<pdfrwt beam="2">  1       21 0.16109440E-02 0.63941727E+01</pdfrwt>
<totfact> 0.32771715E+09</totfact>
</mgrwt>
</event>
<event>
 4    1  0.3989279E+006  0.1202723E+02  0.7546771E-02  0.1975177E+00
         21   -1    0    0  501  502  0.00000000000E+00  0.00000000000E+00  0.19560058850E+02  0.19560058850E+02  0.00000000000E+00 0.  1.
         21   -1    0    0  502  503 -0.00000000000E+00 -0.00000000000E+00 -0.12999791727E+02  0.12999791727E+02  0.00000000000E+00 0. -1.
          5    1    1    2  501    0 -0.96072245146E+01  0.55014191107E+01  0.13969417628E+02  0.18433637839E+02  0.47000000000E+01 0.  1.
         -5    1    1    2    0  503  0.96072245146E+01 -0.55014191107E+01 -0.74091505048E+01  0.14126212738E+02  0.47000000000E+01 0. -1.
<mgrwt>
<rscale>  2 0.12027235E+02</rscale>
<asrwt>0</asrwt>
<pdfrwt beam="1">  1       21 0.30092398E-02 0.12027235E+02</pdfrwt>
<pdfrwt beam="2">  1       21 0.19999680E-02 0.12027235E+02</pdfrwt>
<totfact> 0.36645744E+08</totfact>
</mgrwt>
</event>
<event>
 4    1  0.3989279E+006  0.1463021E+02  0.7546771E-02  0.1879567E+00
         21   -1    0    0  503  502  0.00000000000E+00  0.00000000000E+00  0.13418453423E+03  0.13418453423E+03  0.00000000000E+00 0.  1.
         21   -1    0    0  501  503 -0.00000000000E+00 -0.00000000000E+00 -0.18057281092E+01  0.18057281092E+01  0.00000000000E+00 0. -1.
          5    1    1    2  501    0  0.11443702787E+01  0.13807365639E+02  0.42968986340E+02  0.45391372708E+02  0.47000000000E+01 0. -1.
         -5    1    1    2    0  502 -0.11443702787E+01 -0.13807365639E+02  0.89409819781E+02  0.90598889632E+02  0.47000000000E+01 0.  1.
<mgrwt>
<rscale>  2 0.14630206E+02</rscale>
<asrwt>0</asrwt>
<pdfrwt beam="1">  1       21 0.20643767E-01 0.14630206E+02</pdfrwt>
<pdfrwt beam="2">  1       21 0.27780443E-03 0.14630206E+02</pdfrwt>
<totfact> 0.32889162E+08</totfact>
</mgrwt>
</event>
<event>
 4    1  0.3989279E+006  0.5337008E+01  0.7546771E-02  0.2510630E+00
         21   -1    0    0  501  502  0.00000000000E+00  0.00000000000E+00  0.25303292612E+02  0.25303292612E+02  0.00000000000E+00 0. -1.
         21   -1    0    0  502  503 -0.00000000000E+00 -0.00000000000E+00 -0.17086560491E+01  0.17086560491E+01  0.00000000000E+00 0. -1.
          5    1    1    2  501    0 -0.75689683837E+00  0.24126252680E+01  0.19686289539E+02  0.20396902934E+02  0.47000000000E+01 0. -1.
         -5    1    1    2    0  503  0.75689683837E+00 -0.24126252680E+01  0.39083470242E+01  0.66150457269E+01  0.47000000000E+01 0. -1.
<mgrwt>
<rscale>  2 0.53370079E+01</rscale>
<asrwt>0</asrwt>
<pdfrwt beam="1">  1       21 0.38928140E-02 0.53370079E+01</pdfrwt>
<pdfrwt beam="2">  1       21 0.26287018E-03 0.53370079E+01</pdfrwt>
<totfact> 0.25793017E+09</totfact>
</mgrwt>
</event>
<event>
 4    1  0.3989279E+006  0.5383136E+01  0.7546771E-02  0.2503367E+00
         21   -1    0    0  503  502  0.00000000000E+00  0.00000000000E+00  0.24750505507E-01  0.24750505507E-01  0.00000000000E+00 0.  1.
         21   -1    0    0  501  503 -0.00000000000E+00 -0.00000000000E+00 -0.12528917414E+04  0.12528917414E+04  0.00000000000E+00 0.  1.
          5    1    1    2  501    0 -0.22490883929E+01  0.13526830378E+01 -0.78677926253E+03  0.78679767800E+03  0.47000000000E+01 0.  1.
         -5    1    1    2    0  502  0.22490883929E+01 -0.13526830378E+01 -0.46608772836E+03  0.46611881391E+03  0.47000000000E+01 0.  1.
<mgrwt>
<rscale>  2 0.53831357E+01</rscale>
<asrwt>0</asrwt>
<pdfrwt beam="1">  1       21 0.38082699E-05 0.53831357E+01</pdfrwt>
<pdfrwt beam="2">  1       21 0.19272728E+00 0.53831357E+01</pdfrwt>
<totfact> 0.90083474E+08</totfact>
</mgrwt>
</event>
<event>
 4    1  0.3989279E+006  0.5279039E+01  0.7546771E-02  0.2519912E+00
         21   -1    0    0  501  502  0.00000000000E+00  0.00000000000E+00  0.69839754431E-01  0.69839754431E-01  0.00000000000E+00 0. -1.
         21   -1    0    0  502  503 -0.00000000000E+00 -0.00000000000E+00 -0.65327988419E+03  0.65327988419E+03  0.00000000000E+00 0. -1.
          5    1    1    2  501    0 -0.23069800878E-01  0.24036893724E+01 -0.12280920705E+03  0.12292261627E+03  0.47000000000E+01 0. -1.
         -5    1    1    2    0  503  0.23069800878E-01 -0.24036893724E+01 -0.53040083738E+03  0.53042710767E+03  0.47000000000E+01 0. -1.
<mgrwt>
<rscale>  2 0.52790392E+01</rscale>
<asrwt>0</asrwt>
<pdfrwt beam="1">  1       21 0.10744688E-04 0.52790392E+01</pdfrwt>
<pdfrwt beam="2">  1       21 0.10050357E+00 0.52790392E+01</pdfrwt>
<totfact> 0.86987647E+08</totfact>
</mgrwt>
</event>
<event>
 4    1  0.3989279E+006  0.8117036E+01  0.7546771E-02  0.2201228E+00
         21   -1    0    0  501  502  0.00000000000E+00  0.00000000000E+00  0.28362715336E+00  0.28362715336E+00  0.00000000000E+00 0.  1.
         21   -1    0    0  502  503 -0.00000000000E+00 -0.00000000000E+00 -0.27791498160E+03  0.27791498160E+03  0.00000000000E+00 0.  1.
          5    1    1    2  501    0 -0.39101318828E+01 -0.53392086382E+01 -0.82461269244E+02  0.82859804523E+02  0.47000000000E+01 0.  1.
         -5    1    1    2    0  503  0.39101318828E+01  0.53392086382E+01 -0.19517008520E+03  0.19533880423E+03  0.47000000000E+01 0.  1.
<mgrwt>
<rscale>  2 0.81170364E+01</rscale>
<asrwt>0</asrwt>
<pdfrwt beam="1">  1       21 0.43634863E-04 0.81170364E+01</pdfrwt>
<pdfrwt beam="2">  1       21 0.42756233E-01 0.81170364E+01</pdfrwt>
<totfact> 0.89808793E+08</totfact>
</mgrwt>
</event>
<event>
 4    1  0.3989279E+006  0.5943664E+01  0.7546771E-02  0.2422814E+00
         21   -1    0    0  501  502  0.00000000000E+00  0.00000000000E+00  0.35692467386E+02  0.35692467386E+02  0.00000000000E+00 0.  1.
         21   -1    0    0  502  503 -0.00000000000E+00 -0.00000000000E+00 -0.14859716207E+01  0.14859716207E+01  0.00000000000E+00 0. -1.
          5    1    1    2  501    0  0.30535725468E+01 -0.19780882951E+01  0.27845302993E+02  0.28472583960E+02  0.47000000000E+01 0.  1.
         -5    1    1    2    0  503 -0.30535725468E+01  0.19780882951E+01  0.63611927719E+01  0.87058550461E+01  0.47000000000E+01 0. -1.
<mgrwt>
<rscale>  2 0.59436637E+01</rscale>
<asrwt>0</asrwt>
<pdfrwt beam="1">  1       21 0.54911482E-02 0.59436637E+01</pdfrwt>
<pdfrwt beam="2">  1       21 0.22861105E-03 0.59436637E+01</pdfrwt>
<totfact> 0.20714245E+09</totfact>
</mgrwt>
</event>
<event>
 4    1  0.3989279E+006  0.1281641E+02  0.7546771E-02  0.1943075E+00
         21   -1    0    0  501  502  0.00000000000E+00  0.00000000000E+00  0.17550597305E+02  0.17550597305E+02  0.00000000000E+00 0. -1.
         21   -1    0    0  502  503 -0.00000000000E+00 -0.00000000000E+00 -0.14761050948E+02  0.14761050948E+02  0.00000000000E+00 0.  1.
          5    1    1    2  501    0  0.51859048364E+01 -0.10736697815E+02  0.11168047381E+02  0.16999575620E+02  0.47000000000E+01 0. -1.
         -5    1    1    2    0  503 -0.51859048364E+01  0.10736697815E+02 -0.83785010241E+01  0.15312072634E+02  0.47000000000E+01 0.  1.
<mgrwt>
<rscale>  2 0.12816407E+02</rscale>
<asrwt>0</asrwt>
<pdfrwt beam="1">  1       21 0.27000919E-02 0.12816407E+02</pdfrwt>
<pdfrwt beam="2">  1       21 0.22709309E-02 0.12816407E+02</pdfrwt>
<totfact> 0.36768878E+08</totfact>
</mgrwt>
</event>
<event>
 4    1  0.3989279E+006  0.5951334E+01  0.7546771E-02  0.2421801E+00
         21   -1    0    0  503  502  0.00000000000E+00  0.00000000000E+00  0.46810708112E+01  0.46810708112E+01  0.00000000000E+00 0.  1.
         21   -1    0    0  501  503 -0.00000000000E+00 -0.00000000000E+00 -0.21951010485E+02  0.21951010485E+02  0.00000000000E+00 0. -1.
          5    1    1    2  501    0 -0.28987070998E+01 -0.22194321250E+01 -0.19414465202E+02  0.20306152784E+02  0.47000000000E+01 0. -1.
         -5    1    1    2    0  502  0.28987070998E+01  0.22194321250E+01  0.21445255277E+01  0.63259285126E+01  0.47000000000E+01 0.  1.
<mgrwt>
<rscale>  2 0.59513345E+01</rscale>
<asrwt>0</asrwt>
<pdfrwt beam="1">  1       21 0.72016472E-03 0.59513345E+01</pdfrwt>
<pdfrwt beam="2">  1       21 0.33770786E-02 0.59513345E+01</pdfrwt>
<totfact> 0.86880325E+08</totfact>
</mgrwt>
</event>
<event>
 4    1  0.3989279E+006  0.5358945E+01  0.7546771E-02  0.2507163E+00
         21   -1    0    0  501  502  0.00000000000E+00  0.00000000000E+00  0.17830067395E+03  0.17830067395E+03  0.00000000000E+00 0.  1.
         21   -1    0    0  502  503 -0.00000000000E+00 -0.00000000000E+00 -0.12997787812E+02  0.12997787812E+02  0.00000000000E+00 0.  1.
          5    1    1    2  501    0 -0.19050802513E+01  0.17317513069E+01  0.17770619099E+03  0.17778697537E+03  0.47000000000E+01 0.  1.
         -5    1    1    2    0  503  0.19050802513E+01 -0.17317513069E+01 -0.12403304853E+02  0.13511486396E+02  0.47000000000E+01 0.  1.
<mgrwt>
<rscale>  2 0.53589452E+01</rscale>
<asrwt>0</asrwt>
<pdfrwt beam="1">  1       21 0.27430871E-01 0.53589452E+01</pdfrwt>
<pdfrwt beam="2">  1       21 0.19996598E-02 0.53589452E+01</pdfrwt>
<totfact> 0.76996020E+06</totfact>
</mgrwt>
</event>
<event>
 4    1  0.3989279E+006  0.5230530E+01  0.7546771E-02  0.2527814E+00
         21   -1    0    0  503  502  0.00000000000E+00  0.00000000000E+00  0.46544508003E+00  0.46544508003E+00  0.00000000000E+00 0. -1.
         21   -1    0    0  501  503 -0.00000000000E+00 -0.00000000000E+00 -0.10150367881E+03  0.10150367881E+03  0.00000000000E+00 0. -1.
          5    1    1    2  501    0  0.58038839499E+00 -0.22207191736E+01 -0.83596921679E+02  0.83760394929E+02  0.47000000000E+01 0. -1.
         -5    1    1    2    0  502 -0.58038839499E+00  0.22207191736E+01 -0.17441312047E+02  0.18208728958E+02  0.47000000000E+01 0. -1.
<mgrwt>
<rscale>  2 0.52305300E+01</rscale>
<asrwt>0</asrwt>
<pdfrwt beam="1">  1       21 0.71606871E-04 0.52305300E+01</pdfrwt>
<pdfrwt beam="2">  1       21 0.15615965E-01 0.52305300E+01</pdfrwt>
<totfact> 0.17961902E+09</totfact>
</mgrwt>
</event>
<event>
 4    1  0.3989279E+006  0.5836443E+01  0.7546771E-02  0.2437209E+00
         21   -1    0    0  503  502  0.00000000000E+00  0.00000000000E+00  0.15851944483E+03  0.15851944483E+03  0.00000000000E+00 0. -1.
         21   -1    0    0  501  503 -0.00000000000E+00 -0.00000000000E+00 -0.36236781015E+01  0.36236781015E+01  0.00000000000E+00 0. -1.
          5    1    1    2  501    0  0.28849433656E+01  0.19108022614E+01 -0.11831181000E+01  0.59551517146E+01  0.47000000000E+01 0. -1.
         -5    1    1    2    0  502 -0.28849433656E+01 -0.19108022614E+01  0.15607888483E+03  0.15618797122E+03  0.47000000000E+01 0. -1.
<mgrwt>
<rscale>  2 0.58364427E+01</rscale>
<asrwt>0</asrwt>
<pdfrwt beam="1">  1       21 0.24387601E-01 0.58364427E+01</pdfrwt>
<pdfrwt beam="2">  1       21 0.55748906E-03 0.58364427E+01</pdfrwt>
<totfact> 0.59132958E+07</totfact>
</mgrwt>
</event>
<event>
 4    1  0.3989279E+006  0.5218588E+01  0.7546771E-02  0.2529778E+00
         21   -1    0    0  501  502  0.00000000000E+00  0.00000000000E+00  0.13239978156E+03  0.13239978156E+03  0.00000000000E+00 0.  1.
         21   -1    0    0  502  503 -0.00000000000E+00 -0.00000000000E+00 -0.21500701208E+00  0.21500701208E+00  0.00000000000E+00 0.  1.
          5    1    1    2  501    0 -0.15524492669E+01  0.16533499420E+01  0.79893423935E+02  0.80063679986E+02  0.47000000000E+01 0.  1.
         -5    1    1    2    0  503  0.15524492669E+01 -0.16533499420E+01  0.52291350608E+02  0.52551108582E+02  0.47000000000E+01 0.  1.
<mgrwt>
<rscale>  2 0.52185884E+01</rscale>
<asrwt>0</asrwt>
<pdfrwt beam="1">  1       21 0.20369132E-01 0.52185884E+01</pdfrwt>
<pdfrwt beam="2">  1       21 0.33078108E-04 0.52185884E+01</pdfrwt>
<totfact> 0.32826679E+09</totfact>
</mgrwt>
</event>
<event>
 4    1  0.3989279E+006  0.6132605E+01  0.7546771E-02  0.2398478E+00
         21   -1    0    0  501  502  0.00000000000E+00  0.00000000000E+00  0.29430267727E+03  0.29430267727E+03  0.00000000000E+00 0. -1.
         21   -1    0    0  502  503 -0.00000000000E+00 -0.00000000000E+00 -0.28061665583E+00  0.28061665583E+00  0.00000000000E+00 0.  1.
          5    1    1    2  501    0 -0.26354434602E+01  0.29280174449E+01  0.25570898918E+03  0.25578251699E+03  0.47000000000E+01 0. -1.
         -5    1    1    2    0  503  0.26354434602E+01 -0.29280174449E+01  0.38313071432E+02  0.38800776938E+02  0.47000000000E+01 0.  1.
<mgrwt>
<rscale>  2 0.61326054E+01</rscale>
<asrwt>0</asrwt>
<pdfrwt beam="1">  1       21 0.45277088E-01 0.61326054E+01</pdfrwt>
<pdfrwt beam="2">  1       21 0.43172029E-04 0.61326054E+01</pdfrwt>
<totfact> 0.68518014E+08</totfact>
</mgrwt>
</event>
<event>
 4    1  0.3989279E+006  0.8981804E+01  0.7546771E-02  0.2138031E+00
         21   -1    0    0  503  502  0.00000000000E+00  0.00000000000E+00  0.15733039438E+04  0.15733039438E+04  0.00000000000E+00 0. -1.
         21   -1    0    0  501  503 -0.00000000000E+00 -0.00000000000E+00 -0.51341914352E-01  0.51341914352E-01  0.00000000000E+00 0. -1.
          5    1    1    2  501    0  0.44129704582E+01  0.62536789276E+01  0.81480318029E+03  0.81485268326E+03  0.47000000000E+01 0. -1.
         -5    1    1    2    0  502 -0.44129704582E+01 -0.62536789276E+01  0.75844942158E+03  0.75850260244E+03  0.47000000000E+01 0. -1.
<mgrwt>
<rscale>  2 0.89818043E+01</rscale>
<asrwt>0</asrwt>
<pdfrwt beam="1">  1       21 0.24200815E+00 0.89818043E+01</pdfrwt>
<pdfrwt beam="2">  1       21 0.79000161E-05 0.89818043E+01</pdfrwt>
<totfact> 0.25471360E+08</totfact>
</mgrwt>
</event>
<event>
 4    1  0.3989279E+006  0.1214767E+02  0.7546771E-02  0.1970072E+00
         21   -1    0    0  503  502  0.00000000000E+00  0.00000000000E+00  0.25571524888E+01  0.25571524888E+01  0.00000000000E+00 0. -1.
         21   -1    0    0  501  503 -0.00000000000E+00 -0.00000000000E+00 -0.34128178419E+03  0.34128178419E+03  0.00000000000E+00 0.  1.
          5    1    1    2  501    0 -0.11084771112E+01 -0.11146615886E+02 -0.32607431822E+03  0.32630051604E+03  0.47000000000E+01 0.  1.
         -5    1    1    2    0  502  0.11084771112E+01  0.11146615886E+02 -0.12650313479E+02  0.17538420633E+02  0.47000000000E+01 0. -1.
<mgrwt>
<rscale>  2 0.12147665E+02</rscale>
<asrwt>0</asrwt>
<pdfrwt beam="1">  1       21 0.39340815E-03 0.12147665E+02</pdfrwt>
<pdfrwt beam="2">  1       21 0.52504880E-01 0.12147665E+02</pdfrwt>
<totfact> 0.34926331E+07</totfact>
</mgrwt>
</event>
<event>
 4    1  0.3989279E+006  0.5495180E+01  0.7546771E-02  0.2486156E+00
         21   -1    0    0  503  502  0.00000000000E+00  0.00000000000E+00  0.22014986803E+00  0.22014986803E+00  0.00000000000E+00 0.  1.
         21   -1    0    0  501  503 -0.00000000000E+00 -0.00000000000E+00 -0.15516872010E+03  0.15516872010E+03  0.00000000000E+00 0.  1.
          5    1    1    2  501    0  0.16226862238E+01  0.23396346369E+01 -0.10393862413E+03  0.10408378638E+03  0.47000000000E+01 0.  1.
         -5    1    1    2    0  502 -0.16226862238E+01 -0.23396346369E+01 -0.51009946095E+02  0.51305083583E+02  0.47000000000E+01 0.  1.
<mgrwt>
<rscale>  2 0.54951798E+01</rscale>
<asrwt>0</asrwt>
<pdfrwt beam="1">  1       21 0.33869097E-04 0.54951798E+01</pdfrwt>
<pdfrwt beam="2">  1       21 0.23872191E-01 0.54951798E+01</pdfrwt>
<totfact> 0.25792942E+09</totfact>
</mgrwt>
</event>
<event>
 4    1  0.3989279E+006  0.4794158E+01  0.7546771E-02  0.2605019E+00
         21   -1    0    0  503  502  0.00000000000E+00  0.00000000000E+00  0.18825226782E-01  0.18825226782E-01  0.00000000000E+00 0.  1.
         21   -1    0    0  501  503 -0.00000000000E+00 -0.00000000000E+00 -0.12453565035E+04  0.12453565035E+04  0.00000000000E+00 0.  1.
          5    1    1    2  501    0 -0.25147964018E+00  0.91143474626E+00 -0.70990756127E+03  0.70992374908E+03  0.47000000000E+01 0.  1.
         -5    1    1    2    0  502  0.25147964018E+00 -0.91143474626E+00 -0.53543011703E+03  0.53545157968E+03  0.47000000000E+01 0.  1.
<mgrwt>
<rscale>  2 0.47941585E+01</rscale>
<asrwt>0</asrwt>
<pdfrwt beam="1">  1       21 0.28969795E-05 0.47941585E+01</pdfrwt>
<pdfrwt beam="2">  1       21 0.19154101E+00 0.47941585E+01</pdfrwt>
<totfact> 0.12331742E+09</totfact>
</mgrwt>
</event>
<event>
 4    1  0.3989279E+006  0.8706929E+01  0.7546771E-02  0.2157029E+00
         21   -1    0    0  503  502  0.00000000000E+00  0.00000000000E+00  0.41139895608E+02  0.41139895608E+02  0.00000000000E+00 0.  1.
         21   -1    0    0  501  503 -0.00000000000E+00 -0.00000000000E+00 -0.76780115869E+01  0.76780115869E+01  0.00000000000E+00 0. -1.
          5    1    1    2  501    0  0.68339376113E-01  0.73291160679E+01 -0.45482376685E+01  0.98232926505E+01  0.47000000000E+01 0. -1.
         -5    1    1    2    0  502 -0.68339376113E-01 -0.73291160679E+01  0.38010121690E+02  0.38994614545E+02  0.47000000000E+01 0.  1.
<mgrwt>
<rscale>  2 0.87069290E+01</rscale>
<asrwt>0</asrwt>
<pdfrwt beam="1">  1       21 0.63292146E-02 0.87069290E+01</pdfrwt>
<pdfrwt beam="2">  1       21 0.11812326E-02 0.87069290E+01</pdfrwt>
<totfact> 0.21673970E+08</totfact>
</mgrwt>
</event>
<event>
 4    1  0.3989279E+006  0.4727150E+01  0.7546771E-02  0.2617959E+00
         21   -1    0    0  503  502  0.00000000000E+00  0.00000000000E+00  0.17008930537E+01  0.17008930537E+01  0.00000000000E+00 0. -1.
         21   -1    0    0  501  503 -0.00000000000E+00 -0.00000000000E+00 -0.33438372022E+02  0.33438372022E+02  0.00000000000E+00 0. -1.
          5    1    1    2  501    0 -0.50590257598E+00  0.30775080470E-02 -0.29558458747E+02  0.29934068056E+02  0.47000000000E+01 0. -1.
         -5    1    1    2    0  502  0.50590257598E+00 -0.30775080470E-02 -0.21790202210E+01  0.52051970194E+01  0.47000000000E+01 0. -1.
<mgrwt>
<rscale>  2 0.47271500E+01</rscale>
<asrwt>0</asrwt>
<pdfrwt beam="1">  1       21 0.26167585E-03 0.47271500E+01</pdfrwt>
<pdfrwt beam="2">  1       21 0.51443649E-02 0.47271500E+01</pdfrwt>
<totfact> 0.15346120E+09</totfact>
</mgrwt>
</event>
<event>
 4    1  0.3989279E+006  0.6865246E+01  0.7546771E-02  0.2314797E+00
         21   -1    0    0  503  502  0.00000000000E+00  0.00000000000E+00  0.20457999111E+02  0.20457999111E+02  0.00000000000E+00 0. -1.
         21   -1    0    0  501  503 -0.00000000000E+00 -0.00000000000E+00 -0.25206824687E+01  0.25206824687E+01  0.00000000000E+00 0.  1.
          5    1    1    2  501    0 -0.36521755397E+01 -0.34209969971E+01  0.55986936635E+01  0.88587232356E+01  0.47000000000E+01 0. -1.
         -5    1    1    2    0  502  0.36521755397E+01  0.34209969971E+01  0.12338622979E+02  0.14119958344E+02  0.47000000000E+01 0.  1.
<mgrwt>
<rscale>  2 0.68652463E+01</rscale>
<asrwt>0</asrwt>
<pdfrwt beam="1">  1       21 0.31473844E-02 0.68652463E+01</pdfrwt>
<pdfrwt beam="2">  1       21 0.38779732E-03 0.68652463E+01</pdfrwt>
<totfact> 0.25637116E+09</totfact>
</mgrwt>
</event>
<event>
 4    1  0.3989279E+006  0.5485355E+01  0.7546771E-02  0.2487641E+00
         21   -1    0    0  503  502  0.00000000000E+00  0.00000000000E+00  0.74298219637E+03  0.74298219637E+03  0.00000000000E+00 0.  1.
         21   -1    0    0  501  503 -0.00000000000E+00 -0.00000000000E+00 -0.41036226681E-01  0.41036226681E-01  0.00000000000E+00 0. -1.
          5    1    1    2  501    0 -0.18428295699E+01 -0.21454824628E+01  0.32891392537E+03  0.32895966230E+03  0.47000000000E+01 0. -1.
         -5    1    1    2    0  502  0.18428295699E+01  0.21454824628E+01  0.41402723477E+03  0.41406357030E+03  0.47000000000E+01 0.  1.
<mgrwt>
<rscale>  2 0.54853547E+01</rscale>
<asrwt>0</asrwt>
<pdfrwt beam="1">  1       21 0.11429418E+00 0.54853547E+01</pdfrwt>
<pdfrwt beam="2">  1       21 0.63138607E-05 0.54853547E+01</pdfrwt>
<totfact> 0.13991791E+09</totfact>
</mgrwt>
</event>
<event>
 4    1  0.3989279E+006  0.4963897E+01  0.7546771E-02  0.2573598E+00
         21   -1    0    0  503  502  0.00000000000E+00  0.00000000000E+00  0.16204826491E+01  0.16204826491E+01  0.00000000000E+00 0.  1.
         21   -1    0    0  501  503 -0.00000000000E+00 -0.00000000000E+00 -0.16010866913E+02  0.16010866913E+02  0.00000000000E+00 0.  1.
          5    1    1    2  501    0  0.13382084148E+01 -0.87147907720E+00 -0.91723450762E+01  0.10429390766E+02  0.47000000000E+01 0.  1.
         -5    1    1    2    0  502 -0.13382084148E+01  0.87147907720E+00 -0.52180391876E+01  0.72019587965E+01  0.47000000000E+01 0.  1.
<mgrwt>
<rscale>  2 0.49638974E+01</rscale>
<asrwt>0</asrwt>
<pdfrwt beam="1">  1       21 0.24930501E-03 0.49638974E+01</pdfrwt>
<pdfrwt beam="2">  1       21 0.24632104E-02 0.49638974E+01</pdfrwt>
<totfact> 0.49764934E+09</totfact>
</mgrwt>
</event>
<event>
 4    1  0.3989279E+006  0.5504475E+01  0.7546771E-02  0.2484755E+00
         21   -1    0    0  501  502  0.00000000000E+00  0.00000000000E+00  0.41142616969E+03  0.41142616969E+03  0.00000000000E+00 0. -1.
         21   -1    0    0  502  503 -0.00000000000E+00 -0.00000000000E+00 -0.79724763499E-01  0.79724763499E-01  0.00000000000E+00 0. -1.
          5    1    1    2  501    0 -0.82850608637E+00  0.27427756850E+01  0.26249483780E+03  0.26255254543E+03  0.47000000000E+01 0. -1.
         -5    1    1    2    0  503  0.82850608637E+00 -0.27427756850E+01  0.14885160712E+03  0.14895334902E+03  0.47000000000E+01 0. -1.
<mgrwt>
<rscale>  2 0.55044746E+01</rscale>
<asrwt>0</asrwt>
<pdfrwt beam="1">  1       21 0.63294634E-01 0.55044746E+01</pdfrwt>
<pdfrwt beam="2">  1       21 0.12265678E-04 0.55044746E+01</pdfrwt>
<totfact> 0.18384482E+09</totfact>
</mgrwt>
</event>
<event>
 4    1  0.3989279E+006  0.5753588E+01  0.7546771E-02  0.2448642E+00
         21   -1    0    0  503  502  0.00000000000E+00  0.00000000000E+00  0.17045147497E+02  0.17045147497E+02  0.00000000000E+00 0.  1.
         21   -1    0    0  501  503 -0.00000000000E+00 -0.00000000000E+00 -0.39420023527E+01  0.39420023527E+01  0.00000000000E+00 0. -1.
          5    1    1    2  501    0 -0.20174594301E+01  0.26350779150E+01 -0.92266492324E+00  0.58270995127E+01  0.47000000000E+01 0. -1.
         -5    1    1    2    0  502  0.20174594301E+01 -0.26350779150E+01  0.14025810067E+02  0.15160050337E+02  0.47000000000E+01 0.  1.
<mgrwt>
<rscale>  2 0.57535883E+01</rscale>
<asrwt>0</asrwt>
<pdfrwt beam="1">  1       21 0.26223304E-02 0.57535883E+01</pdfrwt>
<pdfrwt beam="2">  1       21 0.60646191E-03 0.57535883E+01</pdfrwt>
<totfact> 0.15496929E+09</totfact>
</mgrwt>
</event>
<event>
 4    1  0.3989279E+006  0.8358374E+01  0.7546771E-02  0.2182542E+00
         21   -1    0    0  501  502  0.00000000000E+00  0.00000000000E+00  0.26329581966E+03  0.26329581966E+03  0.00000000000E+00 0. -1.
         21   -1    0    0  502  503 -0.00000000000E+00 -0.00000000000E+00 -0.16564848387E+01  0.16564848387E+01  0.00000000000E+00 0.  1.
          5    1    1    2  501    0  0.58110262862E+01 -0.37422433493E+01  0.25222295412E+03  0.25236140948E+03  0.47000000000E+01 0. -1.
         -5    1    1    2    0  503 -0.58110262862E+01  0.37422433493E+01  0.94163807053E+01  0.12590895019E+02  0.47000000000E+01 0.  1.
<mgrwt>
<rscale>  2 0.83583738E+01</rscale>
<asrwt>0</asrwt>
<pdfrwt beam="1">  1       21 0.40507016E-01 0.83583738E+01</pdfrwt>
<pdfrwt beam="2">  1       21 0.25484403E-03 0.83583738E+01</pdfrwt>
<totfact> 0.89572560E+07</totfact>
</mgrwt>
</event>
<event>
 4    1  0.3989279E+006  0.6268304E+01  0.7546771E-02  0.2381759E+00
         21   -1    0    0  503  502  0.00000000000E+00  0.00000000000E+00  0.32997750172E+01  0.32997750172E+01  0.00000000000E+00 0.  1.
         21   -1    0    0  501  503 -0.00000000000E+00 -0.00000000000E+00 -0.18055168608E+02  0.18055168608E+02  0.00000000000E+00 0.  1.
          5    1    1    2  501    0 -0.27769768536E+00  0.41381787864E+01 -0.13608262797E+02  0.14982538370E+02  0.47000000000E+01 0.  1.
         -5    1    1    2    0  502  0.27769768536E+00 -0.41381787864E+01 -0.11471307939E+01  0.63724052548E+01  0.47000000000E+01 0.  1.
<mgrwt>
<rscale>  2 0.62683044E+01</rscale>
<asrwt>0</asrwt>
<pdfrwt beam="1">  1       21 0.50765769E-03 0.62683044E+01</pdfrwt>
<pdfrwt beam="2">  1       21 0.27777183E-02 0.62683044E+01</pdfrwt>
<totfact> 0.19643573E+09</totfact>
</mgrwt>
</event>
<event>
 4    1  0.3989279E+006  0.7202209E+01  0.7546771E-02  0.2281078E+00
         21   -1    0    0  501  502  0.00000000000E+00  0.00000000000E+00  0.23978555011E+03  0.23978555011E+03  0.00000000000E+00 0.  1.
         21   -1    0    0  502  503 -0.00000000000E+00 -0.00000000000E+00 -0.22255790699E+00  0.22255790699E+00  0.00000000000E+00 0.  1.
          5    1    1    2  501    0  0.53569918703E+01 -0.10413730722E+01  0.13986267103E+03  0.14004798666E+03  0.47000000000E+01 0. -1.
         -5    1    1    2    0  503 -0.53569918703E+01  0.10413730722E+01  0.99700321176E+02  0.99960121361E+02  0.47000000000E+01 0. -1.
<mgrwt>
<rscale>  2 0.72022094E+01</rscale>
<asrwt>0</asrwt>
<pdfrwt beam="1">  1       21 0.36889878E-01 0.72022094E+01</pdfrwt>
<pdfrwt beam="2">  1       21 0.34239870E-04 0.72022094E+01</pdfrwt>
<totfact> 0.15000794E+09</totfact>
</mgrwt>
</event>
<event>
 4    1  0.3989279E+006  0.4959828E+01  0.7546771E-02  0.2574330E+00
         21   -1    0    0  501  502  0.00000000000E+00  0.00000000000E+00  0.33436877014E+03  0.33436877014E+03  0.00000000000E+00 0.  1.
         21   -1    0    0  502  503 -0.00000000000E+00 -0.00000000000E+00 -0.20270032830E+01  0.20270032830E+01  0.00000000000E+00 0.  1.
          5    1    1    2  501    0  0.13119197804E+01 -0.88812048949E+00  0.33128814360E+03  0.33132526916E+03  0.47000000000E+01 0.  1.
         -5    1    1    2    0  503 -0.13119197804E+01  0.88812048949E+00  0.10536232523E+01  0.50705042621E+01  0.47000000000E+01 0.  1.
<mgrwt>
<rscale>  2 0.49598278E+01</rscale>
<asrwt>0</asrwt>
<pdfrwt beam="1">  1       21 0.51441305E-01 0.49598278E+01</pdfrwt>
<pdfrwt beam="2">  1       21 0.31184692E-03 0.49598278E+01</pdfrwt>
<totfact> 0.33191745E+07</totfact>
</mgrwt>
</event>
<event>
 4    1  0.3989279E+006  0.6215572E+01  0.7546771E-02  0.2388183E+00
         21   -1    0    0  503  502  0.00000000000E+00  0.00000000000E+00  0.12166815100E+02  0.12166815100E+02  0.00000000000E+00 0. -1.
         21   -1    0    0  501  503 -0.00000000000E+00 -0.00000000000E+00 -0.47996615644E+01  0.47996615644E+01  0.00000000000E+00 0.  1.
          5    1    1    2  501    0  0.32456646730E+01  0.24513261697E+01 -0.12515367963E+01  0.63403220354E+01  0.47000000000E+01 0.  1.
         -5    1    1    2    0  502 -0.32456646730E+01 -0.24513261697E+01  0.86186903317E+01  0.10626154629E+02  0.47000000000E+01 0. -1.
<mgrwt>
<rscale>  2 0.62155723E+01</rscale>
<asrwt>0</asrwt>
<pdfrwt beam="1">  1       21 0.18718177E-02 0.62155723E+01</pdfrwt>
<pdfrwt beam="2">  1       21 0.73840948E-03 0.62155723E+01</pdfrwt>
<totfact> 0.20432456E+09</totfact>
</mgrwt>
</event>
<event>
 4    1  0.3989279E+006  0.6352910E+01  0.7546771E-02  0.2371637E+00
         21   -1    0    0  503  502  0.00000000000E+00  0.00000000000E+00  0.17374989247E+00  0.17374989247E+00  0.00000000000E+00 0.  1.
         21   -1    0    0  501  503 -0.00000000000E+00 -0.00000000000E+00 -0.23356784160E+03  0.23356784160E+03  0.00000000000E+00 0. -1.
          5    1    1    2  501    0  0.27652122349E+01 -0.32593056058E+01 -0.10803525961E+03  0.10822188684E+03  0.47000000000E+01 0. -1.
         -5    1    1    2    0  502 -0.27652122349E+01  0.32593056058E+01 -0.12535883210E+03  0.12551970465E+03  0.47000000000E+01 0.  1.
<mgrwt>
<rscale>  2 0.63529105E+01</rscale>
<asrwt>0</asrwt>
<pdfrwt beam="1">  1       21 0.26730687E-04 0.63529105E+01</pdfrwt>
<pdfrwt beam="2">  1       21 0.35933603E-01 0.63529105E+01</pdfrwt>
<totfact> 0.20016755E+09</totfact>
</mgrwt>
</event>
<event>
 4    1  0.3989279E+006  0.6579155E+01  0.7546771E-02  0.2345635E+00
         21   -1    0    0  501  502  0.00000000000E+00  0.00000000000E+00  0.28679907809E+01  0.28679907809E+01  0.00000000000E+00 0.  1.
         21   -1    0    0  502  503 -0.00000000000E+00 -0.00000000000E+00 -0.24903776289E+02  0.24903776289E+02  0.00000000000E+00 0.  1.
          5    1    1    2  501    0  0.33742952698E+01 -0.31319988609E+01 -0.23021856011E+01  0.69703187857E+01  0.47000000000E+01 0.  1.
         -5    1    1    2    0  503 -0.33742952698E+01  0.31319988609E+01 -0.19733599907E+02  0.20801448284E+02  0.47000000000E+01 0.  1.
<mgrwt>
<rscale>  2 0.65791554E+01</rscale>
<asrwt>0</asrwt>
<pdfrwt beam="1">  1       21 0.44122935E-03 0.65791554E+01</pdfrwt>
<pdfrwt beam="2">  1       21 0.38313502E-02 0.65791554E+01</pdfrwt>
<totfact> 0.15510520E+09</totfact>
</mgrwt>
</event>
<event>
 4    1  0.3989279E+006  0.5785792E+01  0.7546771E-02  0.2444166E+00
         21   -1    0    0  503  502  0.00000000000E+00  0.00000000000E+00  0.76597865868E+02  0.76597865868E+02  0.00000000000E+00 0. -1.
         21   -1    0    0  501  503 -0.00000000000E+00 -0.00000000000E+00 -0.15651800742E+01  0.15651800742E+01  0.00000000000E+00 0.  1.
          5    1    1    2  501    0  0.32523201999E+01 -0.89877944762E+00  0.43365859779E+01  0.72305856693E+01  0.47000000000E+01 0.  1.
         -5    1    1    2    0  502 -0.32523201999E+01  0.89877944762E+00  0.70696099816E+02  0.70932460273E+02  0.47000000000E+01 0. -1.
<mgrwt>
<rscale>  2 0.57857922E+01</rscale>
<asrwt>0</asrwt>
<pdfrwt beam="1">  1       21 0.11784284E-01 0.57857922E+01</pdfrwt>
<pdfrwt beam="2">  1       21 0.24079699E-03 0.57857922E+01</pdfrwt>
<totfact> 0.59382143E+08</totfact>
</mgrwt>
</event>
<event>
 4    1  0.3989279E+006  0.5300695E+01  0.7546771E-02  0.2516424E+00
         21   -1    0    0  503  502  0.00000000000E+00  0.00000000000E+00  0.36904172147E+02  0.36904172147E+02  0.00000000000E+00 0.  1.
         21   -1    0    0  501  503 -0.00000000000E+00 -0.00000000000E+00 -0.77197892756E+00  0.77197892756E+00  0.00000000000E+00 0.  1.
          5    1    1    2  501    0  0.13500784911E+01 -0.20456436476E+01  0.15856724059E+02  0.16719242439E+02  0.47000000000E+01 0.  1.
         -5    1    1    2    0  502 -0.13500784911E+01  0.20456436476E+01  0.20275469161E+02  0.20956908636E+02  0.47000000000E+01 0.  1.
<mgrwt>
<rscale>  2 0.53006952E+01</rscale>
<asrwt>0</asrwt>
<pdfrwt beam="1">  1       21 0.56775636E-02 0.53006952E+01</pdfrwt>
<pdfrwt beam="2">  1       21 0.11876602E-03 0.53006952E+01</pdfrwt>
<totfact> 0.42988241E+09</totfact>
</mgrwt>
</event>
<event>
 4    1  0.3989279E+006  0.6603044E+01  0.7546771E-02  0.2342976E+00
         21   -1    0    0  503  502  0.00000000000E+00  0.00000000000E+00  0.10964629094E+04  0.10964629094E+04  0.00000000000E+00 0.  1.
         21   -1    0    0  501  503 -0.00000000000E+00 -0.00000000000E+00 -0.40794875170E-01  0.40794875170E-01  0.00000000000E+00 0. -1.
          5    1    1    2  501    0  0.31227961511E+01 -0.34290423433E+01  0.46107527118E+03  0.46112254975E+03  0.47000000000E+01 0. -1.
         -5    1    1    2    0  502 -0.31227961511E+01  0.34290423433E+01  0.63534684333E+03  0.63538115452E+03  0.47000000000E+01 0.  1.
<mgrwt>
<rscale>  2 0.66030438E+01</rscale>
<asrwt>0</asrwt>
<pdfrwt beam="1">  1       21 0.16866300E+00 0.66030438E+01</pdfrwt>
<pdfrwt beam="2">  1       21 0.62770128E-05 0.66030438E+01</pdfrwt>
<totfact> 0.69452100E+08</totfact>
</mgrwt>
</event>
<event>
 4    1  0.3989279E+006  0.6833504E+01  0.7546771E-02  0.2318114E+00
         21   -1    0    0  503  502  0.00000000000E+00  0.00000000000E+00  0.51183652602E+02  0.51183652602E+02  0.00000000000E+00 0.  1.
         21   -1    0    0  501  503 -0.00000000000E+00 -0.00000000000E+00 -0.10232009640E+01  0.10232009640E+01  0.00000000000E+00 0. -1.
          5    1    1    2  501    0  0.43985082393E+01 -0.22934465260E+01  0.16487893915E+02  0.17847896724E+02  0.47000000000E+01 0. -1.
         -5    1    1    2    0  502 -0.43985082393E+01  0.22934465260E+01  0.33672557723E+02  0.34358956842E+02  0.47000000000E+01 0.  1.
<mgrwt>
<rscale>  2 0.68335036E+01</rscale>
<asrwt>0</asrwt>
<pdfrwt beam="1">  1       21 0.78744061E-02 0.68335036E+01</pdfrwt>
<pdfrwt beam="2">  1       21 0.15741557E-03 0.68335036E+01</pdfrwt>
<totfact> 0.22422574E+09</totfact>
</mgrwt>
</event>
<event>
 4    1  0.3989279E+006  0.6169470E+01  0.7546771E-02  0.2393875E+00
         21   -1    0    0  501  502  0.00000000000E+00  0.00000000000E+00  0.41366944504E+00  0.41366944504E+00  0.00000000000E+00 0.  1.
         21   -1    0    0  502  503 -0.00000000000E+00 -0.00000000000E+00 -0.92164955028E+02  0.92164955028E+02  0.00000000000E+00 0.  1.
          5    1    1    2  501    0  0.11287193868E+01 -0.38338430028E+01 -0.43987032905E+02  0.44417580116E+02  0.47000000000E+01 0.  1.
         -5    1    1    2    0  503 -0.11287193868E+01  0.38338430028E+01 -0.47764252679E+02  0.48161044357E+02  0.47000000000E+01 0.  1.
<mgrwt>
<rscale>  2 0.61694700E+01</rscale>
<asrwt>0</asrwt>
<pdfrwt beam="1">  1       21 0.63641373E-04 0.61694700E+01</pdfrwt>
<pdfrwt beam="2">  1       21 0.14179242E-01 0.61694700E+01</pdfrwt>
<totfact> 0.28215307E+09</totfact>
</mgrwt>
</event>
<event>
 4    1  0.3989279E+006  0.7250408E+01  0.7546771E-02  0.2276466E+00
         21   -1    0    0  501  502  0.00000000000E+00  0.00000000000E+00  0.46123198305E+01  0.46123198305E+01  0.00000000000E+00 0.  1.
         21   -1    0    0  502  503 -0.00000000000E+00 -0.00000000000E+00 -0.31570168567E+02  0.31570168567E+02  0.00000000000E+00 0.  1.
          5    1    1    2  501    0  0.16895219586E+01  0.52558479638E+01  0.98255800762E+00  0.73166824795E+01  0.47000000000E+01 0.  1.
         -5    1    1    2    0  503 -0.16895219586E+01 -0.52558479638E+01 -0.27940406744E+02  0.28865805918E+02  0.47000000000E+01 0.  1.
<mgrwt>
<rscale>  2 0.72504084E+01</rscale>
<asrwt>0</asrwt>
<pdfrwt beam="1">  1       21 0.70958768E-03 0.72504084E+01</pdfrwt>
<pdfrwt beam="2">  1       21 0.48569489E-02 0.72504084E+01</pdfrwt>
<totfact> 0.60026014E+08</totfact>
</mgrwt>
</event>
<event>
 4    1  0.3989279E+006  0.5301963E+01  0.7546771E-02  0.2516221E+00
         21   -1    0    0  501  502  0.00000000000E+00  0.00000000000E+00  0.16143439697E+00  0.16143439697E+00  0.00000000000E+00 0. -1.
         21   -1    0    0  502  503 -0.00000000000E+00 -0.00000000000E+00 -0.17559332396E+03  0.17559332396E+03  0.00000000000E+00 0.  1.
          5    1    1    2  501    0 -0.24391956457E+01 -0.26671173791E+00 -0.79697806731E+02  0.79873970781E+02  0.47000000000E+01 0. -1.
         -5    1    1    2    0  503  0.24391956457E+01  0.26671173791E+00 -0.95734082832E+02  0.95880787576E+02  0.47000000000E+01 0. -1.
<mgrwt>
<rscale>  2 0.53019629E+01</rscale>
<asrwt>0</asrwt>
<pdfrwt beam="1">  1       21 0.24836001E-04 0.53019629E+01</pdfrwt>
<pdfrwt beam="2">  1       21 0.27014423E-01 0.53019629E+01</pdfrwt>
<totfact> 0.30812291E+09</totfact>
</mgrwt>
</event>
<event>
 4    1  0.3989279E+006  0.7791124E+01  0.7546771E-02  0.2227930E+00
         21   -1    0    0  501  502  0.00000000000E+00  0.00000000000E+00  0.33085113120E+03  0.33085113120E+03  0.00000000000E+00 0.  1.
         21   -1    0    0  502  503 -0.00000000000E+00 -0.00000000000E+00 -0.18740037841E+00  0.18740037841E+00  0.00000000000E+00 0.  1.
          5    1    1    2  501    0  0.38948693209E+01 -0.48416533639E+01  0.14136447050E+03  0.14157900669E+03  0.47000000000E+01 0.  1.
         -5    1    1    2    0  503 -0.38948693209E+01  0.48416533639E+01  0.18929926032E+03  0.18945952489E+03  0.47000000000E+01 0.  1.
<mgrwt>
<rscale>  2 0.77911241E+01</rscale>
<asrwt>0</asrwt>
<pdfrwt beam="1">  1       21 0.50899707E-01 0.77911241E+01</pdfrwt>
<pdfrwt beam="2">  1       21 0.28831092E-04 0.77911241E+01</pdfrwt>
<totfact> 0.11170309E+09</totfact>
</mgrwt>
</event>
<event>
 4    1  0.3989279E+006  0.5023673E+01  0.7546771E-02  0.2562971E+00
         21   -1    0    0  501  502  0.00000000000E+00  0.00000000000E+00  0.49211673874E+03  0.49211673874E+03  0.00000000000E+00 0.  1.
         21   -1    0    0  502  503 -0.00000000000E+00 -0.00000000000E+00 -0.36315840875E+00  0.36315840875E+00  0.00000000000E+00 0.  1.
          5    1    1    2  501    0  0.12109183974E+01  0.12965218013E+01  0.47406905951E+03  0.47409567650E+03  0.47000000000E+01 0.  1.
         -5    1    1    2    0  503 -0.12109183974E+01 -0.12965218013E+01  0.17684520817E+02  0.18384220644E+02  0.47000000000E+01 0.  1.
<mgrwt>
<rscale>  2 0.50236732E+01</rscale>
<asrwt>0</asrwt>
<pdfrwt beam="1">  1       21 0.75709734E-01 0.50236732E+01</pdfrwt>
<pdfrwt beam="2">  1       21 0.55870918E-04 0.50236732E+01</pdfrwt>
<totfact> 0.16386890E+08</totfact>
</mgrwt>
</event>
<event>
 4    1  0.3989279E+006  0.7501249E+01  0.7546771E-02  0.2253243E+00
         21   -1    0    0  501  502  0.00000000000E+00  0.00000000000E+00  0.14299542301E+03  0.14299542301E+03  0.00000000000E+00 0.  1.
         21   -1    0    0  502  503 -0.00000000000E+00 -0.00000000000E+00 -0.10250692021E+01  0.10250692021E+01  0.00000000000E+00 0. -1.
          5    1    1    2  501    0 -0.26809613024E+01  0.51953046292E+01  0.12750854946E+03  0.12772900583E+03  0.47000000000E+01 0.  1.
         -5    1    1    2    0  503  0.26809613024E+01 -0.51953046292E+01  0.14461804348E+02  0.16291486387E+02  0.47000000000E+01 0. -1.
<mgrwt>
<rscale>  2 0.75012495E+01</rscale>
<asrwt>0</asrwt>
<pdfrwt beam="1">  1       21 0.21999280E-01 0.75012495E+01</pdfrwt>
<pdfrwt beam="2">  1       21 0.15770307E-03 0.75012495E+01</pdfrwt>
<totfact> 0.46785094E+08</totfact>
</mgrwt>
</event>
<event>
 4    1  0.3989279E+006  0.1005345E+02  0.7546771E-02  0.2071958E+00
         21   -1    0    0  501  502  0.00000000000E+00  0.00000000000E+00  0.18426375990E+02  0.18426375990E+02  0.00000000000E+00 0. -1.
         21   -1    0    0  502  503 -0.00000000000E+00 -0.00000000000E+00 -0.21617440106E+02  0.21617440106E+02  0.00000000000E+00 0.  1.
          5    1    1    2  501    0  0.70108371612E+01  0.54616917611E+01  0.15700679654E+02  0.18643584854E+02  0.47000000000E+01 0. -1.
         -5    1    1    2    0  503 -0.70108371612E+01 -0.54616917611E+01 -0.18891743770E+02  0.21400231243E+02  0.47000000000E+01 0.  1.
<mgrwt>
<rscale>  2 0.10053453E+02</rscale>
<asrwt>0</asrwt>
<pdfrwt beam="1">  1       21 0.28348271E-02 0.10053453E+02</pdfrwt>
<pdfrwt beam="2">  1       21 0.33257600E-02 0.10053453E+02</pdfrwt>
<totfact> 0.17142259E+08</totfact>
</mgrwt>
</event>
<event>
 4    1  0.3989279E+006  0.7668692E+01  0.7546771E-02  0.2238432E+00
         21   -1    0    0  503  502  0.00000000000E+00  0.00000000000E+00  0.46167119162E+02  0.46167119162E+02  0.00000000000E+00 0. -1.
         21   -1    0    0  501  503 -0.00000000000E+00 -0.00000000000E+00 -0.13355213806E+01  0.13355213806E+01  0.00000000000E+00 0.  1.
          5    1    1    2  501    0 -0.25885513945E-01 -0.60595515176E+01  0.17310844514E+02  0.18933414178E+02  0.47000000000E+01 0.  1.
         -5    1    1    2    0  502  0.25885513945E-01  0.60595515176E+01  0.27520753267E+02  0.28569226364E+02  0.47000000000E+01 0. -1.
<mgrwt>
<rscale>  2 0.76686918E+01</rscale>
<asrwt>0</asrwt>
<pdfrwt beam="1">  1       21 0.71026325E-02 0.76686918E+01</pdfrwt>
<pdfrwt beam="2">  1       21 0.20546486E-03 0.76686918E+01</pdfrwt>
<totfact> 0.19848204E+09</totfact>
</mgrwt>
</event>
<event>
 4    1  0.3989279E+006  0.5307381E+01  0.7546771E-02  0.2515352E+00
         21   -1    0    0  503  502  0.00000000000E+00  0.00000000000E+00  0.43711746088E+03  0.43711746088E+03  0.00000000000E+00 0.  1.
         21   -1    0    0  501  503 -0.00000000000E+00 -0.00000000000E+00 -0.12100164050E+00  0.12100164050E+00  0.00000000000E+00 0.  1.
          5    1    1    2  501    0 -0.10038019934E+01 -0.22518160279E+01  0.36796678139E+03  0.36800505499E+03  0.47000000000E+01 0.  1.
         -5    1    1    2    0  502  0.10038019934E+01  0.22518160279E+01  0.69029677847E+02  0.69233407525E+02  0.47000000000E+01 0.  1.
<mgrwt>
<rscale>  2 0.53073811E+01</rscale>
<asrwt>0</asrwt>
<pdfrwt beam="1">  1       21 0.67247576E-01 0.53073811E+01</pdfrwt>
<pdfrwt beam="2">  1       21 0.18615987E-04 0.53073811E+01</pdfrwt>
<totfact> 0.91752950E+08</totfact>
</mgrwt>
</event>
<event>
 4    1  0.3989279E+006  0.5342864E+01  0.7546771E-02  0.2509702E+00
         21   -1    0    0  501  502  0.00000000000E+00  0.00000000000E+00  0.10861250803E+02  0.10861250803E+02  0.00000000000E+00 0.  1.
         21   -1    0    0  502  503 -0.00000000000E+00 -0.00000000000E+00 -0.38029926422E+01  0.38029926422E+01  0.00000000000E+00 0. -1.
          5    1    1    2  501    0  0.16604922268E+01  0.19232678179E+01  0.76042115232E+01  0.92935583296E+01  0.47000000000E+01 0.  1.
         -5    1    1    2    0  503 -0.16604922268E+01 -0.19232678179E+01 -0.54595336272E+00  0.53706851154E+01  0.47000000000E+01 0. -1.
<mgrwt>
<rscale>  2 0.53428638E+01</rscale>
<asrwt>0</asrwt>
<pdfrwt beam="1">  1       21 0.16709617E-02 0.53428638E+01</pdfrwt>
<pdfrwt beam="2">  1       21 0.58507579E-03 0.53428638E+01</pdfrwt>
<totfact> 0.29008948E+09</totfact>
</mgrwt>
</event>
<event>
 4    1  0.3989279E+006  0.7333166E+01  0.7546771E-02  0.2268661E+00
         21   -1    0    0  501  502  0.00000000000E+00  0.00000000000E+00  0.33790725629E+01  0.33790725629E+01  0.00000000000E+00 0.  1.
         21   -1    0    0  502  503 -0.00000000000E+00 -0.00000000000E+00 -0.15941076917E+02  0.15941076917E+02  0.00000000000E+00 0.  1.
          5    1    1    2  501    0 -0.21927312059E+01 -0.51843281075E+01 -0.58845484280E+01  0.94022996267E+01  0.47000000000E+01 0.  1.
         -5    1    1    2    0  503  0.21927312059E+01  0.51843281075E+01 -0.66774559261E+01  0.99178498533E+01  0.47000000000E+01 0.  1.
<mgrwt>
<rscale>  2 0.73331663E+01</rscale>
<asrwt>0</asrwt>
<pdfrwt beam="1">  1       21 0.51985733E-03 0.73331663E+01</pdfrwt>
<pdfrwt beam="2">  1       21 0.24524733E-02 0.73331663E+01</pdfrwt>
<totfact> 0.25819285E+09</totfact>
</mgrwt>
</event>
<event>
 4    1  0.3989279E+006  0.5287463E+01  0.7546771E-02  0.2518553E+00
         21   -1    0    0  503  502  0.00000000000E+00  0.00000000000E+00  0.18550669360E+03  0.18550669360E+03  0.00000000000E+00 0. -1.
         21   -1    0    0  501  503 -0.00000000000E+00 -0.00000000000E+00 -0.15112509652E+00  0.15112509652E+00  0.00000000000E+00 0. -1.
          5    1    1    2  501    0  0.32058892756E+00 -0.24009339617E+01  0.87798431609E+02  0.87957500272E+02  0.47000000000E+01 0. -1.
         -5    1    1    2    0  502 -0.32058892756E+00  0.24009339617E+01  0.97557136896E+02  0.97700318426E+02  0.47000000000E+01 0. -1.
<mgrwt>
<rscale>  2 0.52874626E+01</rscale>
<asrwt>0</asrwt>
<pdfrwt beam="1">  1       21 0.28539309E-01 0.52874626E+01</pdfrwt>
<pdfrwt beam="2">  1       21 0.23250163E-04 0.52874626E+01</pdfrwt>
<totfact> 0.30639360E+09</totfact>
</mgrwt>
</event>
<event>
 4    1  0.3989279E+006  0.6055501E+01  0.7546771E-02  0.2408256E+00
         21   -1    0    0  501  502  0.00000000000E+00  0.00000000000E+00  0.38206522995E+03  0.38206522995E+03  0.00000000000E+00 0.  1.
         21   -1    0    0  502  503 -0.00000000000E+00 -0.00000000000E+00 -0.28966876346E+00  0.28966876346E+00  0.00000000000E+00 0.  1.
          5    1    1    2  501    0  0.21334915597E+01  0.31665924035E+01  0.34721785140E+03  0.34727065154E+03  0.47000000000E+01 0.  1.
         -5    1    1    2    0  503 -0.21334915597E+01 -0.31665924035E+01  0.34557709789E+02  0.35084247170E+02  0.47000000000E+01 0.  1.
<mgrwt>
<rscale>  2 0.60555011E+01</rscale>
<asrwt>0</asrwt>
<pdfrwt beam="1">  1       21 0.58778863E-01 0.60555011E+01</pdfrwt>
<pdfrwt beam="2">  1       21 0.44564731E-04 0.60555011E+01</pdfrwt>
<totfact> 0.40566763E+08</totfact>
</mgrwt>
</event>
<event>
 4    1  0.3989279E+006  0.6376986E+01  0.7546771E-02  0.2368797E+00
         21   -1    0    0  501  502  0.00000000000E+00  0.00000000000E+00  0.27184401390E+02  0.27184401390E+02  0.00000000000E+00 0.  1.
         21   -1    0    0  502  503 -0.00000000000E+00 -0.00000000000E+00 -0.14970631595E+01  0.14970631595E+01  0.00000000000E+00 0.  1.
          5    1    1    2  501    0 -0.40545785559E+01  0.14616231272E+01  0.12449046155E+02  0.13987304944E+02  0.47000000000E+01 0.  1.
         -5    1    1    2    0  503  0.40545785559E+01 -0.14616231272E+01  0.13238292076E+02  0.14694159606E+02  0.47000000000E+01 0.  1.
<mgrwt>
<rscale>  2 0.63769859E+01</rscale>
<asrwt>0</asrwt>
<pdfrwt beam="1">  1       21 0.41822153E-02 0.63769859E+01</pdfrwt>
<pdfrwt beam="2">  1       21 0.23031743E-03 0.63769859E+01</pdfrwt>
<totfact> 0.32603350E+09</totfact>
</mgrwt>
</event>
<event>
 4    1  0.3989279E+006  0.1100219E+02  0.7546771E-02  0.2022070E+00
         21   -1    0    0  501  502  0.00000000000E+00  0.00000000000E+00  0.12655325527E+04  0.12655325527E+04  0.00000000000E+00 0. -1.
         21   -1    0    0  502  503 -0.00000000000E+00 -0.00000000000E+00 -0.12756224884E+00  0.12756224884E+00  0.00000000000E+00 0. -1.
          5    1    1    2  501    0 -0.63771933771E+01  0.76347547783E+01  0.94922553389E+03  0.94928929324E+03  0.47000000000E+01 0. -1.
         -5    1    1    2    0  503  0.63771933771E+01 -0.76347547783E+01  0.31617945656E+03  0.31637082171E+03  0.47000000000E+01 0. -1.
<mgrwt>
<rscale>  2 0.11002185E+02</rscale>
<asrwt>0</asrwt>
<pdfrwt beam="1">  1       21 0.19468726E+00 0.11002185E+02</pdfrwt>
<pdfrwt beam="2">  1       21 0.19625975E-04 0.11002185E+02</pdfrwt>
<totfact> 0.13531779E+08</totfact>
</mgrwt>
</event>
<event>
 4    1  0.3989279E+006  0.6143084E+01  0.7546771E-02  0.2397165E+00
         21   -1    0    0  503  502  0.00000000000E+00  0.00000000000E+00  0.14042744713E+02  0.14042744713E+02  0.00000000000E+00 0. -1.
         21   -1    0    0  501  503 -0.00000000000E+00 -0.00000000000E+00 -0.28217218217E+01  0.28217218217E+01  0.00000000000E+00 0. -1.
          5    1    1    2  501    0 -0.18306527128E+01  0.35065925115E+01  0.37702779070E+01  0.72078065938E+01  0.47000000000E+01 0. -1.
         -5    1    1    2    0  502  0.18306527128E+01 -0.35065925115E+01  0.74507449844E+01  0.96566599412E+01  0.47000000000E+01 0. -1.
<mgrwt>
<rscale>  2 0.61430839E+01</rscale>
<asrwt>0</asrwt>
<pdfrwt beam="1">  1       21 0.21604222E-02 0.61430839E+01</pdfrwt>
<pdfrwt beam="2">  1       21 0.43411106E-03 0.61430839E+01</pdfrwt>
<totfact> 0.34530409E+09</totfact>
</mgrwt>
</event>
<event>
 4    1  0.3989279E+006  0.5626834E+01  0.7546771E-02  0.2466679E+00
         21   -1    0    0  503  502  0.00000000000E+00  0.00000000000E+00  0.76553238723E+01  0.76553238723E+01  0.00000000000E+00 0.  1.
         21   -1    0    0  501  503 -0.00000000000E+00 -0.00000000000E+00 -0.41888116810E+01  0.41888116810E+01  0.00000000000E+00 0.  1.
          5    1    1    2  501    0 -0.30876977959E+01  0.19335410896E+00  0.10673500082E+01  0.57271720360E+01  0.47000000000E+01 0.  1.
         -5    1    1    2    0  502  0.30876977959E+01 -0.19335410896E+00  0.23991621832E+01  0.61169635173E+01  0.47000000000E+01 0.  1.
<mgrwt>
<rscale>  2 0.56268342E+01</rscale>
<asrwt>0</asrwt>
<pdfrwt beam="1">  1       21 0.11777421E-02 0.56268342E+01</pdfrwt>
<pdfrwt beam="2">  1       21 0.64443257E-03 0.56268342E+01</pdfrwt>
<totfact> 0.43721321E+09</totfact>
</mgrwt>
</event>
<event>
 4    1  0.3989279E+006  0.9427190E+01  0.7546771E-02  0.2109132E+00
         21   -1    0    0  503  502  0.00000000000E+00  0.00000000000E+00  0.13643129481E+02  0.13643129481E+02  0.00000000000E+00 0.  1.
         21   -1    0    0  501  503 -0.00000000000E+00 -0.00000000000E+00 -0.87524590162E+01  0.87524590162E+01  0.00000000000E+00 0.  1.
          5    1    1    2  501    0  0.74652648479E+01 -0.33244148369E+01 -0.32175528253E+01  0.99611525157E+01  0.47000000000E+01 0.  1.
         -5    1    1    2    0  502 -0.74652648479E+01  0.33244148369E+01  0.81082232899E+01  0.12434435981E+02  0.47000000000E+01 0.  1.
<mgrwt>
<rscale>  2 0.94271901E+01</rscale>
<asrwt>0</asrwt>
<pdfrwt beam="1">  1       21 0.20989430E-02 0.94271901E+01</pdfrwt>
<pdfrwt beam="2">  1       21 0.13465322E-02 0.94271901E+01</pdfrwt>
<totfact> 0.98720875E+08</totfact>
</mgrwt>
</event>
<event>
 4    1  0.3989279E+006  0.6401966E+01  0.7546771E-02  0.2365870E+00
         21   -1    0    0  503  502  0.00000000000E+00  0.00000000000E+00  0.11854712029E+02  0.11854712029E+02  0.00000000000E+00 0.  1.
         21   -1    0    0  501  503 -0.00000000000E+00 -0.00000000000E+00 -0.35542027724E+01  0.35542027724E+01  0.00000000000E+00 0. -1.
          5    1    1    2  501    0  0.34831233159E+01  0.26005813863E+01  0.54224756206E+01  0.83897802973E+01  0.47000000000E+01 0.  1.
         -5    1    1    2    0  502 -0.34831233159E+01 -0.26005813863E+01  0.28780336364E+01  0.70191345046E+01  0.47000000000E+01 0. -1.
<mgrwt>
<rscale>  2 0.64019662E+01</rscale>
<asrwt>0</asrwt>
<pdfrwt beam="1">  1       21 0.18238018E-02 0.64019662E+01</pdfrwt>
<pdfrwt beam="2">  1       21 0.54680043E-03 0.64019662E+01</pdfrwt>
<totfact> 0.33135737E+09</totfact>
</mgrwt>
</event>
<event>
 4    1  0.3989279E+006  0.7689462E+01  0.7546771E-02  0.2236631E+00
         21   -1    0    0  503  502  0.00000000000E+00  0.00000000000E+00  0.43702240026E+03  0.43702240026E+03  0.00000000000E+00 0. -1.
         21   -1    0    0  501  503 -0.00000000000E+00 -0.00000000000E+00 -0.14587088539E+00  0.14587088539E+00  0.00000000000E+00 0. -1.
          5    1    1    2  501    0  0.11678590801E+01  0.59727653837E+01  0.15958757468E+03  0.15977271924E+03  0.47000000000E+01 0. -1.
         -5    1    1    2    0  502 -0.11678590801E+01 -0.59727653837E+01  0.27728895469E+03  0.27739555191E+03  0.47000000000E+01 0. -1.
<mgrwt>
<rscale>  2 0.76894617E+01</rscale>
<asrwt>0</asrwt>
<pdfrwt beam="1">  1       21 0.67233167E-01 0.76894617E+01</pdfrwt>
<pdfrwt beam="2">  1       21 0.22442025E-04 0.76894617E+01</pdfrwt>
<totfact> 0.92069560E+08</totfact>
</mgrwt>
</event>
<event>
 4    1  0.3989279E+006  0.6947581E+01  0.7546771E-02  0.2306311E+00
         21   -1    0    0  501  502  0.00000000000E+00  0.00000000000E+00  0.33837717723E+02  0.33837717723E+02  0.00000000000E+00 0. -1.
         21   -1    0    0  502  503 -0.00000000000E+00 -0.00000000000E+00 -0.17831212257E+01  0.17831212257E+01  0.00000000000E+00 0. -1.
          5    1    1    2  501    0  0.45444261505E+01 -0.23509724412E+01  0.80620643444E+01  0.10642638862E+02  0.47000000000E+01 0. -1.
         -5    1    1    2    0  503 -0.45444261505E+01  0.23509724412E+01  0.23992532153E+02  0.24978200087E+02  0.47000000000E+01 0. -1.
<mgrwt>
<rscale>  2 0.69475809E+01</rscale>
<asrwt>0</asrwt>
<pdfrwt beam="1">  1       21 0.52058022E-02 0.69475809E+01</pdfrwt>
<pdfrwt beam="2">  1       21 0.27432637E-03 0.69475809E+01</pdfrwt>
<totfact> 0.19817600E+09</totfact>
</mgrwt>
</event>
<event>
 4    1  0.3989279E+006  0.4862291E+01  0.7546771E-02  0.2592179E+00
         21   -1    0    0  501  502  0.00000000000E+00  0.00000000000E+00  0.96452964396E+03  0.96452964396E+03  0.00000000000E+00 0. -1.
         21   -1    0    0  502  503 -0.00000000000E+00 -0.00000000000E+00 -0.45353407724E-01  0.45353407724E-01  0.00000000000E+00 0. -1.
          5    1    1    2  501    0 -0.62977471341E-01  0.12441476846E+01  0.80918505531E+03  0.80919966362E+03  0.47000000000E+01 0. -1.
         -5    1    1    2    0  503  0.62977471341E-01 -0.12441476846E+01  0.15529923524E+03  0.15537533375E+03  0.47000000000E+01 0. -1.
<mgrwt>
<rscale>  2 0.48622906E+01</rscale>
<asrwt>0</asrwt>
<pdfrwt beam="1">  1       21 0.14837275E+00 0.48622906E+01</pdfrwt>
<pdfrwt beam="2">  1       21 0.69782199E-05 0.48622906E+01</pdfrwt>
<totfact> 0.65004438E+08</totfact>
</mgrwt>
</event>
<event>
 4    1  0.3989279E+006  0.6835029E+01  0.7546771E-02  0.2317954E+00
         21   -1    0    0  503  502  0.00000000000E+00  0.00000000000E+00  0.34680626137E+03  0.34680626137E+03  0.00000000000E+00 0.  1.
         21   -1    0    0  501  503 -0.00000000000E+00 -0.00000000000E+00 -0.58594189229E+00  0.58594189229E+00  0.00000000000E+00 0.  1.
          5    1    1    2  501    0  0.42033263065E+01  0.26381189639E+01  0.20682567601E+02  0.21782704751E+02  0.47000000000E+01 0.  1.
         -5    1    1    2    0  502 -0.42033263065E+01 -0.26381189639E+01  0.32553775187E+03  0.32560949851E+03  0.47000000000E+01 0.  1.
<mgrwt>
<rscale>  2 0.68350292E+01</rscale>
<asrwt>0</asrwt>
<pdfrwt beam="1">  1       21 0.53354645E-01 0.68350292E+01</pdfrwt>
<pdfrwt beam="2">  1       21 0.90145184E-04 0.68350292E+01</pdfrwt>
<totfact> 0.20314822E+08</totfact>
</mgrwt>
</event>
<event>
 4    1  0.3989279E+006  0.5180422E+01  0.7546771E-02  0.2536109E+00
         21   -1    0    0  501  502  0.00000000000E+00  0.00000000000E+00  0.19615665994E+02  0.19615665994E+02  0.00000000000E+00 0.  1.
         21   -1    0    0  502  503 -0.00000000000E+00 -0.00000000000E+00 -0.54021058073E+01  0.54021058073E+01  0.00000000000E+00 0.  1.
          5    1    1    2  501    0 -0.14192888042E+01  0.16529957723E+01  0.17916233839E+02  0.18650153101E+02  0.47000000000E+01 0.  1.
         -5    1    1    2    0  503  0.14192888042E+01 -0.16529957723E+01 -0.37026736522E+01  0.63676186999E+01  0.47000000000E+01 0.  1.
<mgrwt>
<rscale>  2 0.51804224E+01</rscale>
<asrwt>0</asrwt>
<pdfrwt beam="1">  1       21 0.30177947E-02 0.51804224E+01</pdfrwt>
<pdfrwt beam="2">  1       21 0.83109321E-03 0.51804224E+01</pdfrwt>
<totfact> 0.74397075E+08</totfact>
</mgrwt>
</event>
<event>
 4    1  0.3989279E+006  0.4851223E+01  0.7546771E-02  0.2594243E+00
         21   -1    0    0  503  502  0.00000000000E+00  0.00000000000E+00  0.17974049156E+00  0.17974049156E+00  0.00000000000E+00 0.  1.
         21   -1    0    0  501  503 -0.00000000000E+00 -0.00000000000E+00 -0.33732605273E+03  0.33732605273E+03  0.00000000000E+00 0.  1.
          5    1    1    2  501    0  0.11893037107E+01 -0.17296456464E+00 -0.30057241718E+03  0.30061156386E+03  0.47000000000E+01 0.  1.
         -5    1    1    2    0  502 -0.11893037107E+01  0.17296456464E+00 -0.36573895064E+02  0.36894229362E+02  0.47000000000E+01 0.  1.
<mgrwt>
<rscale>  2 0.48512225E+01</rscale>
<asrwt>0</asrwt>
<pdfrwt beam="1">  1       21 0.27652089E-04 0.48512225E+01</pdfrwt>
<pdfrwt beam="2">  1       21 0.51896868E-01 0.48512225E+01</pdfrwt>
<totfact> 0.80992935E+08</totfact>
</mgrwt>
</event>
<event>
 4    1  0.3989279E+006  0.4740815E+01  0.7546771E-02  0.2615294E+00
         21   -1    0    0  501  502  0.00000000000E+00  0.00000000000E+00  0.20170980877E+03  0.20170980877E+03  0.00000000000E+00 0.  1.
         21   -1    0    0  502  503 -0.00000000000E+00 -0.00000000000E+00 -0.17897623846E+00  0.17897623846E+00  0.00000000000E+00 0.  1.
          5    1    1    2  501    0  0.45590632606E+00 -0.42128196385E+00  0.16278147160E+03  0.16285049224E+03  0.47000000000E+01 0.  1.
         -5    1    1    2    0  503 -0.45590632606E+00  0.42128196385E+00  0.38749360936E+02  0.39038292765E+02  0.47000000000E+01 0.  1.
<mgrwt>
<rscale>  2 0.47408152E+01</rscale>
<asrwt>0</asrwt>
<pdfrwt beam="1">  1       21 0.31032096E-01 0.47408152E+01</pdfrwt>
<pdfrwt beam="2">  1       21 0.27534967E-04 0.47408152E+01</pdfrwt>
<totfact> 0.19277817E+09</totfact>
</mgrwt>
</event>
<event>
 4    1  0.3989279E+006  0.5803663E+01  0.7546771E-02  0.2441700E+00
         21   -1    0    0  501  502  0.00000000000E+00  0.00000000000E+00  0.20062113280E+02  0.20062113280E+02  0.00000000000E+00 0.  1.
         21   -1    0    0  502  503 -0.00000000000E+00 -0.00000000000E+00 -0.19388736491E+01  0.19388736491E+01  0.00000000000E+00 0.  1.
          5    1    1    2  501    0  0.32721387124E+01 -0.94106966108E+00  0.50335884784E+01  0.76824160802E+01  0.47000000000E+01 0.  1.
         -5    1    1    2    0  503 -0.32721387124E+01  0.94106966108E+00  0.13089651153E+02  0.14318570849E+02  0.47000000000E+01 0.  1.
<mgrwt>
<rscale>  2 0.58036630E+01</rscale>
<asrwt>0</asrwt>
<pdfrwt beam="1">  1       21 0.30864788E-02 0.58036630E+01</pdfrwt>
<pdfrwt beam="2">  1       21 0.29828827E-03 0.58036630E+01</pdfrwt>
<totfact> 0.32861802E+09</totfact>
</mgrwt>
</event>
<event>
 4    1  0.3989279E+006  0.6391310E+01  0.7546771E-02  0.2367116E+00
         21   -1    0    0  501  502  0.00000000000E+00  0.00000000000E+00  0.34175804790E+03  0.34175804790E+03  0.00000000000E+00 0.  1.
         21   -1    0    0  502  503 -0.00000000000E+00 -0.00000000000E+00 -0.13953709691E+00  0.13953709691E+00  0.00000000000E+00 0.  1.
          5    1    1    2  501    0 -0.30318386471E+01 -0.30930233062E+01  0.23554749534E+03  0.23563418979E+03  0.47000000000E+01 0.  1.
         -5    1    1    2    0  503  0.30318386471E+01  0.30930233062E+01  0.10607101546E+03  0.10626339521E+03  0.47000000000E+01 0.  1.
<mgrwt>
<rscale>  2 0.63913096E+01</rscale>
<asrwt>0</asrwt>
<pdfrwt beam="1">  1       21 0.52577491E-01 0.63913096E+01</pdfrwt>
<pdfrwt beam="2">  1       21 0.21467519E-04 0.63913096E+01</pdfrwt>
<totfact> 0.13721323E+09</totfact>
</mgrwt>
</event>
<event>
 4    1  0.3989279E+006  0.4756063E+01  0.7546771E-02  0.2612337E+00
         21   -1    0    0  501  502  0.00000000000E+00  0.00000000000E+00  0.11227745954E+04  0.11227745954E+04  0.00000000000E+00 0.  1.
         21   -1    0    0  502  503 -0.00000000000E+00 -0.00000000000E+00 -0.27656505279E-01  0.27656505279E-01  0.00000000000E+00 0.  1.
          5    1    1    2  501    0  0.64517520471E+00  0.33747146708E+00  0.85391709438E+03  0.85393033920E+03  0.47000000000E+01 0. -1.
         -5    1    1    2    0  503 -0.64517520471E+00 -0.33747146708E+00  0.26882984450E+03  0.26887191269E+03  0.47000000000E+01 0. -1.
<mgrwt>
<rscale>  2 0.47560633E+01</rscale>
<asrwt>0</asrwt>
<pdfrwt beam="1">  1       21 0.17269805E+00 0.47560633E+01</pdfrwt>
<pdfrwt beam="2">  1       21 0.42557462E-05 0.47560633E+01</pdfrwt>
<totfact> 0.90345039E+08</totfact>
</mgrwt>
</event>
<event>
 4    1  0.3989279E+006  0.5283231E+01  0.7546771E-02  0.2519235E+00
         21   -1    0    0  501  502  0.00000000000E+00  0.00000000000E+00  0.15026817949E+03  0.15026817949E+03  0.00000000000E+00 0. -1.
         21   -1    0    0  502  503 -0.00000000000E+00 -0.00000000000E+00 -0.53760787515E+00  0.53760787515E+00  0.00000000000E+00 0. -1.
          5    1    1    2  501    0  0.19738259679E+01  0.13879982628E+01  0.13586642727E+03  0.13596910895E+03  0.47000000000E+01 0. -1.
         -5    1    1    2    0  503 -0.19738259679E+01 -0.13879982628E+01  0.13864144342E+02  0.14836678418E+02  0.47000000000E+01 0. -1.
<mgrwt>
<rscale>  2 0.52832308E+01</rscale>
<asrwt>0</asrwt>
<pdfrwt beam="1">  1       21 0.23118148E-01 0.52832308E+01</pdfrwt>
<pdfrwt beam="2">  1       21 0.82709024E-04 0.52832308E+01</pdfrwt>
<totfact> 0.80124523E+08</totfact>
</mgrwt>
</event>
<event>
 4    1  0.3989279E+006  0.5265980E+01  0.7546771E-02  0.2522027E+00
         21   -1    0    0  503  502  0.00000000000E+00  0.00000000000E+00  0.27742260089E+02  0.27742260089E+02  0.00000000000E+00 0. -1.
         21   -1    0    0  501  503 -0.00000000000E+00 -0.00000000000E+00 -0.12863993178E+01  0.12863993178E+01  0.00000000000E+00 0.  1.
          5    1    1    2  501    0 -0.13874016636E+01  0.19276042004E+01  0.63743878649E+01  0.82682139536E+01  0.47000000000E+01 0.  1.
         -5    1    1    2    0  502  0.13874016636E+01 -0.19276042004E+01  0.20081472906E+02  0.20760445453E+02  0.47000000000E+01 0. -1.
<mgrwt>
<rscale>  2 0.52659796E+01</rscale>
<asrwt>0</asrwt>
<pdfrwt beam="1">  1       21 0.42680396E-02 0.52659796E+01</pdfrwt>
<pdfrwt beam="2">  1       21 0.19790761E-03 0.52659796E+01</pdfrwt>
<totfact> 0.32701100E+09</totfact>
</mgrwt>
</event>
<event>
 4    1  0.3989279E+006  0.9335961E+01  0.7546771E-02  0.2114873E+00
         21   -1    0    0  501  502  0.00000000000E+00  0.00000000000E+00  0.39816022895E+00  0.39816022895E+00  0.00000000000E+00 0.  1.
         21   -1    0    0  502  503 -0.00000000000E+00 -0.00000000000E+00 -0.37445090831E+03  0.37445090831E+03  0.00000000000E+00 0.  1.
          5    1    1    2  501    0  0.33974391641E+01 -0.73162536837E+01 -0.66229651683E+02  0.66884429600E+02  0.47000000000E+01 0.  1.
         -5    1    1    2    0  503 -0.33974391641E+01  0.73162536837E+01 -0.30782309640E+03  0.30796463894E+03  0.47000000000E+01 0.  1.
<mgrwt>
<rscale>  2 0.93359606E+01</rscale>
<asrwt>0</asrwt>
<pdfrwt beam="1">  1       21 0.61255633E-04 0.93359606E+01</pdfrwt>
<pdfrwt beam="2">  1       21 0.57607632E-01 0.93359606E+01</pdfrwt>
<totfact> 0.35250016E+08</totfact>
</mgrwt>
</event>
<event>
 4    1  0.3989279E+006  0.7976960E+01  0.7546771E-02  0.2212489E+00
         21   -1    0    0  501  502  0.00000000000E+00  0.00000000000E+00  0.10471817050E+02  0.10471817050E+02  0.00000000000E+00 0. -1.
         21   -1    0    0  502  503 -0.00000000000E+00 -0.00000000000E+00 -0.30936406631E+02  0.30936406631E+02  0.00000000000E+00 0. -1.
          5    1    1    2  501    0  0.95501854973E+00 -0.63741535432E+01  0.83274287709E+01  0.11531607163E+02  0.47000000000E+01 0. -1.
         -5    1    1    2    0  503 -0.95501854973E+00  0.63741535432E+01 -0.28792018351E+02  0.29876616518E+02  0.47000000000E+01 0. -1.
<mgrwt>
<rscale>  2 0.79769602E+01</rscale>
<asrwt>0</asrwt>
<pdfrwt beam="1">  1       21 0.16110488E-02 0.79769602E+01</pdfrwt>
<pdfrwt beam="2">  1       21 0.47594472E-02 0.79769602E+01</pdfrwt>
<totfact> 0.20306499E+08</totfact>
</mgrwt>
</event>
<event>
 4    1  0.3989279E+006  0.6370132E+01  0.7546771E-02  0.2369604E+00
         21   -1    0    0  503  502  0.00000000000E+00  0.00000000000E+00  0.10307115342E+03  0.10307115342E+03  0.00000000000E+00 0. -1.
         21   -1    0    0  501  503 -0.00000000000E+00 -0.00000000000E+00 -0.18407211886E+01  0.18407211886E+01  0.00000000000E+00 0.  1.
          5    1    1    2  501    0 -0.42826694382E+01  0.38382330592E+00  0.41060160032E+01  0.75787825715E+01  0.47000000000E+01 0.  1.
         -5    1    1    2    0  502  0.42826694382E+01 -0.38382330592E+00  0.97124416231E+02  0.97333092040E+02  0.47000000000E+01 0. -1.
<mgrwt>
<rscale>  2 0.63701317E+01</rscale>
<asrwt>0</asrwt>
<pdfrwt beam="1">  1       21 0.15857096E-01 0.63701317E+01</pdfrwt>
<pdfrwt beam="2">  1       21 0.28318796E-03 0.63701317E+01</pdfrwt>
<totfact> 0.32027197E+08</totfact>
</mgrwt>
</event>
<event>
 4    1  0.3989279E+006  0.8294501E+01  0.7546771E-02  0.2187402E+00
         21   -1    0    0  503  502  0.00000000000E+00  0.00000000000E+00  0.32239829753E+01  0.32239829753E+01  0.00000000000E+00 0.  1.
         21   -1    0    0  501  503 -0.00000000000E+00 -0.00000000000E+00 -0.45349284611E+02  0.45349284611E+02  0.00000000000E+00 0. -1.
          5    1    1    2  501    0 -0.28851138902E+01  0.61955516064E+01 -0.38734202010E+02  0.39612335797E+02  0.47000000000E+01 0. -1.
         -5    1    1    2    0  502  0.28851138902E+01 -0.61955516064E+01 -0.33910996248E+01  0.89609317893E+01  0.47000000000E+01 0.  1.
<mgrwt>
<rscale>  2 0.82945007E+01</rscale>
<asrwt>0</asrwt>
<pdfrwt beam="1">  1       21 0.49599739E-03 0.82945007E+01</pdfrwt>
<pdfrwt beam="2">  1       21 0.69768129E-02 0.82945007E+01</pdfrwt>
<totfact> 0.62746252E+08</totfact>
</mgrwt>
</event>
<event>
 4    1  0.3989279E+006  0.8003448E+01  0.7546771E-02  0.2210335E+00
         21   -1    0    0  503  502  0.00000000000E+00  0.00000000000E+00  0.50558641403E+02  0.50558641403E+02  0.00000000000E+00 0.  1.
         21   -1    0    0  501  503 -0.00000000000E+00 -0.00000000000E+00 -0.18476721745E+01  0.18476721745E+01  0.00000000000E+00 0. -1.
          5    1    1    2  501    0  0.60408856869E+01 -0.23394195181E+01  0.96653422139E+01  0.12548865434E+02  0.47000000000E+01 0. -1.
         -5    1    1    2    0  502 -0.60408856869E+01  0.23394195181E+01  0.39045627014E+02  0.39857448143E+02  0.47000000000E+01 0.  1.
<mgrwt>
<rscale>  2 0.80034482E+01</rscale>
<asrwt>0</asrwt>
<pdfrwt beam="1">  1       21 0.77782515E-02 0.80034482E+01</pdfrwt>
<pdfrwt beam="2">  1       21 0.28425730E-03 0.80034482E+01</pdfrwt>
<totfact> 0.11332632E+09</totfact>
</mgrwt>
</event>
<event>
 4    1  0.3989279E+006  0.6797179E+01  0.7546771E-02  0.2321940E+00
         21   -1    0    0  503  502  0.00000000000E+00  0.00000000000E+00  0.87806140601E+00  0.87806140601E+00  0.00000000000E+00 0.  1.
         21   -1    0    0  501  503 -0.00000000000E+00 -0.00000000000E+00 -0.58763413133E+02  0.58763413133E+02  0.00000000000E+00 0.  1.
          5    1    1    2  501    0  0.29720117469E+01 -0.39088092951E+01 -0.38586473831E+02  0.39180576906E+02  0.47000000000E+01 0.  1.
         -5    1    1    2    0  502 -0.29720117469E+01  0.39088092951E+01 -0.19298877896E+02  0.20460897634E+02  0.47000000000E+01 0.  1.
<mgrwt>
<rscale>  2 0.67971791E+01</rscale>
<asrwt>0</asrwt>
<pdfrwt beam="1">  1       21 0.13508637E-03 0.67971791E+01</pdfrwt>
<pdfrwt beam="2">  1       21 0.90405248E-02 0.67971791E+01</pdfrwt>
<totfact> 0.22253019E+09</totfact>
</mgrwt>
</event>
<event>
 4    1  0.3989279E+006  0.1694403E+02  0.7546771E-02  0.1813958E+00
         21   -1    0    0  501  502  0.00000000000E+00  0.00000000000E+00  0.17744674867E+01  0.17744674867E+01  0.00000000000E+00 0. -1.
         21   -1    0    0  502  503 -0.00000000000E+00 -0.00000000000E+00 -0.16917092126E+03  0.16917092126E+03  0.00000000000E+00 0.  1.
          5    1    1    2  501    0 -0.16274299028E+02  0.39682073077E+00 -0.10154532267E+03  0.10294927310E+03  0.47000000000E+01 0.  1.
         -5    1    1    2    0  503  0.16274299028E+02 -0.39682073077E+00 -0.65851131102E+02  0.67996115646E+02  0.47000000000E+01 0. -1.
<mgrwt>
<rscale>  2 0.16944034E+02</rscale>
<asrwt>0</asrwt>
<pdfrwt beam="1">  1       21 0.27299488E-03 0.16944034E+02</pdfrwt>
<pdfrwt beam="2">  1       21 0.26026307E-01 0.16944034E+02</pdfrwt>
<totfact> 0.23823636E+08</totfact>
</mgrwt>
</event>
<event>
 4    1  0.3989279E+006  0.6710727E+01  0.7546771E-02  0.2331184E+00
         21   -1    0    0  503  502  0.00000000000E+00  0.00000000000E+00  0.68396774667E+01  0.68396774667E+01  0.00000000000E+00 0. -1.
         21   -1    0    0  501  503 -0.00000000000E+00 -0.00000000000E+00 -0.13529795461E+02  0.13529795461E+02  0.00000000000E+00 0.  1.
          5    1    1    2  501    0  0.43115959903E+01 -0.20866217786E+01 -0.10642300375E+02  0.12581431068E+02  0.47000000000E+01 0.  1.
         -5    1    1    2    0  502 -0.43115959903E+01  0.20866217786E+01  0.39521823815E+01  0.77880418596E+01  0.47000000000E+01 0. -1.
<mgrwt>
<rscale>  2 0.67107265E+01</rscale>
<asrwt>0</asrwt>
<pdfrwt beam="1">  1       21 0.10522581E-02 0.67107265E+01</pdfrwt>
<pdfrwt beam="2">  1       21 0.20815070E-02 0.67107265E+01</pdfrwt>
<totfact> 0.11304775E+09</totfact>
</mgrwt>
</event>
<event>
 4    1  0.3989279E+006  0.6013285E+01  0.7546771E-02  0.2413698E+00
         21   -1    0    0  501  502  0.00000000000E+00  0.00000000000E+00  0.13682184542E+04  0.13682184542E+04  0.00000000000E+00 0.  1.
         21   -1    0    0  502  503 -0.00000000000E+00 -0.00000000000E+00 -0.27222178294E-01  0.27222178294E-01  0.00000000000E+00 0.  1.
          5    1    1    2  501    0  0.32375666346E+01 -0.18941386408E+01  0.80092911446E+03  0.80095168767E+03  0.47000000000E+01 0.  1.
         -5    1    1    2    0  503 -0.32375666346E+01  0.18941386408E+01  0.56726211758E+03  0.56729398873E+03  0.47000000000E+01 0.  1.
<mgrwt>
<rscale>  2 0.60132852E+01</rscale>
<asrwt>0</asrwt>
<pdfrwt beam="1">  1       21 0.21044008E+00 0.60132852E+01</pdfrwt>
<pdfrwt beam="2">  1       21 0.41891233E-05 0.60132852E+01</pdfrwt>
<totfact> 0.69481696E+08</totfact>
</mgrwt>
</event>
<event>
 4    1  0.3989279E+006  0.5705953E+01  0.7546771E-02  0.2455341E+00
         21   -1    0    0  501  502  0.00000000000E+00  0.00000000000E+00  0.32665538350E+01  0.32665538350E+01  0.00000000000E+00 0. -1.
         21   -1    0    0  502  503 -0.00000000000E+00 -0.00000000000E+00 -0.11714563324E+02  0.11714563324E+02  0.00000000000E+00 0.  1.
          5    1    1    2  501    0  0.22365356432E+01 -0.23379062189E+01 -0.71170932081E+01  0.91220015844E+01  0.47000000000E+01 0.  1.
         -5    1    1    2    0  503 -0.22365356432E+01  0.23379062189E+01 -0.13309162810E+01  0.58591155748E+01  0.47000000000E+01 0. -1.
<mgrwt>
<rscale>  2 0.57059528E+01</rscale>
<asrwt>0</asrwt>
<pdfrwt beam="1">  1       21 0.50254675E-03 0.57059528E+01</pdfrwt>
<pdfrwt beam="2">  1       21 0.18022405E-02 0.57059528E+01</pdfrwt>
<totfact> 0.34207629E+09</totfact>
</mgrwt>
</event>
<event>
 4    1  0.3989279E+006  0.6956804E+01  0.7546771E-02  0.2305371E+00
         21   -1    0    0  501  502  0.00000000000E+00  0.00000000000E+00  0.19209468591E+00  0.19209468591E+00  0.00000000000E+00 0.  1.
         21   -1    0    0  502  503 -0.00000000000E+00 -0.00000000000E+00 -0.32831653295E+03  0.32831653295E+03  0.00000000000E+00 0.  1.
          5    1    1    2  501    0  0.21758701434E+01 -0.46446429857E+01 -0.84841501678E+02  0.85126244638E+02  0.47000000000E+01 0.  1.
         -5    1    1    2    0  503 -0.21758701434E+01  0.46446429857E+01 -0.24328293658E+03  0.24338238299E+03  0.47000000000E+01 0.  1.
<mgrwt>
<rscale>  2 0.69568038E+01</rscale>
<asrwt>0</asrwt>
<pdfrwt beam="1">  1       21 0.29553065E-04 0.69568038E+01</pdfrwt>
<pdfrwt beam="2">  1       21 0.50510173E-01 0.69568038E+01</pdfrwt>
<totfact> 0.10194642E+09</totfact>
</mgrwt>
</event>
<event>
 4    1  0.3989279E+006  0.5737058E+01  0.7546771E-02  0.2450956E+00
         21   -1    0    0  503  502  0.00000000000E+00  0.00000000000E+00  0.32212834955E+01  0.32212834955E+01  0.00000000000E+00 0.  1.
         21   -1    0    0  501  503 -0.00000000000E+00 -0.00000000000E+00 -0.10808906027E+03  0.10808906027E+03  0.00000000000E+00 0. -1.
          5    1    1    2  501    0 -0.13345237718E+01 -0.30071390600E+01 -0.10539323953E+03  0.10554927180E+03  0.47000000000E+01 0. -1.
         -5    1    1    2    0  502  0.13345237718E+01  0.30071390600E+01  0.52546275977E+00  0.57610719606E+01  0.47000000000E+01 0.  1.
<mgrwt>
<rscale>  2 0.57370584E+01</rscale>
<asrwt>0</asrwt>
<pdfrwt beam="1">  1       21 0.49558206E-03 0.57370584E+01</pdfrwt>
<pdfrwt beam="2">  1       21 0.16629087E-01 0.57370584E+01</pdfrwt>
<totfact> 0.12768032E+08</totfact>
</mgrwt>
</event>
<event>
 4    1  0.3989279E+006  0.4968417E+01  0.7546771E-02  0.2572787E+00
         21   -1    0    0  503  502  0.00000000000E+00  0.00000000000E+00  0.34663012284E+03  0.34663012284E+03  0.00000000000E+00 0.  1.
         21   -1    0    0  501  503 -0.00000000000E+00 -0.00000000000E+00 -0.71259983720E-01  0.71259983720E-01  0.00000000000E+00 0.  1.
          5    1    1    2  501    0  0.16088931267E+01 -0.81411969221E-01  0.16891017585E+03  0.16898323192E+03  0.47000000000E+01 0.  1.
         -5    1    1    2    0  502 -0.16088931267E+01  0.81411969221E-01  0.17764868700E+03  0.17771815090E+03  0.47000000000E+01 0.  1.
<mgrwt>
<rscale>  2 0.49684168E+01</rscale>
<asrwt>0</asrwt>
<pdfrwt beam="1">  1       21 0.53326361E-01 0.49684168E+01</pdfrwt>
<pdfrwt beam="2">  1       21 0.10963352E-04 0.49684168E+01</pdfrwt>
<totfact> 0.26780709E+09</totfact>
</mgrwt>
</event>
<event>
 4    1  0.3989279E+006  0.2240922E+02  0.7546771E-02  0.1701269E+00
         21   -1    0    0  501  502  0.00000000000E+00  0.00000000000E+00  0.90510866815E+02  0.90510866815E+02  0.00000000000E+00 0. -1.
         21   -1    0    0  502  503 -0.00000000000E+00 -0.00000000000E+00 -0.68783247505E+01  0.68783247505E+01  0.00000000000E+00 0.  1.
          5    1    1    2  501    0 -0.21908241833E+02 -0.33459543359E+00  0.63229614859E+02  0.67083211086E+02  0.47000000000E+01 0. -1.
         -5    1    1    2    0  503  0.21908241833E+02  0.33459543359E+00  0.20402927205E+02  0.30305980479E+02  0.47000000000E+01 0.  1.
<mgrwt>
<rscale>  2 0.22409217E+02</rscale>
<asrwt>0</asrwt>
<pdfrwt beam="1">  1       21 0.13924748E-01 0.22409217E+02</pdfrwt>
<pdfrwt beam="2">  1       21 0.10582039E-02 0.22409217E+02</pdfrwt>
<totfact> 0.10459674E+08</totfact>
</mgrwt>
</event>
<event>
 4    1  0.3989279E+006  0.5381524E+01  0.7546771E-02  0.2503619E+00
         21   -1    0    0  501  502  0.00000000000E+00  0.00000000000E+00  0.35177552822E+04  0.35177552822E+04  0.00000000000E+00 0. -1.
         21   -1    0    0  502  503 -0.00000000000E+00 -0.00000000000E+00 -0.18062999875E+00  0.18062999875E+00  0.00000000000E+00 0. -1.
          5    1    1    2  501    0  0.18459504577E+01 -0.18609857767E+01  0.34772027148E+04  0.34772068791E+04  0.47000000000E+01 0. -1.
         -5    1    1    2    0  503 -0.18459504577E+01  0.18609857767E+01  0.40371937408E+02  0.40729033026E+02  0.47000000000E+01 0. -1.
<mgrwt>
<rscale>  2 0.53815241E+01</rscale>
<asrwt>0</asrwt>
<pdfrwt beam="1">  1       21 0.54113826E+00 0.53815241E+01</pdfrwt>
<pdfrwt beam="2">  1       21 0.27792048E-04 0.53815241E+01</pdfrwt>
<totfact> 0.15704032E+06</totfact>
</mgrwt>
</event>
<event>
 4    1  0.3989279E+006  0.6525324E+01  0.7546771E-02  0.2351686E+00
         21   -1    0    0  503  502  0.00000000000E+00  0.00000000000E+00  0.12100069513E+00  0.12100069513E+00  0.00000000000E+00 0.  1.
         21   -1    0    0  501  503 -0.00000000000E+00 -0.00000000000E+00 -0.45054227478E+03  0.45054227478E+03  0.00000000000E+00 0.  1.
          5    1    1    2  501    0 -0.36650363535E+01  0.26565700307E+01 -0.33064718859E+03  0.33071157098E+03  0.47000000000E+01 0.  1.
         -5    1    1    2    0  502  0.36650363535E+01 -0.26565700307E+01 -0.11977408549E+03  0.11995170449E+03  0.47000000000E+01 0.  1.
<mgrwt>
<rscale>  2 0.65253242E+01</rscale>
<asrwt>0</asrwt>
<pdfrwt beam="1">  1       21 0.18615864E-04 0.65253242E+01</pdfrwt>
<pdfrwt beam="2">  1       21 0.69312810E-01 0.65253242E+01</pdfrwt>
<totfact> 0.10056171E+09</totfact>
</mgrwt>
</event>
<event>
 4    1  0.3989279E+006  0.1282352E+02  0.7546771E-02  0.1942800E+00
         21   -1    0    0  503  502  0.00000000000E+00  0.00000000000E+00  0.27600071920E+02  0.27600071920E+02  0.00000000000E+00 0. -1.
         21   -1    0    0  501  503 -0.00000000000E+00 -0.00000000000E+00 -0.69403772068E+01  0.69403772068E+01  0.00000000000E+00 0.  1.
          5    1    1    2  501    0 -0.19907195396E+01 -0.11763911193E+02  0.38325187037E+01  0.13383974390E+02  0.47000000000E+01 0.  1.
         -5    1    1    2    0  502  0.19907195396E+01  0.11763911193E+02  0.16827176009E+02  0.21156474737E+02  0.47000000000E+01 0. -1.
<mgrwt>
<rscale>  2 0.12823516E+02</rscale>
<asrwt>0</asrwt>
<pdfrwt beam="1">  1       21 0.42461648E-02 0.12823516E+02</pdfrwt>
<pdfrwt beam="2">  1       21 0.10677504E-02 0.12823516E+02</pdfrwt>
<totfact> 0.56588011E+08</totfact>
</mgrwt>
</event>
<event>
 4    1  0.3989279E+006  0.6399104E+01  0.7546771E-02  0.2366204E+00
         21   -1    0    0  503  502  0.00000000000E+00  0.00000000000E+00  0.11867683463E+02  0.11867683463E+02  0.00000000000E+00 0.  1.
         21   -1    0    0  501  503 -0.00000000000E+00 -0.00000000000E+00 -0.50074021505E+01  0.50074021505E+01  0.00000000000E+00 0. -1.
          5    1    1    2  501    0  0.43295498158E+01 -0.33693523653E+00 -0.12747676494E+01  0.65248417238E+01  0.47000000000E+01 0. -1.
         -5    1    1    2    0  502 -0.43295498158E+01  0.33693523653E+00  0.81350489617E+01  0.10350243889E+02  0.47000000000E+01 0.  1.
<mgrwt>
<rscale>  2 0.63991036E+01</rscale>
<asrwt>0</asrwt>
<pdfrwt beam="1">  1       21 0.18257974E-02 0.63991036E+01</pdfrwt>
<pdfrwt beam="2">  1       21 0.77036957E-03 0.63991036E+01</pdfrwt>
<totfact> 0.20447969E+09</totfact>
</mgrwt>
</event>
<event>
 4    1  0.3989279E+006  0.7110116E+01  0.7546771E-02  0.2290034E+00
         21   -1    0    0  503  502  0.00000000000E+00  0.00000000000E+00  0.13932317044E+03  0.13932317044E+03  0.00000000000E+00 0.  1.
         21   -1    0    0  501  503 -0.00000000000E+00 -0.00000000000E+00 -0.39709497579E+00  0.39709497579E+00  0.00000000000E+00 0. -1.
          5    1    1    2  501    0 -0.27268827611E+01 -0.45856138510E+01  0.48948319807E+02  0.49462023371E+02  0.47000000000E+01 0.  1.
         -5    1    1    2    0  502  0.27268827611E+01  0.45856138510E+01  0.89977755657E+02  0.90258242045E+02  0.47000000000E+01 0. -1.
<mgrwt>
<rscale>  2 0.71101156E+01</rscale>
<asrwt>0</asrwt>
<pdfrwt beam="1">  1       21 0.21434295E-01 0.71101156E+01</pdfrwt>
<pdfrwt beam="2">  1       21 0.61091646E-04 0.71101156E+01</pdfrwt>
<totfact> 0.17098318E+09</totfact>
</mgrwt>
</event>
<event>
 4    1  0.3989279E+006  0.7175989E+01  0.7546771E-02  0.2283609E+00
         21   -1    0    0  503  502  0.00000000000E+00  0.00000000000E+00  0.44385950656E+02  0.44385950656E+02  0.00000000000E+00 0.  1.
         21   -1    0    0  501  503 -0.00000000000E+00 -0.00000000000E+00 -0.23267033534E+01  0.23267033534E+01  0.00000000000E+00 0. -1.
          5    1    1    2  501    0 -0.54201082919E+01 -0.16507741412E+00  0.44915699685E+01  0.84657560342E+01  0.47000000000E+01 0. -1.
         -5    1    1    2    0  502  0.54201082919E+01  0.16507741412E+00  0.37567677334E+02  0.38246897976E+02  0.47000000000E+01 0.  1.
<mgrwt>
<rscale>  2 0.71759894E+01</rscale>
<asrwt>0</asrwt>
<pdfrwt beam="1">  1       21 0.68286072E-02 0.71759894E+01</pdfrwt>
<pdfrwt beam="2">  1       21 0.35795439E-03 0.71759894E+01</pdfrwt>
<totfact> 0.93095806E+08</totfact>
</mgrwt>
</event>
<event>
 4    1  0.3989279E+006  0.7149853E+01  0.7546771E-02  0.2286146E+00
         21   -1    0    0  501  502  0.00000000000E+00  0.00000000000E+00  0.18777668216E+03  0.18777668216E+03  0.00000000000E+00 0. -1.
         21   -1    0    0  502  503 -0.00000000000E+00 -0.00000000000E+00 -0.27756188874E+00  0.27756188874E+00  0.00000000000E+00 0.  1.
          5    1    1    2  501    0  0.26314963586E+01  0.47016617311E+01  0.10676894424E+03  0.10700807376E+03  0.47000000000E+01 0. -1.
         -5    1    1    2    0  503 -0.26314963586E+01 -0.47016617311E+01  0.80730176033E+02  0.81046170288E+02  0.47000000000E+01 0.  1.
<mgrwt>
<rscale>  2 0.71498529E+01</rscale>
<asrwt>0</asrwt>
<pdfrwt beam="1">  1       21 0.28888619E-01 0.71498529E+01</pdfrwt>
<pdfrwt beam="2">  1       21 0.42701979E-04 0.71498529E+01</pdfrwt>
<totfact> 0.16894173E+09</totfact>
</mgrwt>
</event>
<event>
 4    1  0.3989279E+006  0.5264095E+01  0.7546771E-02  0.2522333E+00
         21   -1    0    0  503  502  0.00000000000E+00  0.00000000000E+00  0.25180920338E+04  0.25180920338E+04  0.00000000000E+00 0.  1.
         21   -1    0    0  501  503 -0.00000000000E+00 -0.00000000000E+00 -0.68037106432E-01  0.68037106432E-01  0.00000000000E+00 0. -1.
          5    1    1    2  501    0 -0.17386199794E+01  0.16117997314E+01  0.10624510706E+03  0.10637543641E+03  0.47000000000E+01 0. -1.
         -5    1    1    2    0  502  0.17386199794E+01 -0.16117997314E+01  0.24117788896E+04  0.24117846345E+04  0.47000000000E+01 0.  1.
<mgrwt>
<rscale>  2 0.52640952E+01</rscale>
<asrwt>0</asrwt>
<pdfrwt beam="1">  1       21 0.38732415E+00 0.52640952E+01</pdfrwt>
<pdfrwt beam="2">  1       21 0.10469264E-04 0.52640952E+01</pdfrwt>
<totfact> 0.37667871E+07</totfact>
</mgrwt>
</event>
<event>
 4    1  0.3989279E+006  0.4951901E+01  0.7546771E-02  0.2575758E+00
         21   -1    0    0  501  502  0.00000000000E+00  0.00000000000E+00  0.20644642846E+01  0.20644642846E+01  0.00000000000E+00 0.  1.
         21   -1    0    0  502  503 -0.00000000000E+00 -0.00000000000E+00 -0.41923404235E+03  0.41923404235E+03  0.00000000000E+00 0.  1.
          5    1    1    2  501    0 -0.10556117822E+01 -0.11476103034E+01 -0.94105343573E+00  0.50405264816E+01  0.47000000000E+01 0.  1.
         -5    1    1    2    0  503  0.10556117822E+01  0.11476103034E+01 -0.41622852463E+03  0.41625798015E+03  0.47000000000E+01 0.  1.
<mgrwt>
<rscale>  2 0.49519012E+01</rscale>
<asrwt>0</asrwt>
<pdfrwt beam="1">  1       21 0.31760984E-03 0.49519012E+01</pdfrwt>
<pdfrwt beam="2">  1       21 0.64497555E-01 0.49519012E+01</pdfrwt>
<totfact> 0.21458535E+07</totfact>
</mgrwt>
</event>
<event>
 4    1  0.3989279E+006  0.5713410E+01  0.7546771E-02  0.2454286E+00
         21   -1    0    0  501  502  0.00000000000E+00  0.00000000000E+00  0.39872848219E+02  0.39872848219E+02  0.00000000000E+00 0. -1.
         21   -1    0    0  502  503 -0.00000000000E+00 -0.00000000000E+00 -0.85204184765E+00  0.85204184765E+00  0.00000000000E+00 0. -1.
          5    1    1    2  501    0  0.13014785542E+01 -0.29764419525E+01  0.23539732035E+02  0.24223171498E+02  0.47000000000E+01 0. -1.
         -5    1    1    2    0  503 -0.13014785542E+01  0.29764419525E+01  0.15481074336E+02  0.16501718569E+02  0.47000000000E+01 0. -1.
<mgrwt>
<rscale>  2 0.57134099E+01</rscale>
<asrwt>0</asrwt>
<pdfrwt beam="1">  1       21 0.61342829E-02 0.57134099E+01</pdfrwt>
<pdfrwt beam="2">  1       21 0.13108339E-03 0.57134099E+01</pdfrwt>
<totfact> 0.36037933E+09</totfact>
</mgrwt>
</event>
<event>
 4    1  0.3989279E+006  0.4791927E+01  0.7546771E-02  0.2605444E+00
         21   -1    0    0  501  502  0.00000000000E+00  0.00000000000E+00  0.19873333396E+03  0.19873333396E+03  0.00000000000E+00 0. -1.
         21   -1    0    0  502  503 -0.00000000000E+00 -0.00000000000E+00 -0.15631258833E+00  0.15631258833E+00  0.00000000000E+00 0. -1.
          5    1    1    2  501    0 -0.93046813957E+00  0.82396496536E-01  0.15007461919E+03  0.15015110351E+03  0.47000000000E+01 0. -1.
         -5    1    1    2    0  503  0.93046813957E+00 -0.82396496536E-01  0.48502402184E+02  0.48738543041E+02  0.47000000000E+01 0. -1.
<mgrwt>
<rscale>  2 0.47919266E+01</rscale>
<asrwt>0</asrwt>
<pdfrwt beam="1">  1       21 0.30574157E-01 0.47919266E+01</pdfrwt>
<pdfrwt beam="2">  1       21 0.24048250E-04 0.47919266E+01</pdfrwt>
<totfact> 0.23871787E+09</totfact>
</mgrwt>
</event>
<event>
 4    1  0.3989279E+006  0.6398395E+01  0.7546771E-02  0.2366287E+00
         21   -1    0    0  503  502  0.00000000000E+00  0.00000000000E+00  0.49800650079E+01  0.49800650079E+01  0.00000000000E+00 0.  1.
         21   -1    0    0  501  503 -0.00000000000E+00 -0.00000000000E+00 -0.83364887055E+01  0.83364887055E+01  0.00000000000E+00 0.  1.
          5    1    1    2  501    0 -0.33721936579E+01  0.27345500920E+01 -0.24630243653E+01  0.68560880461E+01  0.47000000000E+01 0.  1.
         -5    1    1    2    0  502  0.33721936579E+01 -0.27345500920E+01 -0.89339933230E+00  0.64604656674E+01  0.47000000000E+01 0.  1.
<mgrwt>
<rscale>  2 0.63983947E+01</rscale>
<asrwt>0</asrwt>
<pdfrwt beam="1">  1       21 0.76616386E-03 0.63983947E+01</pdfrwt>
<pdfrwt beam="2">  1       21 0.12825367E-02 0.63983947E+01</pdfrwt>
<totfact> 0.34163372E+09</totfact>
</mgrwt>
</event>
<event>
 4    1  0.3989279E+006  0.4976927E+01  0.7546771E-02  0.2571263E+00
         21   -1    0    0  501  502  0.00000000000E+00  0.00000000000E+00  0.32326090032E+01  0.32326090032E+01  0.00000000000E+00 0.  1.
         21   -1    0    0  502  503 -0.00000000000E+00 -0.00000000000E+00 -0.95914205823E+01  0.95914205823E+01  0.00000000000E+00 0.  1.
          5    1    1    2  501    0 -0.13680819917E+01  0.89897367495E+00 -0.30391177974E+00  0.49861973862E+01  0.47000000000E+01 0.  1.
         -5    1    1    2    0  503  0.13680819917E+01 -0.89897367495E+00 -0.60548997993E+01  0.78378321993E+01  0.47000000000E+01 0.  1.
<mgrwt>
<rscale>  2 0.49769270E+01</rscale>
<asrwt>0</asrwt>
<pdfrwt beam="1">  1       21 0.49732447E-03 0.49769270E+01</pdfrwt>
<pdfrwt beam="2">  1       21 0.14756031E-02 0.49769270E+01</pdfrwt>
<totfact> 0.40238685E+09</totfact>
</mgrwt>
</event>
<event>
 4    1  0.3989279E+006  0.5503897E+01  0.7546771E-02  0.2484842E+00
         21   -1    0    0  503  502  0.00000000000E+00  0.00000000000E+00  0.70898611280E+01  0.70898611280E+01  0.00000000000E+00 0. -1.
         21   -1    0    0  501  503 -0.00000000000E+00 -0.00000000000E+00 -0.12360860514E+02  0.12360860514E+02  0.00000000000E+00 0. -1.
          5    1    1    2  501    0 -0.27708876935E+01  0.72460892045E+00 -0.10502445320E+02  0.11857243963E+02  0.47000000000E+01 0. -1.
         -5    1    1    2    0  502  0.27708876935E+01 -0.72460892045E+00  0.52314459341E+01  0.75934776788E+01  0.47000000000E+01 0. -1.
<mgrwt>
<rscale>  2 0.55038965E+01</rscale>
<asrwt>0</asrwt>
<pdfrwt beam="1">  1       21 0.10907479E-02 0.55038965E+01</pdfrwt>
<pdfrwt beam="2">  1       21 0.19016708E-02 0.55038965E+01</pdfrwt>
<totfact> 0.10405556E+09</totfact>
</mgrwt>
</event>
<event>
 4    1  0.3989279E+006  0.1071652E+02  0.7546771E-02  0.2036365E+00
         21   -1    0    0  503  502  0.00000000000E+00  0.00000000000E+00  0.47945998394E+02  0.47945998394E+02  0.00000000000E+00 0. -1.
         21   -1    0    0  501  503 -0.00000000000E+00 -0.00000000000E+00 -0.39385293360E+01  0.39385293360E+01  0.00000000000E+00 0.  1.
          5    1    1    2  501    0  0.91747547736E+01 -0.29287712410E+01  0.57647205076E+01  0.12168641201E+02  0.47000000000E+01 0.  1.
         -5    1    1    2    0  502 -0.91747547736E+01  0.29287712410E+01  0.38242748551E+02  0.39715886530E+02  0.47000000000E+01 0. -1.
<mgrwt>
<rscale>  2 0.10716521E+02</rscale>
<asrwt>0</asrwt>
<pdfrwt beam="1">  1       21 0.73763070E-02 0.10716521E+02</pdfrwt>
<pdfrwt beam="2">  1       21 0.60592762E-03 0.10716521E+02</pdfrwt>
<totfact> 0.50030896E+08</totfact>
</mgrwt>
</event>
<event>
 4    1  0.3989279E+006  0.7836104E+01  0.7546771E-02  0.2224138E+00
         21   -1    0    0  503  502  0.00000000000E+00  0.00000000000E+00  0.56493062174E+02  0.56493062174E+02  0.00000000000E+00 0. -1.
         21   -1    0    0  501  503 -0.00000000000E+00 -0.00000000000E+00 -0.20306439447E+01  0.20306439447E+01  0.00000000000E+00 0. -1.
          5    1    1    2  501    0  0.59950334084E+01 -0.18368742953E+01  0.72830433794E+01  0.10698002319E+02  0.47000000000E+01 0. -1.
         -5    1    1    2    0  502 -0.59950334084E+01  0.18368742953E+01  0.47179374850E+02  0.47825703800E+02  0.47000000000E+01 0. -1.
<mgrwt>
<rscale>  2 0.78361044E+01</rscale>
<asrwt>0</asrwt>
<pdfrwt beam="1">  1       21 0.86912391E-02 0.78361044E+01</pdfrwt>
<pdfrwt beam="2">  1       21 0.31240680E-03 0.78361044E+01</pdfrwt>
<totfact> 0.82515665E+08</totfact>
</mgrwt>
</event>
<event>
 4    1  0.3989279E+006  0.5229379E+01  0.7546771E-02  0.2528003E+00
         21   -1    0    0  501  502  0.00000000000E+00  0.00000000000E+00  0.46993369614E+00  0.46993369614E+00  0.00000000000E+00 0.  1.
         21   -1    0    0  502  503 -0.00000000000E+00 -0.00000000000E+00 -0.15624012242E+03  0.15624012242E+03  0.00000000000E+00 0.  1.
          5    1    1    2  501    0  0.20012211378E+01 -0.11187141583E+01 -0.15813899650E+02  0.16656104874E+02  0.47000000000E+01 0.  1.
         -5    1    1    2    0  503 -0.20012211378E+01  0.11187141583E+01 -0.13995628907E+03  0.14005395124E+03  0.47000000000E+01 0.  1.
<mgrwt>
<rscale>  2 0.52293793E+01</rscale>
<asrwt>0</asrwt>
<pdfrwt beam="1">  1       21 0.72297428E-04 0.52293793E+01</pdfrwt>
<pdfrwt beam="2">  1       21 0.24036963E-01 0.52293793E+01</pdfrwt>
<totfact> 0.89167821E+08</totfact>
</mgrwt>
</event>
<event>
 4    1  0.3989279E+006  0.4797969E+01  0.7546771E-02  0.2604292E+00
         21   -1    0    0  503  502  0.00000000000E+00  0.00000000000E+00  0.20789424312E+03  0.20789424312E+03  0.00000000000E+00 0.  1.
         21   -1    0    0  501  503 -0.00000000000E+00 -0.00000000000E+00 -0.24342462302E+00  0.24342462302E+00  0.00000000000E+00 0.  1.
          5    1    1    2  501    0 -0.39339620037E+00  0.88076710449E+00  0.26989878979E+02  0.27413027534E+02  0.47000000000E+01 0. -1.
         -5    1    1    2    0  502  0.39339620037E+00 -0.88076710449E+00  0.18066093951E+03  0.18072464020E+03  0.47000000000E+01 0. -1.
<mgrwt>
<rscale>  2 0.47979695E+01</rscale>
<asrwt>0</asrwt>
<pdfrwt beam="1">  1       21 0.31983588E-01 0.47979695E+01</pdfrwt>
<pdfrwt beam="2">  1       21 0.37450108E-04 0.47979695E+01</pdfrwt>
<totfact> 0.12347729E+09</totfact>
</mgrwt>
</event>
<event>
 4    1  0.3989279E+006  0.5532045E+01  0.7546771E-02  0.2480623E+00
         21   -1    0    0  503  502  0.00000000000E+00  0.00000000000E+00  0.49324065270E+00  0.49324065270E+00  0.00000000000E+00 0.  1.
         21   -1    0    0  501  503 -0.00000000000E+00 -0.00000000000E+00 -0.10722290373E+03  0.10722290373E+03  0.00000000000E+00 0.  1.
          5    1    1    2  501    0 -0.24300383413E+01 -0.16150639600E+01 -0.88324406671E+02  0.88497482064E+02  0.47000000000E+01 0.  1.
         -5    1    1    2    0  502  0.24300383413E+01  0.16150639600E+01 -0.18405256411E+02  0.19218662323E+02  0.47000000000E+01 0.  1.
<mgrwt>
<rscale>  2 0.55320446E+01</rscale>
<asrwt>0</asrwt>
<pdfrwt beam="1">  1       21 0.75883165E-04 0.55320446E+01</pdfrwt>
<pdfrwt beam="2">  1       21 0.16495834E-01 0.55320446E+01</pdfrwt>
<totfact> 0.16032281E+09</totfact>
</mgrwt>
</event>
<event>
 4    1  0.3989279E+006  0.1054610E+02  0.7546771E-02  0.2045179E+00
         21   -1    0    0  501  502  0.00000000000E+00  0.00000000000E+00  0.19179422295E+03  0.19179422295E+03  0.00000000000E+00 0.  1.
         21   -1    0    0  502  503 -0.00000000000E+00 -0.00000000000E+00 -0.10782908902E+01  0.10782908902E+01  0.00000000000E+00 0. -1.
          5    1    1    2  501    0  0.73260967939E+01  0.59547093818E+01  0.16092117139E+03  0.16126637486E+03  0.47000000000E+01 0. -1.
         -5    1    1    2    0  503 -0.73260967939E+01 -0.59547093818E+01  0.29794760672E+02  0.31606138985E+02  0.47000000000E+01 0. -1.
<mgrwt>
<rscale>  2 0.10546102E+02</rscale>
<asrwt>0</asrwt>
<pdfrwt beam="1">  1       21 0.29506776E-01 0.10546102E+02</pdfrwt>
<pdfrwt beam="2">  1       21 0.16589106E-03 0.10546102E+02</pdfrwt>
<totfact> 0.31869028E+08</totfact>
</mgrwt>
</event>
<event>
 4    1  0.3989279E+006  0.7418548E+01  0.7546771E-02  0.2260758E+00
         21   -1    0    0  501  502  0.00000000000E+00  0.00000000000E+00  0.31696959231E+01  0.31696959231E+01  0.00000000000E+00 0. -1.
         21   -1    0    0  502  503 -0.00000000000E+00 -0.00000000000E+00 -0.19120321634E+02  0.19120321634E+02  0.00000000000E+00 0. -1.
          5    1    1    2  501    0  0.39163305278E+01  0.41960945669E+01 -0.45963696236E+01  0.87270538061E+01  0.47000000000E+01 0. -1.
         -5    1    1    2    0  503 -0.39163305278E+01 -0.41960945669E+01 -0.11354256087E+02  0.13562963751E+02  0.47000000000E+01 0. -1.
<mgrwt>
<rscale>  2 0.74185480E+01</rscale>
<asrwt>0</asrwt>
<pdfrwt beam="1">  1       21 0.48764553E-03 0.74185480E+01</pdfrwt>
<pdfrwt beam="2">  1       21 0.29415879E-02 0.74185480E+01</pdfrwt>
<totfact> 0.21819630E+09</totfact>
</mgrwt>
</event>
<event>
 4    1  0.3989279E+006  0.6470055E+01  0.7546771E-02  0.2357985E+00
         21   -1    0    0  503  502  0.00000000000E+00  0.00000000000E+00  0.35216407122E+02  0.35216407122E+02  0.00000000000E+00 0.  1.
         21   -1    0    0  501  503 -0.00000000000E+00 -0.00000000000E+00 -0.39454973747E+01  0.39454973747E+01  0.00000000000E+00 0. -1.
          5    1    1    2  501    0 -0.10393071132E+01  0.43233617328E+01 -0.73216900991E+00  0.65113506592E+01  0.47000000000E+01 0. -1.
         -5    1    1    2    0  502  0.10393071132E+01 -0.43233617328E+01  0.32003078757E+02  0.32650553837E+02  0.47000000000E+01 0.  1.
<mgrwt>
<rscale>  2 0.64700553E+01</rscale>
<asrwt>0</asrwt>
<pdfrwt beam="1">  1       21 0.54179086E-02 0.64700553E+01</pdfrwt>
<pdfrwt beam="2">  1       21 0.60699962E-03 0.64700553E+01</pdfrwt>
<totfact> 0.58617240E+08</totfact>
</mgrwt>
</event>
<event>
 4    1  0.3989279E+006  0.1272397E+02  0.7546771E-02  0.1946677E+00
         21   -1    0    0  501  502  0.00000000000E+00  0.00000000000E+00  0.20992331533E+03  0.20992331533E+03  0.00000000000E+00 0.  1.
         21   -1    0    0  502  503 -0.00000000000E+00 -0.00000000000E+00 -0.29505086626E+01  0.29505086626E+01  0.00000000000E+00 0. -1.
          5    1    1    2  501    0  0.10095941828E+02 -0.61547742535E+01  0.19496092373E+03  0.19537569211E+03  0.47000000000E+01 0.  1.
         -5    1    1    2    0  503 -0.10095941828E+02  0.61547742535E+01  0.12011882935E+02  0.17498131876E+02  0.47000000000E+01 0. -1.
<mgrwt>
<rscale>  2 0.12723965E+02</rscale>
<asrwt>0</asrwt>
<pdfrwt beam="1">  1       21 0.32295883E-01 0.12723965E+02</pdfrwt>
<pdfrwt beam="2">  1       21 0.45392457E-03 0.12723965E+02</pdfrwt>
<totfact> 0.70570321E+07</totfact>
</mgrwt>
</event>
<event>
 4    1  0.3989279E+006  0.6284346E+01  0.7546771E-02  0.2379822E+00
         21   -1    0    0  501  502  0.00000000000E+00  0.00000000000E+00  0.10783975690E+03  0.10783975690E+03  0.00000000000E+00 0. -1.
         21   -1    0    0  502  503 -0.00000000000E+00 -0.00000000000E+00 -0.77628200076E+00  0.77628200076E+00  0.00000000000E+00 0.  1.
          5    1    1    2  501    0  0.23767142287E+01 -0.34284441615E+01  0.93002847692E+02  0.93214927339E+02  0.47000000000E+01 0. -1.
         -5    1    1    2    0  503 -0.23767142287E+01  0.34284441615E+01  0.14060627207E+02  0.15401111562E+02  0.47000000000E+01 0.  1.
<mgrwt>
<rscale>  2 0.62843456E+01</rscale>
<asrwt>0</asrwt>
<pdfrwt beam="1">  1       21 0.16590720E-01 0.62843456E+01</pdfrwt>
<pdfrwt beam="2">  1       21 0.11942809E-03 0.62843456E+01</pdfrwt>
<totfact> 0.95734592E+08</totfact>
</mgrwt>
</event>
<event>
 4    1  0.3989279E+006  0.5892770E+01  0.7546771E-02  0.2429592E+00
         21   -1    0    0  503  502  0.00000000000E+00  0.00000000000E+00  0.35789332465E+00  0.35789332465E+00  0.00000000000E+00 0.  1.
         21   -1    0    0  501  503 -0.00000000000E+00 -0.00000000000E+00 -0.78002324227E+03  0.78002324227E+03  0.00000000000E+00 0.  1.
          5    1    1    2  501    0  0.34404140007E+01  0.89347212446E+00 -0.75495018595E+03  0.75497318363E+03  0.47000000000E+01 0.  1.
         -5    1    1    2    0  502 -0.34404140007E+01 -0.89347212446E+00 -0.24715162995E+02  0.25407951960E+02  0.47000000000E+01 0.  1.
<mgrwt>
<rscale>  2 0.58927702E+01</rscale>
<asrwt>0</asrwt>
<pdfrwt beam="1">  1       21 0.55060920E-04 0.58927702E+01</pdfrwt>
<pdfrwt beam="2">  1       21 0.12000269E+00 0.58927702E+01</pdfrwt>
<totfact> 0.74079380E+07</totfact>
</mgrwt>
</event>
<event>
 4    1  0.3989279E+006  0.8929228E+01  0.7546771E-02  0.2141593E+00
         21   -1    0    0  503  502  0.00000000000E+00  0.00000000000E+00  0.94310388820E+02  0.94310388820E+02  0.00000000000E+00 0. -1.
         21   -1    0    0  501  503 -0.00000000000E+00 -0.00000000000E+00 -0.84786441968E+00  0.84786441968E+00  0.00000000000E+00 0.  1.
          5    1    1    2  501    0 -0.11615902345E+01 -0.75027875967E+01  0.44172262580E+02  0.45065728609E+02  0.47000000000E+01 0.  1.
         -5    1    1    2    0  502  0.11615902345E+01  0.75027875967E+01  0.49290261820E+02  0.50092524631E+02  0.47000000000E+01 0. -1.
<mgrwt>
<rscale>  2 0.89292281E+01</rscale>
<asrwt>0</asrwt>
<pdfrwt beam="1">  1       21 0.14509282E-01 0.89292281E+01</pdfrwt>
<pdfrwt beam="2">  1       21 0.13044075E-03 0.89292281E+01</pdfrwt>
<totfact> 0.13362130E+09</totfact>
</mgrwt>
</event>
<event>
 4    1  0.3989279E+006  0.5820009E+01  0.7546771E-02  0.2439455E+00
         21   -1    0    0  501  502  0.00000000000E+00  0.00000000000E+00  0.74452169769E+02  0.74452169769E+02  0.00000000000E+00 0. -1.
         21   -1    0    0  502  503 -0.00000000000E+00 -0.00000000000E+00 -0.74723217711E+00  0.74723217711E+00  0.00000000000E+00 0. -1.
          5    1    1    2  501    0 -0.34175952944E+01 -0.32023053314E+00  0.60367896387E+02  0.60647798142E+02  0.47000000000E+01 0. -1.
         -5    1    1    2    0  503  0.34175952944E+01  0.32023053314E+00  0.13337041204E+02  0.14551603804E+02  0.47000000000E+01 0. -1.
<mgrwt>
<rscale>  2 0.58200090E+01</rscale>
<asrwt>0</asrwt>
<pdfrwt beam="1">  1       21 0.11454174E-01 0.58200090E+01</pdfrwt>
<pdfrwt beam="2">  1       21 0.11495886E-03 0.58200090E+01</pdfrwt>
<totfact> 0.16956521E+09</totfact>
</mgrwt>
</event>
<event>
 4    1  0.3989279E+006  0.9893522E+01  0.7546771E-02  0.2081099E+00
         21   -1    0    0  503  502  0.00000000000E+00  0.00000000000E+00  0.10992731728E+03  0.10992731728E+03  0.00000000000E+00 0.  1.
         21   -1    0    0  501  503 -0.00000000000E+00 -0.00000000000E+00 -0.12253115148E+01  0.12253115148E+01  0.00000000000E+00 0. -1.
          5    1    1    2  501    0  0.86110456743E+01 -0.12812747138E+01  0.25296272957E+02  0.27162164826E+02  0.47000000000E+01 0. -1.
         -5    1    1    2    0  502 -0.86110456743E+01  0.12812747138E+01  0.83405732810E+02  0.83990463971E+02  0.47000000000E+01 0.  1.
<mgrwt>
<rscale>  2 0.98935217E+01</rscale>
<asrwt>0</asrwt>
<pdfrwt beam="1">  1       21 0.16911887E-01 0.98935217E+01</pdfrwt>
<pdfrwt beam="2">  1       21 0.18850955E-03 0.98935217E+01</pdfrwt>
<totfact> 0.66259653E+08</totfact>
</mgrwt>
</event>
<event>
 4    1  0.3989279E+006  0.5044191E+01  0.7546771E-02  0.2559374E+00
         21   -1    0    0  503  502  0.00000000000E+00  0.00000000000E+00  0.10492302673E+00  0.10492302673E+00  0.00000000000E+00 0. -1.
         21   -1    0    0  501  503 -0.00000000000E+00 -0.00000000000E+00 -0.24748373478E+03  0.24748373478E+03  0.00000000000E+00 0. -1.
          5    1    1    2  501    0  0.52410314879E+00 -0.17547595746E+01 -0.14125617465E+03  0.14134620880E+03  0.47000000000E+01 0.  1.
         -5    1    1    2    0  502 -0.52410314879E+00  0.17547595746E+01 -0.10612263710E+03  0.10624244901E+03  0.47000000000E+01 0.  1.
<mgrwt>
<rscale>  2 0.50441912E+01</rscale>
<asrwt>0</asrwt>
<pdfrwt beam="1">  1       21 0.16141996E-04 0.50441912E+01</pdfrwt>
<pdfrwt beam="2">  1       21 0.38074439E-01 0.50441912E+01</pdfrwt>
<totfact> 0.29329409E+09</totfact>
</mgrwt>
</event>
<event>
 4    1  0.3989279E+006  0.8008349E+01  0.7546771E-02  0.2209938E+00
         21   -1    0    0  503  502  0.00000000000E+00  0.00000000000E+00  0.18424740812E+01  0.18424740812E+01  0.00000000000E+00 0. -1.
         21   -1    0    0  501  503 -0.00000000000E+00 -0.00000000000E+00 -0.38405833323E+02  0.38405833323E+02  0.00000000000E+00 0.  1.
          5    1    1    2  501    0  0.33723420006E+00 -0.64753319459E+01 -0.24440718124E+02  0.25719299235E+02  0.47000000000E+01 0.  1.
         -5    1    1    2    0  502 -0.33723420006E+00  0.64753319459E+01 -0.12122641118E+02  0.14529008170E+02  0.47000000000E+01 0. -1.
<mgrwt>
<rscale>  2 0.80083488E+01</rscale>
<asrwt>0</asrwt>
<pdfrwt beam="1">  1       21 0.28345756E-03 0.80083488E+01</pdfrwt>
<pdfrwt beam="2">  1       21 0.59085896E-02 0.80083488E+01</pdfrwt>
<totfact> 0.17348103E+09</totfact>
</mgrwt>
</event>
<event>
 4    1  0.3989279E+006  0.7334617E+01  0.7546771E-02  0.2268526E+00
         21   -1    0    0  503  502  0.00000000000E+00  0.00000000000E+00  0.17509392082E+01  0.17509392082E+01  0.00000000000E+00 0. -1.
         21   -1    0    0  501  503 -0.00000000000E+00 -0.00000000000E+00 -0.11123563274E+03  0.11123563274E+03  0.00000000000E+00 0.  1.
          5    1    1    2  501    0  0.41935700541E+01  0.37577364860E+01 -0.10280447774E+03  0.10306579091E+03  0.47000000000E+01 0.  1.
         -5    1    1    2    0  502 -0.41935700541E+01 -0.37577364860E+01 -0.66802157899E+01  0.99207810326E+01  0.47000000000E+01 0. -1.
<mgrwt>
<rscale>  2 0.73346175E+01</rscale>
<asrwt>0</asrwt>
<pdfrwt beam="1">  1       21 0.26937529E-03 0.73346175E+01</pdfrwt>
<pdfrwt beam="2">  1       21 0.17113173E-01 0.73346175E+01</pdfrwt>
<totfact> 0.33269478E+08</totfact>
</mgrwt>
</event>
<event>
 4    1  0.3989279E+006  0.6437631E+01  0.7546771E-02  0.2361723E+00
         21   -1    0    0  503  502  0.00000000000E+00  0.00000000000E+00  0.43463052157E+00  0.43463052157E+00  0.00000000000E+00 0.  1.
         21   -1    0    0  501  503 -0.00000000000E+00 -0.00000000000E+00 -0.95352495821E+02  0.95352495821E+02  0.00000000000E+00 0.  1.
          5    1    1    2  501    0 -0.10435184679E+01  0.42736584834E+01 -0.47427929838E+02  0.47862841707E+02  0.47000000000E+01 0.  1.
         -5    1    1    2    0  502  0.10435184679E+01 -0.42736584834E+01 -0.47489935462E+02  0.47924284635E+02  0.47000000000E+01 0.  1.
<mgrwt>
<rscale>  2 0.64376306E+01</rscale>
<asrwt>0</asrwt>
<pdfrwt beam="1">  1       21 0.66866179E-04 0.64376306E+01</pdfrwt>
<pdfrwt beam="2">  1       21 0.14669627E-01 0.64376306E+01</pdfrwt>
<totfact> 0.25907426E+09</totfact>
</mgrwt>
</event>
<event>
 4    1  0.3989279E+006  0.6145731E+01  0.7546771E-02  0.2396834E+00
         21   -1    0    0  503  502  0.00000000000E+00  0.00000000000E+00  0.39780750707E+01  0.39780750707E+01  0.00000000000E+00 0.  1.
         21   -1    0    0  501  503 -0.00000000000E+00 -0.00000000000E+00 -0.11513264529E+02  0.11513264529E+02  0.00000000000E+00 0. -1.
          5    1    1    2  501    0  0.58061815121E+00 -0.39170008439E+01 -0.70109738915E+01  0.93232916910E+01  0.47000000000E+01 0. -1.
         -5    1    1    2    0  502 -0.58061815121E+00  0.39170008439E+01 -0.52421556722E+00  0.61680479091E+01  0.47000000000E+01 0.  1.
<mgrwt>
<rscale>  2 0.61457313E+01</rscale>
<asrwt>0</asrwt>
<pdfrwt beam="1">  1       21 0.61201156E-03 0.61457313E+01</pdfrwt>
<pdfrwt beam="2">  1       21 0.17712714E-02 0.61457313E+01</pdfrwt>
<totfact> 0.28492326E+09</totfact>
</mgrwt>
</event>
<event>
 4    1  0.3989279E+006  0.4926454E+01  0.7546771E-02  0.2580368E+00
         21   -1    0    0  503  502  0.00000000000E+00  0.00000000000E+00  0.29058811724E+02  0.29058811724E+02  0.00000000000E+00 0.  1.
         21   -1    0    0  501  503 -0.00000000000E+00 -0.00000000000E+00 -0.13382443411E+01  0.13382443411E+01  0.00000000000E+00 0. -1.
          5    1    1    2  501    0  0.13118164327E+01  0.67755903930E+00  0.45419872306E+01  0.67007161265E+01  0.47000000000E+01 0.  1.
         -5    1    1    2    0  502 -0.13118164327E+01 -0.67755903930E+00  0.23178580152E+02  0.23696339938E+02  0.47000000000E+01 0.  1.
<mgrwt>
<rscale>  2 0.49264540E+01</rscale>
<asrwt>0</asrwt>
<pdfrwt beam="1">  1       21 0.44705860E-02 0.49264540E+01</pdfrwt>
<pdfrwt beam="2">  1       21 0.20588377E-03 0.49264540E+01</pdfrwt>
<totfact> 0.27107008E+09</totfact>
</mgrwt>
</event>
<event>
 4    1  0.3989279E+006  0.6459681E+01  0.7546771E-02  0.2359178E+00
         21   -1    0    0  501  502  0.00000000000E+00  0.00000000000E+00  0.59190708144E+00  0.59190708144E+00  0.00000000000E+00 0.  1.
         21   -1    0    0  502  503 -0.00000000000E+00 -0.00000000000E+00 -0.71027911526E+02  0.71027911526E+02  0.00000000000E+00 0.  1.
          5    1    1    2  501    0 -0.57192854932E-01  0.44310498962E+01 -0.38314975503E+02  0.38855692273E+02  0.47000000000E+01 0.  1.
         -5    1    1    2    0  503  0.57192854932E-01 -0.44310498962E+01 -0.32121028942E+02  0.32764126335E+02  0.47000000000E+01 0.  1.
<mgrwt>
<rscale>  2 0.64596807E+01</rscale>
<asrwt>0</asrwt>
<pdfrwt beam="1">  1       21 0.91062634E-04 0.64596807E+01</pdfrwt>
<pdfrwt beam="2">  1       21 0.10927370E-01 0.64596807E+01</pdfrwt>
<totfact> 0.27200380E+09</totfact>
</mgrwt>
</event>
<event>
 4    1  0.3989279E+006  0.7206842E+01  0.7546771E-02  0.2280633E+00
         21   -1    0    0  501  502  0.00000000000E+00  0.00000000000E+00  0.13021933433E+01  0.13021933433E+01  0.00000000000E+00 0.  1.
         21   -1    0    0  502  503 -0.00000000000E+00 -0.00000000000E+00 -0.51363278852E+02  0.51363278852E+02  0.00000000000E+00 0.  1.
          5    1    1    2  501    0 -0.23221025610E+01  0.49453425825E+01 -0.12582547879E+02  0.14500313262E+02  0.47000000000E+01 0.  1.
         -5    1    1    2    0  503  0.23221025610E+01 -0.49453425825E+01 -0.37478537629E+02  0.38165158933E+02  0.47000000000E+01 0.  1.
<mgrwt>
<rscale>  2 0.72068421E+01</rscale>
<asrwt>0</asrwt>
<pdfrwt beam="1">  1       21 0.20033747E-03 0.72068421E+01</pdfrwt>
<pdfrwt beam="2">  1       21 0.79020418E-02 0.72068421E+01</pdfrwt>
<totfact> 0.16681279E+09</totfact>
</mgrwt>
</event>
<event>
 4    1  0.3989279E+006  0.4758678E+01  0.7546771E-02  0.2611831E+00
         21   -1    0    0  501  502  0.00000000000E+00  0.00000000000E+00  0.32206100746E+01  0.32206100746E+01  0.00000000000E+00 0. -1.
         21   -1    0    0  502  503 -0.00000000000E+00 -0.00000000000E+00 -0.30210168852E+02  0.30210168852E+02  0.00000000000E+00 0. -1.
          5    1    1    2  501    0  0.65236983340E+00 -0.35977018074E+00  0.11467418455E+01  0.48948991657E+01  0.47000000000E+01 0. -1.
         -5    1    1    2    0  503 -0.65236983340E+00  0.35977018074E+00 -0.28136300622E+02  0.28535879760E+02  0.47000000000E+01 0. -1.
<mgrwt>
<rscale>  2 0.47586785E+01</rscale>
<asrwt>0</asrwt>
<pdfrwt beam="1">  1       21 0.49547845E-03 0.47586785E+01</pdfrwt>
<pdfrwt beam="2">  1       21 0.46477185E-02 0.47586785E+01</pdfrwt>
<totfact> 0.75203741E+08</totfact>
</mgrwt>
</event>
<event>
 4    1  0.3989279E+006  0.7619619E+01  0.7546771E-02  0.2242718E+00
         21   -1    0    0  501  502  0.00000000000E+00  0.00000000000E+00  0.13277065176E+03  0.13277065176E+03  0.00000000000E+00 0. -1.
         21   -1    0    0  502  503 -0.00000000000E+00 -0.00000000000E+00 -0.52964037136E+00  0.52964037136E+00  0.00000000000E+00 0.  1.
          5    1    1    2  501    0  0.55001433612E+01 -0.23910271279E+01  0.93952358423E+02  0.94260830895E+02  0.47000000000E+01 0.  1.
         -5    1    1    2    0  503 -0.55001433612E+01  0.23910271279E+01  0.38288652963E+02  0.39039461234E+02  0.47000000000E+01 0. -1.
<mgrwt>
<rscale>  2 0.76196186E+01</rscale>
<asrwt>0</asrwt>
<pdfrwt beam="1">  1       21 0.20426228E-01 0.76196186E+01</pdfrwt>
<pdfrwt beam="2">  1       21 0.81483240E-04 0.76196186E+01</pdfrwt>
<totfact> 0.13148881E+09</totfact>
</mgrwt>
</event>
<event>
 4    1  0.3989279E+006  0.8860307E+01  0.7546771E-02  0.2146312E+00
         21   -1    0    0  501  502  0.00000000000E+00  0.00000000000E+00  0.13912358688E+01  0.13912358688E+01  0.00000000000E+00 0.  1.
         21   -1    0    0  502  503 -0.00000000000E+00 -0.00000000000E+00 -0.87442823641E+02  0.87442823641E+02  0.00000000000E+00 0.  1.
          5    1    1    2  501    0 -0.73636630303E+01 -0.14803740462E+01 -0.16573084699E+02  0.18792875697E+02  0.47000000000E+01 0.  1.
         -5    1    1    2    0  503  0.73636630303E+01  0.14803740462E+01 -0.69478503073E+02  0.70041183812E+02  0.47000000000E+01 0.  1.
<mgrwt>
<rscale>  2 0.88603070E+01</rscale>
<asrwt>0</asrwt>
<pdfrwt beam="1">  1       21 0.21403620E-03 0.88603070E+01</pdfrwt>
<pdfrwt beam="2">  1       21 0.13452748E-01 0.88603070E+01</pdfrwt>
<totfact> 0.75670557E+08</totfact>
</mgrwt>
</event>
<event>
 4    1  0.3989279E+006  0.8554712E+01  0.7546771E-02  0.2167966E+00
         21   -1    0    0  501  502  0.00000000000E+00  0.00000000000E+00  0.35708874471E+02  0.35708874471E+02  0.00000000000E+00 0.  1.
         21   -1    0    0  502  503 -0.00000000000E+00 -0.00000000000E+00 -0.86172580698E+01  0.86172580698E+01  0.00000000000E+00 0. -1.
          5    1    1    2  501    0 -0.51850391973E+01  0.49202097759E+01  0.32894693274E+02  0.33988879671E+02  0.47000000000E+01 0.  1.
         -5    1    1    2    0  503  0.51850391973E+01 -0.49202097759E+01 -0.58030768722E+01  0.10337252870E+02  0.47000000000E+01 0. -1.
<mgrwt>
<rscale>  2 0.85547119E+01</rscale>
<asrwt>0</asrwt>
<pdfrwt beam="1">  1       21 0.54936729E-02 0.85547119E+01</pdfrwt>
<pdfrwt beam="2">  1       21 0.13257320E-02 0.85547119E+01</pdfrwt>
<totfact> 0.22549126E+08</totfact>
</mgrwt>
</event>
<event>
 4    1  0.3989279E+006  0.4739423E+01  0.7546771E-02  0.2615565E+00
         21   -1    0    0  501  502  0.00000000000E+00  0.00000000000E+00  0.21893714456E+03  0.21893714456E+03  0.00000000000E+00 0. -1.
         21   -1    0    0  502  503 -0.00000000000E+00 -0.00000000000E+00 -0.59869751130E+00  0.59869751130E+00  0.00000000000E+00 0. -1.
          5    1    1    2  501    0  0.42913422384E+00  0.43355813511E+00  0.20909024853E+03  0.20914395558E+03  0.47000000000E+01 0. -1.
         -5    1    1    2    0  503 -0.42913422384E+00 -0.43355813511E+00  0.92481985217E+01  0.10391886486E+02  0.47000000000E+01 0. -1.
<mgrwt>
<rscale>  2 0.47394228E+01</rscale>
<asrwt>0</asrwt>
<pdfrwt beam="1">  1       21 0.33682574E-01 0.47394228E+01</pdfrwt>
<pdfrwt beam="2">  1       21 0.92107484E-04 0.47394228E+01</pdfrwt>
<totfact> 0.34102570E+08</totfact>
</mgrwt>
</event>
<event>
 4    1  0.3989279E+006  0.5159630E+01  0.7546771E-02  0.2539592E+00
         21   -1    0    0  501  502  0.00000000000E+00  0.00000000000E+00  0.95426575105E+01  0.95426575105E+01  0.00000000000E+00 0. -1.
         21   -1    0    0  502  503 -0.00000000000E+00 -0.00000000000E+00 -0.31844943648E+01  0.31844943648E+01  0.00000000000E+00 0.  1.
          5    1    1    2  501    0 -0.15329868375E+01 -0.14770699093E+01  0.93865868134E+00  0.52443173322E+01  0.47000000000E+01 0. -1.
         -5    1    1    2    0  503  0.15329868375E+01  0.14770699093E+01  0.54195044643E+01  0.74828345431E+01  0.47000000000E+01 0. -1.
<mgrwt>
<rscale>  2 0.51596302E+01</rscale>
<asrwt>0</asrwt>
<pdfrwt beam="1">  1       21 0.14681011E-02 0.51596302E+01</pdfrwt>
<pdfrwt beam="2">  1       21 0.48992221E-03 0.51596302E+01</pdfrwt>
<totfact> 0.42958296E+09</totfact>
</mgrwt>
</event>
<event>
 4    1  0.3989279E+006  0.5032469E+01  0.7546771E-02  0.2561426E+00
         21   -1    0    0  503  502  0.00000000000E+00  0.00000000000E+00  0.37380837140E+01  0.37380837140E+01  0.00000000000E+00 0.  1.
         21   -1    0    0  501  503 -0.00000000000E+00 -0.00000000000E+00 -0.14783242967E+02  0.14783242967E+02  0.00000000000E+00 0.  1.
          5    1    1    2  501    0 -0.13816373454E+01  0.11518770353E+01 -0.12338495558E+02  0.13325322326E+02  0.47000000000E+01 0.  1.
         -5    1    1    2    0  502  0.13816373454E+01 -0.11518770353E+01  0.12933363050E+01  0.51960043549E+01  0.47000000000E+01 0.  1.
<mgrwt>
<rscale>  2 0.50324688E+01</rscale>
<asrwt>0</asrwt>
<pdfrwt beam="1">  1       21 0.57508981E-03 0.50324688E+01</pdfrwt>
<pdfrwt beam="2">  1       21 0.22743451E-02 0.50324688E+01</pdfrwt>
<totfact> 0.18067745E+09</totfact>
</mgrwt>
</event>
<event>
 4    1  0.3989279E+006  0.4959537E+01  0.7546771E-02  0.2574382E+00
         21   -1    0    0  501  502  0.00000000000E+00  0.00000000000E+00  0.30676467471E+01  0.30676467471E+01  0.00000000000E+00 0.  1.
         21   -1    0    0  502  503 -0.00000000000E+00 -0.00000000000E+00 -0.16372466951E+02  0.16372466951E+02  0.00000000000E+00 0.  1.
          5    1    1    2  501    0  0.10043543121E+01  0.12240423742E+01  0.29088940789E+00  0.49680603827E+01  0.47000000000E+01 0.  1.
         -5    1    1    2    0  503 -0.10043543121E+01 -0.12240423742E+01 -0.13595709612E+02  0.14472053316E+02  0.47000000000E+01 0.  1.
<mgrwt>
<rscale>  2 0.49595370E+01</rscale>
<asrwt>0</asrwt>
<pdfrwt beam="1">  1       21 0.47194567E-03 0.49595370E+01</pdfrwt>
<pdfrwt beam="2">  1       21 0.25188410E-02 0.49595370E+01</pdfrwt>
<totfact> 0.20201758E+09</totfact>
</mgrwt>
</event>
<event>
 4    1  0.3989279E+006  0.1378924E+02  0.7546771E-02  0.1907432E+00
         21   -1    0    0  501  502  0.00000000000E+00  0.00000000000E+00  0.45159042707E+01  0.45159042707E+01  0.00000000000E+00 0.  1.
         21   -1    0    0  502  503 -0.00000000000E+00 -0.00000000000E+00 -0.63131644526E+02  0.63131644526E+02  0.00000000000E+00 0. -1.
          5    1    1    2  501    0 -0.79644999491E+01 -0.10228390055E+02 -0.97878145599E+01  0.16909894631E+02  0.47000000000E+01 0.  1.
         -5    1    1    2    0  503  0.79644999491E+01  0.10228390055E+02 -0.48827925695E+02  0.50737654166E+02  0.47000000000E+01 0. -1.
<mgrwt>
<rscale>  2 0.13789243E+02</rscale>
<asrwt>0</asrwt>
<pdfrwt beam="1">  1       21 0.69475449E-03 0.13789243E+02</pdfrwt>
<pdfrwt beam="2">  1       21 0.97125608E-02 0.13789243E+02</pdfrwt>
<totfact> 0.29845629E+08</totfact>
</mgrwt>
</event>
<event>
 4    1  0.3989279E+006  0.5821521E+01  0.7546771E-02  0.2439248E+00
         21   -1    0    0  503  502  0.00000000000E+00  0.00000000000E+00  0.20838319709E+01  0.20838319709E+01  0.00000000000E+00 0. -1.
         21   -1    0    0  501  503 -0.00000000000E+00 -0.00000000000E+00 -0.43368921352E+02  0.43368921352E+02  0.00000000000E+00 0. -1.
          5    1    1    2  501    0 -0.27605161175E+01 -0.20444223610E+01 -0.38609317792E+02  0.39045736418E+02  0.47000000000E+01 0. -1.
         -5    1    1    2    0  502  0.27605161175E+01  0.20444223610E+01 -0.26757715887E+01  0.64070169049E+01  0.47000000000E+01 0. -1.
<mgrwt>
<rscale>  2 0.58215215E+01</rscale>
<asrwt>0</asrwt>
<pdfrwt beam="1">  1       21 0.32058956E-03 0.58215215E+01</pdfrwt>
<pdfrwt beam="2">  1       21 0.66721412E-02 0.58215215E+01</pdfrwt>
<totfact> 0.95821428E+08</totfact>
</mgrwt>
</event>
<event>
 4    1  0.3989279E+006  0.6254792E+01  0.7546771E-02  0.2383397E+00
         21   -1    0    0  503  502  0.00000000000E+00  0.00000000000E+00  0.18462122534E+01  0.18462122534E+01  0.00000000000E+00 0.  1.
         21   -1    0    0  501  503 -0.00000000000E+00 -0.00000000000E+00 -0.60102731664E+02  0.60102731664E+02  0.00000000000E+00 0.  1.
          5    1    1    2  501    0 -0.21425561287E+01  0.35273036854E+01 -0.54051189697E+02  0.54411887725E+02  0.47000000000E+01 0.  1.
         -5    1    1    2    0  502  0.21425561287E+01 -0.35273036854E+01 -0.42053297128E+01  0.75370561924E+01  0.47000000000E+01 0.  1.
<mgrwt>
<rscale>  2 0.62547916E+01</rscale>
<asrwt>0</asrwt>
<pdfrwt beam="1">  1       21 0.28403267E-03 0.62547916E+01</pdfrwt>
<pdfrwt beam="2">  1       21 0.92465735E-02 0.62547916E+01</pdfrwt>
<totfact> 0.73030349E+08</totfact>
</mgrwt>
</event>
<event>
 4    1  0.3989279E+006  0.6665341E+01  0.7546771E-02  0.2336115E+00
         21   -1    0    0  503  502  0.00000000000E+00  0.00000000000E+00  0.34638626469E+00  0.34638626469E+00  0.00000000000E+00 0. -1.
         21   -1    0    0  501  503 -0.00000000000E+00 -0.00000000000E+00 -0.13159185198E+03  0.13159185198E+03  0.00000000000E+00 0. -1.
          5    1    1    2  501    0 -0.42750880169E+01  0.20150423807E+01 -0.76123140198E+02  0.76414391622E+02  0.47000000000E+01 0. -1.
         -5    1    1    2    0  502  0.42750880169E+01 -0.20150423807E+01 -0.55122325517E+02  0.55523846622E+02  0.47000000000E+01 0. -1.
<mgrwt>
<rscale>  2 0.66653412E+01</rscale>
<asrwt>0</asrwt>
<pdfrwt beam="1">  1       21 0.53290257E-04 0.66653412E+01</pdfrwt>
<pdfrwt beam="2">  1       21 0.20244876E-01 0.66653412E+01</pdfrwt>
<totfact> 0.21524960E+09</totfact>
</mgrwt>
</event>
<event>
 4    1  0.3989279E+006  0.8564591E+01  0.7546771E-02  0.2167247E+00
         21   -1    0    0  501  502  0.00000000000E+00  0.00000000000E+00  0.76309496359E+00  0.76309496359E+00  0.00000000000E+00 0. -1.
         21   -1    0    0  502  503 -0.00000000000E+00 -0.00000000000E+00 -0.97281749252E+02  0.97281749252E+02  0.00000000000E+00 0.  1.
          5    1    1    2  501    0 -0.19893819469E+01  0.68778324842E+01 -0.42912842294E+02  0.43759161943E+02  0.47000000000E+01 0.  1.
         -5    1    1    2    0  503  0.19893819469E+01 -0.68778324842E+01 -0.53605811994E+02  0.54285682272E+02  0.47000000000E+01 0. -1.
<mgrwt>
<rscale>  2 0.85645911E+01</rscale>
<asrwt>0</asrwt>
<pdfrwt beam="1">  1       21 0.11739923E-03 0.85645911E+01</pdfrwt>
<pdfrwt beam="2">  1       21 0.14966423E-01 0.85645911E+01</pdfrwt>
<totfact> 0.14312609E+09</totfact>
</mgrwt>
</event>
<event>
 4    1  0.3989279E+006  0.4845015E+01  0.7546771E-02  0.2595405E+00
         21   -1    0    0  503  502  0.00000000000E+00  0.00000000000E+00  0.62657217182E+00  0.62657217182E+00  0.00000000000E+00 0. -1.
         21   -1    0    0  501  503 -0.00000000000E+00 -0.00000000000E+00 -0.62446305717E+02  0.62446305717E+02  0.00000000000E+00 0. -1.
          5    1    1    2  501    0 -0.11680549348E+01 -0.14076052852E+00 -0.50856603034E+02  0.51086869526E+02  0.47000000000E+01 0. -1.
         -5    1    1    2    0  502  0.11680549348E+01  0.14076052852E+00 -0.10963130511E+02  0.11986008362E+02  0.47000000000E+01 0. -1.
<mgrwt>
<rscale>  2 0.48450145E+01</rscale>
<asrwt>0</asrwt>
<pdfrwt beam="1">  1       21 0.96395719E-04 0.48450145E+01</pdfrwt>
<pdfrwt beam="2">  1       21 0.96071239E-02 0.48450145E+01</pdfrwt>
<totfact> 0.23694728E+09</totfact>
</mgrwt>
</event>
<event>
 4    1  0.3989279E+006  0.5222340E+01  0.7546771E-02  0.2529161E+00
         21   -1    0    0  503  502  0.00000000000E+00  0.00000000000E+00  0.27247775398E+03  0.27247775398E+03  0.00000000000E+00 0. -1.
         21   -1    0    0  501  503 -0.00000000000E+00 -0.00000000000E+00 -0.85202609925E+00  0.85202609925E+00  0.00000000000E+00 0. -1.
          5    1    1    2  501    0  0.14287678607E+01 -0.17724148417E+01  0.74260536436E+01  0.90784968298E+01  0.47000000000E+01 0. -1.
         -5    1    1    2    0  502 -0.14287678607E+01  0.17724148417E+01  0.26419967424E+03  0.26425128325E+03  0.47000000000E+01 0. -1.
<mgrwt>
<rscale>  2 0.52223397E+01</rscale>
<asrwt>0</asrwt>
<pdfrwt beam="1">  1       21 0.41919585E-01 0.52223397E+01</pdfrwt>
<pdfrwt beam="2">  1       21 0.13108116E-03 0.52223397E+01</pdfrwt>
<totfact> 0.15853387E+08</totfact>
</mgrwt>
</event>
<event>
 4    1  0.3989279E+006  0.5256336E+01  0.7546771E-02  0.2523595E+00
         21   -1    0    0  501  502  0.00000000000E+00  0.00000000000E+00  0.33474700121E+03  0.33474700121E+03  0.00000000000E+00 0.  1.
         21   -1    0    0  502  503 -0.00000000000E+00 -0.00000000000E+00 -0.29438436117E+00  0.29438436117E+00  0.00000000000E+00 0.  1.
          5    1    1    2  501    0 -0.59435860464E+00  0.22772358686E+01  0.30933559615E+03  0.30938025165E+03  0.47000000000E+01 0.  1.
         -5    1    1    2    0  503  0.59435860464E+00 -0.22772358686E+01  0.25117020700E+02  0.25661133923E+02  0.47000000000E+01 0.  1.
<mgrwt>
<rscale>  2 0.52563357E+01</rscale>
<asrwt>0</asrwt>
<pdfrwt beam="1">  1       21 0.51499234E-01 0.52563357E+01</pdfrwt>
<pdfrwt beam="2">  1       21 0.45290170E-04 0.52563357E+01</pdfrwt>
<totfact> 0.45588995E+08</totfact>
</mgrwt>
</event>
<event>
 4    1  0.3989279E+006  0.9341753E+01  0.7546771E-02  0.2114506E+00
         21   -1    0    0  503  502  0.00000000000E+00  0.00000000000E+00  0.98679918335E-01  0.98679918335E-01  0.00000000000E+00 0.  1.
         21   -1    0    0  501  503 -0.00000000000E+00 -0.00000000000E+00 -0.88436384380E+03  0.88436384380E+03  0.00000000000E+00 0.  1.
          5    1    1    2  501    0 -0.77486490027E+01  0.22664477266E+01 -0.44096798361E+03  0.44106692340E+03  0.47000000000E+01 0.  1.
         -5    1    1    2    0  502  0.77486490027E+01 -0.22664477266E+01 -0.44329718027E+03  0.44339560032E+03  0.47000000000E+01 0.  1.
<mgrwt>
<rscale>  2 0.93417529E+01</rscale>
<asrwt>0</asrwt>
<pdfrwt beam="1">  1       21 0.15181539E-04 0.93417529E+01</pdfrwt>
<pdfrwt beam="2">  1       21 0.13605586E+00 0.93417529E+01</pdfrwt>
<totfact> 0.40631915E+08</totfact>
</mgrwt>
</event>
<event>
 4    1  0.3989279E+006  0.6532833E+01  0.7546771E-02  0.2350837E+00
         21   -1    0    0  503  502  0.00000000000E+00  0.00000000000E+00  0.46098979894E+02  0.46098979894E+02  0.00000000000E+00 0. -1.
         21   -1    0    0  501  503 -0.00000000000E+00 -0.00000000000E+00 -0.35396982327E+01  0.35396982327E+01  0.00000000000E+00 0.  1.
          5    1    1    2  501    0 -0.42546890869E+01  0.15765562014E+01 -0.48469548110E-01  0.65330129327E+01  0.47000000000E+01 0.  1.
         -5    1    1    2    0  502  0.42546890869E+01 -0.15765562014E+01  0.42607751209E+02  0.43105665194E+02  0.47000000000E+01 0. -1.
<mgrwt>
<rscale>  2 0.65328331E+01</rscale>
<asrwt>0</asrwt>
<pdfrwt beam="1">  1       21 0.70921503E-02 0.65328331E+01</pdfrwt>
<pdfrwt beam="2">  1       21 0.54456899E-03 0.65328331E+01</pdfrwt>
<totfact> 0.45820857E+08</totfact>
</mgrwt>
</event>
<event>
 4    1  0.3989279E+006  0.5826458E+01  0.7546771E-02  0.2438573E+00
         21   -1    0    0  503  502  0.00000000000E+00  0.00000000000E+00  0.45950047171E+01  0.45950047171E+01  0.00000000000E+00 0.  1.
         21   -1    0    0  501  503 -0.00000000000E+00 -0.00000000000E+00 -0.16991727422E+02  0.16991727422E+02  0.00000000000E+00 0.  1.
          5    1    1    2  501    0  0.34312945778E+01  0.28954330299E+00 -0.14312817480E+02  0.15453296154E+02  0.47000000000E+01 0.  1.
         -5    1    1    2    0  502 -0.34312945778E+01 -0.28954330299E+00  0.19160947746E+01  0.61334359856E+01  0.47000000000E+01 0.  1.
<mgrwt>
<rscale>  2 0.58264584E+01</rscale>
<asrwt>0</asrwt>
<pdfrwt beam="1">  1       21 0.70692380E-03 0.58264584E+01</pdfrwt>
<pdfrwt beam="2">  1       21 0.26141119E-02 0.58264584E+01</pdfrwt>
<totfact> 0.12707135E+09</totfact>
</mgrwt>
</event>
<event>
 4    1  0.3989279E+006  0.5522675E+01  0.7546771E-02  0.2482023E+00
         21   -1    0    0  501  502  0.00000000000E+00  0.00000000000E+00  0.30081553893E+02  0.30081553893E+02  0.00000000000E+00 0.  1.
         21   -1    0    0  502  503 -0.00000000000E+00 -0.00000000000E+00 -0.22382091966E+01  0.22382091966E+01  0.00000000000E+00 0.  1.
          5    1    1    2  501    0  0.28448163049E+01 -0.56298798463E+00  0.25873434174E+02  0.26456275839E+02  0.47000000000E+01 0.  1.
         -5    1    1    2    0  503 -0.28448163049E+01  0.56298798463E+00  0.19699105225E+01  0.58634872513E+01  0.47000000000E+01 0.  1.
<mgrwt>
<rscale>  2 0.55226746E+01</rscale>
<asrwt>0</asrwt>
<pdfrwt beam="1">  1       21 0.46279311E-02 0.55226746E+01</pdfrwt>
<pdfrwt beam="2">  1       21 0.34433990E-03 0.55226746E+01</pdfrwt>
<totfact> 0.14298448E+09</totfact>
</mgrwt>
</event>
<event>
 4    1  0.3989279E+006  0.1007496E+02  0.7546771E-02  0.2070747E+00
         21   -1    0    0  503  502  0.00000000000E+00  0.00000000000E+00  0.12474127969E+02  0.12474127969E+02  0.00000000000E+00 0.  1.
         21   -1    0    0  501  503 -0.00000000000E+00 -0.00000000000E+00 -0.87266002088E+01  0.87266002088E+01  0.00000000000E+00 0. -1.
          5    1    1    2  501    0 -0.84380418078E+01 -0.28660502654E+01 -0.88106068129E+00  0.10113409989E+02  0.47000000000E+01 0.  1.
         -5    1    1    2    0  502  0.84380418078E+01  0.28660502654E+01  0.46285884418E+01  0.11087318190E+02  0.47000000000E+01 0. -1.
<mgrwt>
<rscale>  2 0.10074959E+02</rscale>
<asrwt>0</asrwt>
<pdfrwt beam="1">  1       21 0.19190966E-02 0.10074959E+02</pdfrwt>
<pdfrwt beam="2">  1       21 0.13425539E-02 0.10074959E+02</pdfrwt>
<totfact> 0.11773722E+09</totfact>
</mgrwt>
</event>
<event>
 4    1  0.3989279E+006  0.4816927E+01  0.7546771E-02  0.2600693E+00
         21   -1    0    0  503  502  0.00000000000E+00  0.00000000000E+00  0.30560168429E+02  0.30560168429E+02  0.00000000000E+00 0. -1.
         21   -1    0    0  501  503 -0.00000000000E+00 -0.00000000000E+00 -0.76037360997E+00  0.76037360997E+00  0.00000000000E+00 0. -1.
          5    1    1    2  501    0  0.10240625047E+01 -0.25314347641E+00  0.15502088308E+02  0.16233222956E+02  0.47000000000E+01 0. -1.
         -5    1    1    2    0  502 -0.10240625047E+01  0.25314347641E+00  0.14297706511E+02  0.15087319083E+02  0.47000000000E+01 0. -1.
<mgrwt>
<rscale>  2 0.48169270E+01</rscale>
<asrwt>0</asrwt>
<pdfrwt beam="1">  1       21 0.47015634E-02 0.48169270E+01</pdfrwt>
<pdfrwt beam="2">  1       21 0.11698058E-03 0.48169270E+01</pdfrwt>
<totfact> 0.52371526E+09</totfact>
</mgrwt>
</event>
<event>
 4    1  0.3989279E+006  0.9103056E+01  0.7546771E-02  0.2129942E+00
         21   -1    0    0  503  502  0.00000000000E+00  0.00000000000E+00  0.59219267243E+01  0.59219267243E+01  0.00000000000E+00 0.  1.
         21   -1    0    0  501  503 -0.00000000000E+00 -0.00000000000E+00 -0.14382209222E+02  0.14382209222E+02  0.00000000000E+00 0. -1.
          5    1    1    2  501    0 -0.27219030989E+01 -0.73052635291E+01 -0.25601168595E+01  0.94562059011E+01  0.47000000000E+01 0. -1.
         -5    1    1    2    0  502  0.27219030989E+01  0.73052635291E+01 -0.59001656382E+01  0.10847930045E+02  0.47000000000E+01 0. -1.
<mgrwt>
<rscale>  2 0.91030562E+01</rscale>
<asrwt>0</asrwt>
<pdfrwt beam="1">  1       21 0.91106566E-03 0.91030562E+01</pdfrwt>
<pdfrwt beam="2">  1       21 0.22126476E-02 0.91030562E+01</pdfrwt>
<totfact> 0.15733846E+09</totfact>
</mgrwt>
</event>
<event>
 4    1  0.3989279E+006  0.1134041E+02  0.7546771E-02  0.2005874E+00
         21   -1    0    0  503  502  0.00000000000E+00  0.00000000000E+00  0.12039510508E+01  0.12039510508E+01  0.00000000000E+00 0.  1.
         21   -1    0    0  501  503 -0.00000000000E+00 -0.00000000000E+00 -0.10848445906E+03  0.10848445906E+03  0.00000000000E+00 0. -1.
          5    1    1    2  501    0  0.41556240705E+01  0.94469994110E+01 -0.46845145131E+02  0.48198263783E+02  0.47000000000E+01 0. -1.
         -5    1    1    2    0  502 -0.41556240705E+01 -0.94469994110E+01 -0.60435362883E+02  0.61490146333E+02  0.47000000000E+01 0.  1.
<mgrwt>
<rscale>  2 0.11340415E+02</rscale>
<asrwt>0</asrwt>
<pdfrwt beam="1">  1       21 0.18522320E-03 0.11340415E+02</pdfrwt>
<pdfrwt beam="2">  1       21 0.16689920E-01 0.11340415E+02</pdfrwt>
<totfact> 0.74549376E+08</totfact>
</mgrwt>
</event>
<event>
 4    1  0.3989279E+006  0.5967519E+01  0.7546771E-02  0.2419670E+00
         21   -1    0    0  503  502  0.00000000000E+00  0.00000000000E+00  0.84092614823E-01  0.84092614823E-01  0.00000000000E+00 0.  1.
         21   -1    0    0  501  503 -0.00000000000E+00 -0.00000000000E+00 -0.53757747193E+03  0.53757747193E+03  0.00000000000E+00 0.  1.
          5    1    1    2  501    0 -0.29276128938E+01  0.22249429672E+01 -0.14489493010E+03  0.14501776463E+03  0.47000000000E+01 0.  1.
         -5    1    1    2    0  502  0.29276128938E+01 -0.22249429672E+01 -0.39259844922E+03  0.39264379992E+03  0.47000000000E+01 0.  1.
<mgrwt>
<rscale>  2 0.59675195E+01</rscale>
<asrwt>0</asrwt>
<pdfrwt beam="1">  1       21 0.12937201E-04 0.59675195E+01</pdfrwt>
<pdfrwt beam="2">  1       21 0.82705023E-01 0.59675195E+01</pdfrwt>
<totfact> 0.10928624E+09</totfact>
</mgrwt>
</event>
<event>
 4    1  0.3989279E+006  0.8700702E+01  0.7546771E-02  0.2157470E+00
         21   -1    0    0  501  502  0.00000000000E+00  0.00000000000E+00  0.42235311352E+03  0.42235311352E+03  0.00000000000E+00 0.  1.
         21   -1    0    0  502  503 -0.00000000000E+00 -0.00000000000E+00 -0.36656716589E+00  0.36656716589E+00  0.00000000000E+00 0. -1.
          5    1    1    2  501    0 -0.15661755267E+01 -0.71525734120E+01  0.36208721809E+03  0.36219173889E+03  0.47000000000E+01 0.  1.
         -5    1    1    2    0  503  0.15661755267E+01  0.71525734120E+01  0.59899328266E+02  0.60527941803E+02  0.47000000000E+01 0. -1.
<mgrwt>
<rscale>  2 0.87007018E+01</rscale>
<asrwt>0</asrwt>
<pdfrwt beam="1">  1       21 0.64977013E-01 0.87007018E+01</pdfrwt>
<pdfrwt beam="2">  1       21 0.56395287E-04 0.87007018E+01</pdfrwt>
<totfact> 0.30253362E+08</totfact>
</mgrwt>
</event>
<event>
 4    1  0.3989279E+006  0.7539726E+01  0.7546771E-02  0.2249792E+00
         21   -1    0    0  501  502  0.00000000000E+00  0.00000000000E+00  0.42019649856E+01  0.42019649856E+01  0.00000000000E+00 0. -1.
         21   -1    0    0  502  503 -0.00000000000E+00 -0.00000000000E+00 -0.17675429769E+02  0.17675429769E+02  0.00000000000E+00 0. -1.
          5    1    1    2  501    0  0.28824988114E+01 -0.51428270517E+01 -0.14385223129E+01  0.76757290159E+01  0.47000000000E+01 0. -1.
         -5    1    1    2    0  503 -0.28824988114E+01  0.51428270517E+01 -0.12034942470E+02  0.14201665738E+02  0.47000000000E+01 0. -1.
<mgrwt>
<rscale>  2 0.75397261E+01</rscale>
<asrwt>0</asrwt>
<pdfrwt beam="1">  1       21 0.64645615E-03 0.75397261E+01</pdfrwt>
<pdfrwt beam="2">  1       21 0.27192969E-02 0.75397261E+01</pdfrwt>
<totfact> 0.16659357E+09</totfact>
</mgrwt>
</event>
<event>
 4    1  0.3989279E+006  0.7341546E+01  0.7546771E-02  0.2267879E+00
         21   -1    0    0  503  502  0.00000000000E+00  0.00000000000E+00  0.32481689554E+03  0.32481689554E+03  0.00000000000E+00 0. -1.
         21   -1    0    0  501  503 -0.00000000000E+00 -0.00000000000E+00 -0.23478606550E+00  0.23478606550E+00  0.00000000000E+00 0.  1.
          5    1    1    2  501    0 -0.48564538474E+01  0.28676034722E+01  0.74278725051E+02  0.74640654397E+02  0.47000000000E+01 0.  1.
         -5    1    1    2    0  502  0.48564538474E+01 -0.28676034722E+01  0.25030338443E+03  0.25041102721E+03  0.47000000000E+01 0. -1.
<mgrwt>
<rscale>  2 0.73415457E+01</rscale>
<asrwt>0</asrwt>
<pdfrwt beam="1">  1       21 0.49971471E-01 0.73415457E+01</pdfrwt>
<pdfrwt beam="2">  1       21 0.36121193E-04 0.73415457E+01</pdfrwt>
<totfact> 0.82162587E+08</totfact>
</mgrwt>
</event>
<event>
 4    1  0.3989279E+006  0.6091290E+01  0.7546771E-02  0.2403691E+00
         21   -1    0    0  501  502  0.00000000000E+00  0.00000000000E+00  0.41671621007E+00  0.41671621007E+00  0.00000000000E+00 0. -1.
         21   -1    0    0  502  503 -0.00000000000E+00 -0.00000000000E+00 -0.10851771929E+03  0.10851771929E+03  0.00000000000E+00 0. -1.
          5    1    1    2  501    0  0.28584195302E+01  0.26159613221E+01 -0.30974006612E+02  0.31567275800E+02  0.47000000000E+01 0. -1.
         -5    1    1    2    0  503 -0.28584195302E+01 -0.26159613221E+01 -0.77126996464E+02  0.77367159696E+02  0.47000000000E+01 0. -1.
<mgrwt>
<rscale>  2 0.60912902E+01</rscale>
<asrwt>0</asrwt>
<pdfrwt beam="1">  1       21 0.64110278E-04 0.60912902E+01</pdfrwt>
<pdfrwt beam="2">  1       21 0.16695010E-01 0.60912902E+01</pdfrwt>
<totfact> 0.21348365E+09</totfact>
</mgrwt>
</event>
<event>
 4    1  0.3989279E+006  0.5225325E+01  0.7546771E-02  0.2528669E+00
         21   -1    0    0  501  502  0.00000000000E+00  0.00000000000E+00  0.40706539905E+02  0.40706539905E+02  0.00000000000E+00 0. -1.
         21   -1    0    0  502  503 -0.00000000000E+00 -0.00000000000E+00 -0.13276474204E+01  0.13276474204E+01  0.00000000000E+00 0. -1.
          5    1    1    2  501    0  0.22816767514E+01 -0.89315242614E-01  0.34473009744E+02  0.34866781137E+02  0.47000000000E+01 0. -1.
         -5    1    1    2    0  503 -0.22816767514E+01  0.89315242614E-01  0.49058827405E+01  0.71674061887E+01  0.47000000000E+01 0. -1.
<mgrwt>
<rscale>  2 0.52253254E+01</rscale>
<asrwt>0</asrwt>
<pdfrwt beam="1">  1       21 0.62625436E-02 0.52253254E+01</pdfrwt>
<pdfrwt beam="2">  1       21 0.20425348E-03 0.52253254E+01</pdfrwt>
<totfact> 0.17703984E+09</totfact>
</mgrwt>
</event>
<event>
 4    1  0.3989279E+006  0.6777429E+01  0.7546771E-02  0.2324035E+00
         21   -1    0    0  503  502  0.00000000000E+00  0.00000000000E+00  0.62472415979E+02  0.62472415979E+02  0.00000000000E+00 0. -1.
         21   -1    0    0  501  503 -0.00000000000E+00 -0.00000000000E+00 -0.30479079797E+01  0.30479079797E+01  0.00000000000E+00 0. -1.
          5    1    1    2  501    0  0.34912355384E+01 -0.34139155494E+01  0.11758157613E+01  0.68786690332E+01  0.47000000000E+01 0. -1.
         -5    1    1    2    0  502 -0.34912355384E+01  0.34139155494E+01  0.58248692238E+02  0.58641654926E+02  0.47000000000E+01 0. -1.
<mgrwt>
<rscale>  2 0.67774291E+01</rscale>
<asrwt>0</asrwt>
<pdfrwt beam="1">  1       21 0.96111400E-02 0.67774291E+01</pdfrwt>
<pdfrwt beam="2">  1       21 0.46890897E-03 0.67774291E+01</pdfrwt>
<totfact> 0.36372477E+08</totfact>
</mgrwt>
</event>
<event>
 4    1  0.3989279E+006  0.1324832E+02  0.7546771E-02  0.1926759E+00
         21   -1    0    0  501  502  0.00000000000E+00  0.00000000000E+00  0.31589369158E+01  0.31589369158E+01  0.00000000000E+00 0. -1.
         21   -1    0    0  502  503 -0.00000000000E+00 -0.00000000000E+00 -0.61368091530E+02  0.61368091530E+02  0.00000000000E+00 0.  1.
          5    1    1    2  501    0  0.68564889505E+01  0.10315840947E+02 -0.19180993553E+02  0.23311553548E+02  0.47000000000E+01 0.  1.
         -5    1    1    2    0  503 -0.68564889505E+01 -0.10315840947E+02 -0.39028161062E+02  0.41215474898E+02  0.47000000000E+01 0. -1.
<mgrwt>
<rscale>  2 0.13248321E+02</rscale>
<asrwt>0</asrwt>
<pdfrwt beam="1">  1       21 0.48599030E-03 0.13248321E+02</pdfrwt>
<pdfrwt beam="2">  1       21 0.94412448E-02 0.13248321E+02</pdfrwt>
<totfact> 0.51537806E+08</totfact>
</mgrwt>
</event>
<event>
 4    1  0.3989279E+006  0.6616690E+01  0.7546771E-02  0.2341464E+00
         21   -1    0    0  503  502  0.00000000000E+00  0.00000000000E+00  0.51252780841E+01  0.51252780841E+01  0.00000000000E+00 0.  1.
         21   -1    0    0  501  503 -0.00000000000E+00 -0.00000000000E+00 -0.86045658205E+01  0.86045658205E+01  0.00000000000E+00 0. -1.
          5    1    1    2  501    0  0.43146599111E+01 -0.17533690102E+01 -0.23245993180E+01  0.70131558534E+01  0.47000000000E+01 0. -1.
         -5    1    1    2    0  502 -0.43146599111E+01  0.17533690102E+01 -0.11546884184E+01  0.67166880513E+01  0.47000000000E+01 0. -1.
<mgrwt>
<rscale>  2 0.66166905E+01</rscale>
<asrwt>0</asrwt>
<pdfrwt beam="1">  1       21 0.78850432E-03 0.66166905E+01</pdfrwt>
<pdfrwt beam="2">  1       21 0.13237794E-02 0.66166905E+01</pdfrwt>
<totfact> 0.32266516E+09</totfact>
</mgrwt>
</event>
<event>
 4    1  0.3989279E+006  0.5136465E+01  0.7546771E-02  0.2543500E+00
         21   -1    0    0  503  502  0.00000000000E+00  0.00000000000E+00  0.96561705182E+02  0.96561705182E+02  0.00000000000E+00 0.  1.
         21   -1    0    0  501  503 -0.00000000000E+00 -0.00000000000E+00 -0.27325544936E+00  0.27325544936E+00  0.00000000000E+00 0.  1.
          5    1    1    2  501    0  0.15527446351E+01  0.13719539953E+01  0.47650972039E+02  0.47927011277E+02  0.47000000000E+01 0.  1.
         -5    1    1    2    0  502 -0.15527446351E+01 -0.13719539953E+01  0.48637477693E+02  0.48907949354E+02  0.47000000000E+01 0.  1.
<mgrwt>
<rscale>  2 0.51364651E+01</rscale>
<asrwt>0</asrwt>
<pdfrwt beam="1">  1       21 0.14855620E-01 0.51364651E+01</pdfrwt>
<pdfrwt beam="2">  1       21 0.42039377E-04 0.51364651E+01</pdfrwt>
<totfact> 0.38704510E+09</totfact>
</mgrwt>
</event>
<event>
 4    1  0.3989279E+006  0.4976832E+01  0.7546771E-02  0.2571280E+00
         21   -1    0    0  503  502  0.00000000000E+00  0.00000000000E+00  0.16487453405E+01  0.16487453405E+01  0.00000000000E+00 0. -1.
         21   -1    0    0  501  503 -0.00000000000E+00 -0.00000000000E+00 -0.15936037214E+03  0.15936037214E+03  0.00000000000E+00 0. -1.
          5    1    1    2  501    0 -0.79037152113E+00  0.14332369049E+01 -0.15547189340E+03  0.15555153002E+03  0.47000000000E+01 0. -1.
         -5    1    1    2    0  502  0.79037152113E+00 -0.14332369049E+01 -0.22397334015E+01  0.54575874594E+01  0.47000000000E+01 0. -1.
<mgrwt>
<rscale>  2 0.49768318E+01</rscale>
<asrwt>0</asrwt>
<pdfrwt beam="1">  1       21 0.25365323E-03 0.49768318E+01</pdfrwt>
<pdfrwt beam="2">  1       21 0.24516971E-01 0.49768318E+01</pdfrwt>
<totfact> 0.15462339E+08</totfact>
</mgrwt>
</event>
<event>
 4    1  0.3989279E+006  0.4791038E+01  0.7546771E-02  0.2605614E+00
         21   -1    0    0  501  502  0.00000000000E+00  0.00000000000E+00  0.19874327080E+02  0.19874327080E+02  0.00000000000E+00 0. -1.
         21   -1    0    0  502  503 -0.00000000000E+00 -0.00000000000E+00 -0.29136003053E+01  0.29136003053E+01  0.00000000000E+00 0. -1.
          5    1    1    2  501    0 -0.88868867483E+00  0.27254532008E+00  0.17332505593E+02  0.17982485886E+02  0.47000000000E+01 0. -1.
         -5    1    1    2    0  503  0.88868867483E+00 -0.27254532008E+00 -0.37177881831E+00  0.48054414992E+01  0.47000000000E+01 0. -1.
<mgrwt>
<rscale>  2 0.47910384E+01</rscale>
<asrwt>0</asrwt>
<pdfrwt beam="1">  1       21 0.30575887E-02 0.47910384E+01</pdfrwt>
<pdfrwt beam="2">  1       21 0.44824621E-03 0.47910384E+01</pdfrwt>
<totfact> 0.15873403E+09</totfact>
</mgrwt>
</event>
<event>
 4    1  0.3989279E+006  0.6857055E+01  0.7546771E-02  0.2315651E+00
         21   -1    0    0  503  502  0.00000000000E+00  0.00000000000E+00  0.16514699475E+00  0.16514699475E+00  0.00000000000E+00 0. -1.
         21   -1    0    0  501  503 -0.00000000000E+00 -0.00000000000E+00 -0.28484722300E+03  0.28484722300E+03  0.00000000000E+00 0.  1.
          5    1    1    2  501    0 -0.19567533297E+01  0.45935078389E+01 -0.14545523021E+03  0.14561676824E+03  0.47000000000E+01 0. -1.
         -5    1    1    2    0  502  0.19567533297E+01 -0.45935078389E+01 -0.13922684580E+03  0.13939560176E+03  0.47000000000E+01 0.  1.
<mgrwt>
<rscale>  2 0.68570546E+01</rscale>
<asrwt>0</asrwt>
<pdfrwt beam="1">  1       21 0.25407422E-04 0.68570546E+01</pdfrwt>
<pdfrwt beam="2">  1       21 0.43822319E-01 0.68570546E+01</pdfrwt>
<totfact> 0.15976863E+09</totfact>
</mgrwt>
</event>
<event>
 4    1  0.3989279E+006  0.7947225E+01  0.7546771E-02  0.2214920E+00
         21   -1    0    0  503  502  0.00000000000E+00  0.00000000000E+00  0.28441256130E+00  0.28441256130E+00  0.00000000000E+00 0.  1.
         21   -1    0    0  501  503 -0.00000000000E+00 -0.00000000000E+00 -0.48156088319E+03  0.48156088319E+03  0.00000000000E+00 0.  1.
          5    1    1    2  501    0  0.38870336397E+01 -0.50950330213E+01 -0.41749282347E+03  0.41756845671E+03  0.47000000000E+01 0.  1.
         -5    1    1    2    0  502 -0.38870336397E+01  0.50950330213E+01 -0.63783647163E+02  0.64276839043E+02  0.47000000000E+01 0.  1.
<mgrwt>
<rscale>  2 0.79472254E+01</rscale>
<asrwt>0</asrwt>
<pdfrwt beam="1">  1       21 0.43755718E-04 0.79472254E+01</pdfrwt>
<pdfrwt beam="2">  1       21 0.74086392E-01 0.79472254E+01</pdfrwt>
<totfact> 0.31558793E+08</totfact>
</mgrwt>
</event>
<event>
 4    1  0.3989279E+006  0.5740708E+01  0.7546771E-02  0.2450444E+00
         21   -1    0    0  501  502  0.00000000000E+00  0.00000000000E+00  0.28582115162E+03  0.28582115162E+03  0.00000000000E+00 0.  1.
         21   -1    0    0  502  503 -0.00000000000E+00 -0.00000000000E+00 -0.70936457216E+00  0.70936457216E+00  0.00000000000E+00 0.  1.
          5    1    1    2  501    0  0.98908549457E+00 -0.31444294838E+01  0.27366180220E+03  0.27372200809E+03  0.47000000000E+01 0.  1.
         -5    1    1    2    0  503 -0.98908549457E+00  0.31444294838E+01  0.11449984843E+02  0.12808508102E+02  0.47000000000E+01 0.  1.
<mgrwt>
<rscale>  2 0.57407079E+01</rscale>
<asrwt>0</asrwt>
<pdfrwt beam="1">  1       21 0.43972393E-01 0.57407079E+01</pdfrwt>
<pdfrwt beam="2">  1       21 0.10913324E-03 0.57407079E+01</pdfrwt>
<totfact> 0.19916295E+08</totfact>
</mgrwt>
</event>
<event>
 4    1  0.3989279E+006  0.5692018E+01  0.7546771E-02  0.2457319E+00
         21   -1    0    0  501  502  0.00000000000E+00  0.00000000000E+00  0.17003447342E+01  0.17003447342E+01  0.00000000000E+00 0. -1.
         21   -1    0    0  502  503 -0.00000000000E+00 -0.00000000000E+00 -0.27588575212E+02  0.27588575212E+02  0.00000000000E+00 0. -1.
          5    1    1    2  501    0  0.30573425340E+01  0.98067332930E+00 -0.47991491494E+01  0.74451928187E+01  0.47000000000E+01 0. -1.
         -5    1    1    2    0  503 -0.30573425340E+01 -0.98067332930E+00 -0.21089081328E+02  0.21843727127E+02  0.47000000000E+01 0. -1.
<mgrwt>
<rscale>  2 0.56920175E+01</rscale>
<asrwt>0</asrwt>
<pdfrwt beam="1">  1       21 0.26159150E-03 0.56920175E+01</pdfrwt>
<pdfrwt beam="2">  1       21 0.42443961E-02 0.56920175E+01</pdfrwt>
<totfact> 0.24278350E+09</totfact>
</mgrwt>
</event>
<event>
 4    1  0.3989279E+006  0.5882435E+01  0.7546771E-02  0.2430981E+00
         21   -1    0    0  501  502  0.00000000000E+00  0.00000000000E+00  0.36043887368E+01  0.36043887368E+01  0.00000000000E+00 0.  1.
         21   -1    0    0  502  503 -0.00000000000E+00 -0.00000000000E+00 -0.97769980751E+01  0.97769980751E+01  0.00000000000E+00 0.  1.
          5    1    1    2  501    0 -0.89401615072E+00  0.34225392255E+01 -0.21867171083E+01  0.62757287497E+01  0.47000000000E+01 0.  1.
         -5    1    1    2    0  503  0.89401615072E+00 -0.34225392255E+01 -0.39858922300E+01  0.71056580622E+01  0.47000000000E+01 0.  1.
<mgrwt>
<rscale>  2 0.58824348E+01</rscale>
<asrwt>0</asrwt>
<pdfrwt beam="1">  1       21 0.55452135E-03 0.58824348E+01</pdfrwt>
<pdfrwt beam="2">  1       21 0.15041535E-02 0.58824348E+01</pdfrwt>
<totfact> 0.39706192E+09</totfact>
</mgrwt>
</event>
<event>
 4    1  0.3989279E+006  0.5773736E+01  0.7546771E-02  0.2445836E+00
         21   -1    0    0  501  502  0.00000000000E+00  0.00000000000E+00  0.54368198337E+01  0.54368198337E+01  0.00000000000E+00 0. -1.
         21   -1    0    0  502  503 -0.00000000000E+00 -0.00000000000E+00 -0.65120676812E+01  0.65120676812E+01  0.00000000000E+00 0. -1.
          5    1    1    2  501    0  0.32748422762E+01 -0.72210273039E+00 -0.19818554432E+01  0.61044062189E+01  0.47000000000E+01 0. -1.
         -5    1    1    2    0  503 -0.32748422762E+01  0.72210273039E+00  0.90660759576E+00  0.58444812960E+01  0.47000000000E+01 0. -1.
<mgrwt>
<rscale>  2 0.57737357E+01</rscale>
<asrwt>0</asrwt>
<pdfrwt beam="1">  1       21 0.83643382E-03 0.57737357E+01</pdfrwt>
<pdfrwt beam="2">  1       21 0.10018566E-02 0.57737357E+01</pdfrwt>
<totfact> 0.39080781E+09</totfact>
</mgrwt>
</event>
<event>
 4    1  0.3989279E+006  0.5365550E+01  0.7546771E-02  0.2506123E+00
         21   -1    0    0  501  502  0.00000000000E+00  0.00000000000E+00  0.57258060334E+01  0.57258060334E+01  0.00000000000E+00 0.  1.
         21   -1    0    0  502  503 -0.00000000000E+00 -0.00000000000E+00 -0.58839119126E+01  0.58839119126E+01  0.00000000000E+00 0. -1.
          5    1    1    2  501    0  0.11743373510E+01  0.23065244975E+01  0.21349759612E+01  0.57747074235E+01  0.47000000000E+01 0.  1.
         -5    1    1    2    0  503 -0.11743373510E+01 -0.23065244975E+01 -0.22930818404E+01  0.58350105226E+01  0.47000000000E+01 0. -1.
<mgrwt>
<rscale>  2 0.53655497E+01</rscale>
<asrwt>0</asrwt>
<pdfrwt beam="1">  1       21 0.88089324E-03 0.53655497E+01</pdfrwt>
<pdfrwt beam="2">  1       21 0.90521722E-03 0.53655497E+01</pdfrwt>
<totfact> 0.39086220E+09</totfact>
</mgrwt>
</event>
<event>
 4    1  0.3989279E+006  0.4982283E+01  0.7546771E-02  0.2570306E+00
         21   -1    0    0  501  502  0.00000000000E+00  0.00000000000E+00  0.63100488771E+01  0.63100488771E+01  0.00000000000E+00 0.  1.
         21   -1    0    0  502  503 -0.00000000000E+00 -0.00000000000E+00 -0.40625999803E+01  0.40625999803E+01  0.00000000000E+00 0.  1.
          5    1    1    2  501    0  0.14597054387E+01  0.77614911160E+00  0.20467942722E+01  0.53863265965E+01  0.47000000000E+01 0.  1.
         -5    1    1    2    0  503 -0.14597054387E+01 -0.77614911160E+00  0.20065462463E+00  0.49863222609E+01  0.47000000000E+01 0.  1.
<mgrwt>
<rscale>  2 0.49822834E+01</rscale>
<asrwt>0</asrwt>
<pdfrwt beam="1">  1       21 0.97077675E-03 0.49822834E+01</pdfrwt>
<pdfrwt beam="2">  1       21 0.62501538E-03 0.49822834E+01</pdfrwt>
<totfact> 0.52858223E+09</totfact>
</mgrwt>
</event>
<event>
 4    1  0.3989279E+006  0.5816381E+01  0.7546771E-02  0.2439952E+00
         21   -1    0    0  503  502  0.00000000000E+00  0.00000000000E+00  0.33644572825E+01  0.33644572825E+01  0.00000000000E+00 0. -1.
         21   -1    0    0  501  503 -0.00000000000E+00 -0.00000000000E+00 -0.10669135108E+02  0.10669135108E+02  0.00000000000E+00 0. -1.
          5    1    1    2  501    0  0.13531997168E-01 -0.34263836254E+01 -0.53355392337E+01  0.78929251091E+01  0.47000000000E+01 0. -1.
         -5    1    1    2    0  502 -0.13531997168E-01  0.34263836254E+01 -0.19691385914E+01  0.61406672809E+01  0.47000000000E+01 0. -1.
<mgrwt>
<rscale>  2 0.58163810E+01</rscale>
<asrwt>0</asrwt>
<pdfrwt beam="1">  1       21 0.51760882E-03 0.58163810E+01</pdfrwt>
<pdfrwt beam="2">  1       21 0.16414054E-02 0.58163810E+01</pdfrwt>
<totfact> 0.38185541E+09</totfact>
</mgrwt>
</event>
<event>
 4    1  0.3989279E+006  0.7690730E+01  0.7546771E-02  0.2236522E+00
         21   -1    0    0  501  502  0.00000000000E+00  0.00000000000E+00  0.18303619989E+03  0.18303619989E+03  0.00000000000E+00 0.  1.
         21   -1    0    0  502  503 -0.00000000000E+00 -0.00000000000E+00 -0.61455843518E+00  0.61455843518E+00  0.00000000000E+00 0. -1.
          5    1    1    2  501    0 -0.60313717196E+01 -0.82454927507E+00  0.15444262042E+03  0.15463398827E+03  0.47000000000E+01 0.  1.
         -5    1    1    2    0  503  0.60313717196E+01  0.82454927507E+00  0.27979021036E+02  0.29016770056E+02  0.47000000000E+01 0. -1.
<mgrwt>
<rscale>  2 0.76907299E+01</rscale>
<asrwt>0</asrwt>
<pdfrwt beam="1">  1       21 0.28159372E-01 0.76907299E+01</pdfrwt>
<pdfrwt beam="2">  1       21 0.94547597E-04 0.76907299E+01</pdfrwt>
<totfact> 0.63151573E+08</totfact>
</mgrwt>
</event>
<event>
 4    1  0.3989279E+006  0.5772863E+01  0.7546771E-02  0.2445958E+00
         21   -1    0    0  501  502  0.00000000000E+00  0.00000000000E+00  0.36412316889E+01  0.36412316889E+01  0.00000000000E+00 0. -1.
         21   -1    0    0  502  503 -0.00000000000E+00 -0.00000000000E+00 -0.96060627567E+01  0.96060627567E+01  0.00000000000E+00 0. -1.
          5    1    1    2  501    0 -0.33324651043E+01 -0.36141562318E+00 -0.15429560058E+01  0.59755048456E+01  0.47000000000E+01 0. -1.
         -5    1    1    2    0  503  0.33324651043E+01  0.36141562318E+00 -0.44218750620E+01  0.72717896000E+01  0.47000000000E+01 0. -1.
<mgrwt>
<rscale>  2 0.57728628E+01</rscale>
<asrwt>0</asrwt>
<pdfrwt beam="1">  1       21 0.56018950E-03 0.57728628E+01</pdfrwt>
<pdfrwt beam="2">  1       21 0.14778558E-02 0.57728628E+01</pdfrwt>
<totfact> 0.39455247E+09</totfact>
</mgrwt>
</event>
<event>
 4    1  0.3989279E+006  0.8840884E+01  0.7546771E-02  0.2147653E+00
         21   -1    0    0  503  502  0.00000000000E+00  0.00000000000E+00  0.78934816224E+00  0.78934816224E+00  0.00000000000E+00 0. -1.
         21   -1    0    0  501  503 -0.00000000000E+00 -0.00000000000E+00 -0.10498336478E+03  0.10498336478E+03  0.00000000000E+00 0. -1.
          5    1    1    2  501    0 -0.69038590507E+01 -0.28996483603E+01 -0.39492374656E+02  0.40469851573E+02  0.47000000000E+01 0. -1.
         -5    1    1    2    0  502  0.69038590507E+01  0.28996483603E+01 -0.64701641962E+02  0.65302861369E+02  0.47000000000E+01 0. -1.
<mgrwt>
<rscale>  2 0.88408840E+01</rscale>
<asrwt>0</asrwt>
<pdfrwt beam="1">  1       21 0.12143813E-03 0.88408840E+01</pdfrwt>
<pdfrwt beam="2">  1       21 0.16151293E-01 0.88408840E+01</pdfrwt>
<totfact> 0.12313763E+09</totfact>
</mgrwt>
</event>
<event>
 4    1  0.3989279E+006  0.6643310E+01  0.7546771E-02  0.2338529E+00
         21   -1    0    0  503  502  0.00000000000E+00  0.00000000000E+00  0.18568794448E+00  0.18568794448E+00  0.00000000000E+00 0. -1.
         21   -1    0    0  501  503 -0.00000000000E+00 -0.00000000000E+00 -0.53662719346E+03  0.53662719346E+03  0.00000000000E+00 0.  1.
          5    1    1    2  501    0  0.46799672057E+01  0.37613995631E+00 -0.46855569968E+03  0.46860279265E+03  0.47000000000E+01 0.  1.
         -5    1    1    2    0  502 -0.46799672057E+01 -0.37613995631E+00 -0.67885805834E+02  0.68210088755E+02  0.47000000000E+01 0. -1.
<mgrwt>
<rscale>  2 0.66433105E+01</rscale>
<asrwt>0</asrwt>
<pdfrwt beam="1">  1       21 0.28567762E-04 0.66433105E+01</pdfrwt>
<pdfrwt beam="2">  1       21 0.82556915E-01 0.66433105E+01</pdfrwt>
<totfact> 0.40857832E+08</totfact>
</mgrwt>
</event>
<event>
 4    1  0.3989279E+006  0.8796720E+01  0.7546771E-02  0.2150719E+00
         21   -1    0    0  503  502  0.00000000000E+00  0.00000000000E+00  0.47390843717E+00  0.47390843717E+00  0.00000000000E+00 0. -1.
         21   -1    0    0  501  503 -0.00000000000E+00 -0.00000000000E+00 -0.41917742838E+03  0.41917742838E+03  0.00000000000E+00 0.  1.
          5    1    1    2  501    0 -0.74337605322E+01  0.17744144730E+00 -0.37329296932E+03  0.37339660313E+03  0.47000000000E+01 0.  1.
         -5    1    1    2    0  502  0.74337605322E+01 -0.17744144730E+00 -0.45410550623E+02  0.46254733693E+02  0.47000000000E+01 0. -1.
<mgrwt>
<rscale>  2 0.87967199E+01</rscale>
<asrwt>0</asrwt>
<pdfrwt beam="1">  1       21 0.72908667E-04 0.87967199E+01</pdfrwt>
<pdfrwt beam="2">  1       21 0.64489121E-01 0.87967199E+01</pdfrwt>
<totfact> 0.21747660E+08</totfact>
</mgrwt>
</event>
<event>
 4    1  0.3989279E+006  0.5739248E+01  0.7546771E-02  0.2450649E+00
         21   -1    0    0  501  502  0.00000000000E+00  0.00000000000E+00  0.23996964466E+01  0.23996964466E+01  0.00000000000E+00 0.  1.
         21   -1    0    0  502  503 -0.00000000000E+00 -0.00000000000E+00 -0.24318625375E+03  0.24318625375E+03  0.00000000000E+00 0.  1.
          5    1    1    2  501    0 -0.20940159984E+01  0.25424532110E+01 -0.11160735162E+01  0.58467590531E+01  0.47000000000E+01 0.  1.
         -5    1    1    2    0  503  0.20940159984E+01 -0.25424532110E+01 -0.23967048379E+03  0.23973919115E+03  0.47000000000E+01 0.  1.
<mgrwt>
<rscale>  2 0.57392483E+01</rscale>
<asrwt>0</asrwt>
<pdfrwt beam="1">  1       21 0.36918393E-03 0.57392483E+01</pdfrwt>
<pdfrwt beam="2">  1       21 0.37413284E-01 0.57392483E+01</pdfrwt>
<totfact> 0.50420420E+07</totfact>
</mgrwt>
</event>
<event>
 4    1  0.3989279E+006  0.1119107E+02  0.7546771E-02  0.2012932E+00
         21   -1    0    0  501  502  0.00000000000E+00  0.00000000000E+00  0.36609801161E+01  0.36609801161E+01  0.00000000000E+00 0.  1.
         21   -1    0    0  502  503 -0.00000000000E+00 -0.00000000000E+00 -0.99569118592E+02  0.99569118592E+02  0.00000000000E+00 0. -1.
          5    1    1    2  501    0 -0.47562363145E+01  0.89737553666E+01 -0.61355183939E+01  0.12762627285E+02  0.47000000000E+01 0.  1.
         -5    1    1    2    0  503  0.47562363145E+01 -0.89737553666E+01 -0.89772620082E+02  0.90467471423E+02  0.47000000000E+01 0. -1.
<mgrwt>
<rscale>  2 0.11191071E+02</rscale>
<asrwt>0</asrwt>
<pdfrwt beam="1">  1       21 0.56322781E-03 0.11191071E+02</pdfrwt>
<pdfrwt beam="2">  1       21 0.15318323E-01 0.11191071E+02</pdfrwt>
<totfact> 0.17584768E+08</totfact>
</mgrwt>
</event>
<event>
 4    1  0.3989279E+006  0.6578236E+01  0.7546771E-02  0.2345738E+00
         21   -1    0    0  501  502  0.00000000000E+00  0.00000000000E+00  0.37546879573E+00  0.37546879573E+00  0.00000000000E+00 0.  1.
         21   -1    0    0  502  503 -0.00000000000E+00 -0.00000000000E+00 -0.15918314956E+03  0.15918314956E+03  0.00000000000E+00 0.  1.
          5    1    1    2  501    0 -0.28498449239E+01 -0.36140805111E+01 -0.37492415426E+02  0.38065133764E+02  0.47000000000E+01 0.  1.
         -5    1    1    2    0  503  0.28498449239E+01  0.36140805111E+01 -0.12131526534E+03  0.12149348459E+03  0.47000000000E+01 0.  1.
<mgrwt>
<rscale>  2 0.65782364E+01</rscale>
<asrwt>0</asrwt>
<pdfrwt beam="1">  1       21 0.57764500E-04 0.65782364E+01</pdfrwt>
<pdfrwt beam="2">  1       21 0.24489686E-01 0.65782364E+01</pdfrwt>
<totfact> 0.13987662E+09</totfact>
</mgrwt>
</event>
<event>
 4    1  0.3989279E+006  0.4940559E+01  0.7546771E-02  0.2577808E+00
         21   -1    0    0  503  502  0.00000000000E+00  0.00000000000E+00  0.49718481928E+00  0.49718481928E+00  0.00000000000E+00 0. -1.
         21   -1    0    0  501  503 -0.00000000000E+00 -0.00000000000E+00 -0.50307343127E+02  0.50307343127E+02  0.00000000000E+00 0. -1.
          5    1    1    2  501    0 -0.80942522700E-01  0.15207137667E+01 -0.28849012256E+02  0.29269004598E+02  0.47000000000E+01 0. -1.
         -5    1    1    2    0  502  0.80942522700E-01 -0.15207137667E+01 -0.20961146052E+02  0.21535523348E+02  0.47000000000E+01 0. -1.
<mgrwt>
<rscale>  2 0.49405589E+01</rscale>
<asrwt>0</asrwt>
<pdfrwt beam="1">  1       21 0.76489951E-04 0.49405589E+01</pdfrwt>
<pdfrwt beam="2">  1       21 0.77395934E-02 0.49405589E+01</pdfrwt>
<totfact> 0.45393908E+09</totfact>
</mgrwt>
</event>
<event>
 4    1  0.3989279E+006  0.4730287E+01  0.7546771E-02  0.2617346E+00
         21   -1    0    0  503  502  0.00000000000E+00  0.00000000000E+00  0.71065912408E+01  0.71065912408E+01  0.00000000000E+00 0. -1.
         21   -1    0    0  501  503 -0.00000000000E+00 -0.00000000000E+00 -0.10164805717E+02  0.10164805717E+02  0.00000000000E+00 0. -1.
          5    1    1    2  501    0  0.32158908859E+00 -0.42684666263E+00 -0.87037443207E+01  0.99060982640E+01  0.47000000000E+01 0. -1.
         -5    1    1    2    0  502 -0.32158908859E+00  0.42684666263E+00  0.56455298448E+01  0.73652986935E+01  0.47000000000E+01 0. -1.
<mgrwt>
<rscale>  2 0.47302873E+01</rscale>
<asrwt>0</asrwt>
<pdfrwt beam="1">  1       21 0.10933217E-02 0.47302873E+01</pdfrwt>
<pdfrwt beam="2">  1       21 0.15638163E-02 0.47302873E+01</pdfrwt>
<totfact> 0.11848035E+09</totfact>
</mgrwt>
</event>
<event>
 4    1  0.3989279E+006  0.5221905E+01  0.7546771E-02  0.2529232E+00
         21   -1    0    0  501  502  0.00000000000E+00  0.00000000000E+00  0.23416721628E+02  0.23416721628E+02  0.00000000000E+00 0. -1.
         21   -1    0    0  502  503 -0.00000000000E+00 -0.00000000000E+00 -0.19283196448E+01  0.19283196448E+01  0.00000000000E+00 0. -1.
          5    1    1    2  501    0  0.63160025556E+00 -0.21861776259E+01  0.18720009966E+02  0.19434687150E+02  0.47000000000E+01 0. -1.
         -5    1    1    2    0  503 -0.63160025556E+00  0.21861776259E+01  0.27683920173E+01  0.59103541228E+01  0.47000000000E+01 0. -1.
<mgrwt>
<rscale>  2 0.52219050E+01</rscale>
<asrwt>0</asrwt>
<pdfrwt beam="1">  1       21 0.36025724E-02 0.52219050E+01</pdfrwt>
<pdfrwt beam="2">  1       21 0.29666458E-03 0.52219050E+01</pdfrwt>
<totfact> 0.23970451E+09</totfact>
</mgrwt>
</event>
<event>
 4    1  0.3989279E+006  0.5592803E+01  0.7546771E-02  0.2471639E+00
         21   -1    0    0  501  502  0.00000000000E+00  0.00000000000E+00  0.11072089567E+03  0.11072089567E+03  0.00000000000E+00 0. -1.
         21   -1    0    0  502  503 -0.00000000000E+00 -0.00000000000E+00 -0.31801735572E+00  0.31801735572E+00  0.00000000000E+00 0. -1.
          5    1    1    2  501    0 -0.22522245550E+01  0.20290211139E+01  0.73753686697E+02  0.73965436141E+02  0.47000000000E+01 0. -1.
         -5    1    1    2    0  503  0.22522245550E+01 -0.20290211139E+01  0.36649191622E+02  0.37073476889E+02  0.47000000000E+01 0. -1.
<mgrwt>
<rscale>  2 0.55928027E+01</rscale>
<asrwt>0</asrwt>
<pdfrwt beam="1">  1       21 0.17033953E-01 0.55928027E+01</pdfrwt>
<pdfrwt beam="2">  1       21 0.48925836E-04 0.55928027E+01</pdfrwt>
<totfact> 0.27608606E+09</totfact>
</mgrwt>
</event>
<event>
 4    1  0.3989279E+006  0.5652125E+01  0.7546771E-02  0.2463026E+00
         21   -1    0    0  501  502  0.00000000000E+00  0.00000000000E+00  0.30634486285E+01  0.30634486285E+01  0.00000000000E+00 0. -1.
         21   -1    0    0  502  503 -0.00000000000E+00 -0.00000000000E+00 -0.30232833967E+02  0.30232833967E+02  0.00000000000E+00 0.  1.
          5    1    1    2  501    0 -0.37462910872E+00  0.31170771257E+01 -0.11031249063E+00  0.56532013605E+01  0.47000000000E+01 0. -1.
         -5    1    1    2    0  503  0.37462910872E+00 -0.31170771257E+01 -0.27059072848E+02  0.27643081235E+02  0.47000000000E+01 0.  1.
<mgrwt>
<rscale>  2 0.56521250E+01</rscale>
<asrwt>0</asrwt>
<pdfrwt beam="1">  1       21 0.47129979E-03 0.56521250E+01</pdfrwt>
<pdfrwt beam="2">  1       21 0.46512052E-02 0.56521250E+01</pdfrwt>
<totfact> 0.93972820E+08</totfact>
</mgrwt>
</event>
<event>
 4    1  0.3989279E+006  0.5759122E+01  0.7546771E-02  0.2447870E+00
         21   -1    0    0  501  502  0.00000000000E+00  0.00000000000E+00  0.78152110841E-01  0.78152110841E-01  0.00000000000E+00 0.  1.
         21   -1    0    0  502  503 -0.00000000000E+00 -0.00000000000E+00 -0.16767172044E+04  0.16767172044E+04  0.00000000000E+00 0.  1.
          5    1    1    2  501    0 -0.23955096229E+00  0.33196541456E+01 -0.11375357171E+03  0.11389926499E+03  0.47000000000E+01 0.  1.
         -5    1    1    2    0  503  0.23955096229E+00 -0.33196541456E+01 -0.15628854806E+04  0.15628960915E+04  0.47000000000E+01 0.  1.
<mgrwt>
<rscale>  2 0.57591222E+01</rscale>
<asrwt>0</asrwt>
<pdfrwt beam="1">  1       21 0.12024603E-04 0.57591222E+01</pdfrwt>
<pdfrwt beam="2">  1       21 0.25793073E+00 0.57591222E+01</pdfrwt>
<totfact> 0.10355664E+08</totfact>
</mgrwt>
</event>
<event>
 4    1  0.3989279E+006  0.5312939E+01  0.7546771E-02  0.2514463E+00
         21   -1    0    0  501  502  0.00000000000E+00  0.00000000000E+00  0.16851362422E+02  0.16851362422E+02  0.00000000000E+00 0. -1.
         21   -1    0    0  502  503 -0.00000000000E+00 -0.00000000000E+00 -0.28367557365E+01  0.28367557365E+01  0.00000000000E+00 0. -1.
          5    1    1    2  501    0  0.24536672798E+01  0.34181760324E+00  0.13306807120E+02  0.14328239184E+02  0.47000000000E+01 0. -1.
         -5    1    1    2    0  503 -0.24536672798E+01 -0.34181760324E+00  0.70779956555E+00  0.53598789743E+01  0.47000000000E+01 0. -1.
<mgrwt>
<rscale>  2 0.53129391E+01</rscale>
<asrwt>0</asrwt>
<pdfrwt beam="1">  1       21 0.25925173E-02 0.53129391E+01</pdfrwt>
<pdfrwt beam="2">  1       21 0.43642397E-03 0.53129391E+01</pdfrwt>
<totfact> 0.23102557E+09</totfact>
</mgrwt>
</event>
<event>
 4    1  0.3989279E+006  0.1839887E+02  0.7546771E-02  0.1779181E+00
         21   -1    0    0  503  502  0.00000000000E+00  0.00000000000E+00  0.93017888433E+03  0.93017888433E+03  0.00000000000E+00 0.  1.
         21   -1    0    0  501  503 -0.00000000000E+00 -0.00000000000E+00 -0.62496423566E+00  0.62496423566E+00  0.00000000000E+00 0. -1.
          5    1    1    2  501    0 -0.39206939210E+01 -0.17350982037E+02  0.16399572175E+03  0.16502458959E+03  0.47000000000E+01 0. -1.
         -5    1    1    2    0  502  0.39206939210E+01  0.17350982037E+02  0.76555819835E+03  0.76577925897E+03  0.47000000000E+01 0.  1.
<mgrwt>
<rscale>  2 0.18398870E+02</rscale>
<asrwt>0</asrwt>
<pdfrwt beam="1">  1       21 0.14310334E+00 0.18398870E+02</pdfrwt>
<pdfrwt beam="2">  1       21 0.96149089E-04 0.18398870E+02</pdfrwt>
<totfact> 0.35643733E+07</totfact>
</mgrwt>
</event>
<event>
 4    1  0.3989279E+006  0.9465441E+01  0.7546771E-02  0.2106751E+00
         21   -1    0    0  501  502  0.00000000000E+00  0.00000000000E+00  0.51897623198E+03  0.51897623198E+03  0.00000000000E+00 0. -1.
         21   -1    0    0  502  503 -0.00000000000E+00 -0.00000000000E+00 -0.17266588034E+00  0.17266588034E+00  0.00000000000E+00 0.  1.
          5    1    1    2  501    0  0.68878669050E+01  0.44790477870E+01  0.26274989807E+03  0.26292033683E+03  0.47000000000E+01 0.  1.
         -5    1    1    2    0  503 -0.68878669050E+01 -0.44790477870E+01  0.25605366803E+03  0.25622856103E+03  0.47000000000E+01 0. -1.
<mgrwt>
<rscale>  2 0.94654413E+01</rscale>
<asrwt>0</asrwt>
<pdfrwt beam="1">  1       21 0.79841249E-01 0.94654413E+01</pdfrwt>
<pdfrwt beam="2">  1       21 0.26564397E-04 0.94654413E+01</pdfrwt>
<totfact> 0.58640582E+08</totfact>
</mgrwt>
</event>
<event>
 4    1  0.3989279E+006  0.9214931E+01  0.7546771E-02  0.2122628E+00
         21   -1    0    0  501  502  0.00000000000E+00  0.00000000000E+00  0.28134961543E+00  0.28134961543E+00  0.00000000000E+00 0.  1.
         21   -1    0    0  502  503 -0.00000000000E+00 -0.00000000000E+00 -0.61784884313E+03  0.61784884313E+03  0.00000000000E+00 0.  1.
          5    1    1    2  501    0 -0.38862276835E+01  0.69081253352E+01 -0.87740608342E+02  0.88223179004E+02  0.47000000000E+01 0.  1.
         -5    1    1    2    0  503  0.38862276835E+01 -0.69081253352E+01 -0.52982688517E+03  0.52990701374E+03  0.47000000000E+01 0.  1.
<mgrwt>
<rscale>  2 0.92149314E+01</rscale>
<asrwt>0</asrwt>
<pdfrwt beam="1">  1       21 0.43285363E-04 0.92149314E+01</pdfrwt>
<pdfrwt beam="2">  1       21 0.95051896E-01 0.92149314E+01</pdfrwt>
<totfact> 0.20912389E+08</totfact>
</mgrwt>
</event>
<event>
 4    1  0.3989279E+006  0.1213664E+02  0.7546771E-02  0.1970536E+00
         21   -1    0    0  503  502  0.00000000000E+00  0.00000000000E+00  0.68636675715E+00  0.68636675715E+00  0.00000000000E+00 0. -1.
         21   -1    0    0  501  503 -0.00000000000E+00 -0.00000000000E+00 -0.71245471017E+03  0.71245471017E+03  0.00000000000E+00 0.  1.
          5    1    1    2  501    0 -0.72302247508E+01 -0.85400182459E+01 -0.65395244346E+03  0.65406505515E+03  0.47000000000E+01 0.  1.
         -5    1    1    2    0  502  0.72302247508E+01  0.85400182459E+01 -0.57815899944E+02  0.59076021768E+02  0.47000000000E+01 0. -1.
<mgrwt>
<rscale>  2 0.12136641E+02</rscale>
<asrwt>0</asrwt>
<pdfrwt beam="1">  1       21 0.10559496E-03 0.12136641E+02</pdfrwt>
<pdfrwt beam="2">  1       21 0.10960834E+00 0.12136641E+02</pdfrwt>
<totfact> 0.50582398E+07</totfact>
</mgrwt>
</event>
<event>
 4    1  0.3989279E+006  0.5440927E+01  0.7546771E-02  0.2494414E+00
         21   -1    0    0  501  502  0.00000000000E+00  0.00000000000E+00  0.17658919516E+04  0.17658919516E+04  0.00000000000E+00 0.  1.
         21   -1    0    0  502  503 -0.00000000000E+00 -0.00000000000E+00 -0.34719687987E-01  0.34719687987E-01  0.00000000000E+00 0. -1.
          5    1    1    2  501    0 -0.27400209919E+01 -0.77256553075E-01  0.15178996775E+04  0.15179094290E+04  0.47000000000E+01 0.  1.
         -5    1    1    2    0  503  0.27400209919E+01  0.77256553075E-01  0.24795755447E+03  0.24801724235E+03  0.47000000000E+01 0. -1.
<mgrwt>
<rscale>  2 0.54409267E+01</rscale>
<asrwt>0</asrwt>
<pdfrwt beam="1">  1       21 0.27160377E+00 0.54409267E+01</pdfrwt>
<pdfrwt beam="2">  1       21 0.53429048E-05 0.54409267E+01</pdfrwt>
<totfact> 0.26290409E+08</totfact>
</mgrwt>
</event>
<event>
 4    1  0.3989279E+006  0.6185527E+01  0.7546771E-02  0.2391885E+00
         21   -1    0    0  501  502  0.00000000000E+00  0.00000000000E+00  0.13686905771E+01  0.13686905771E+01  0.00000000000E+00 0.  1.
         21   -1    0    0  502  503 -0.00000000000E+00 -0.00000000000E+00 -0.28514985030E+02  0.28514985030E+02  0.00000000000E+00 0.  1.
          5    1    1    2  501    0 -0.93212761669E+00 -0.39117615443E+01 -0.15668417953E+02  0.16845179175E+02  0.47000000000E+01 0.  1.
         -5    1    1    2    0  503  0.93212761669E+00  0.39117615443E+01 -0.11477876499E+02  0.13038496432E+02  0.47000000000E+01 0.  1.
<mgrwt>
<rscale>  2 0.61855267E+01</rscale>
<asrwt>0</asrwt>
<pdfrwt beam="1">  1       21 0.21056779E-03 0.61855267E+01</pdfrwt>
<pdfrwt beam="2">  1       21 0.43869206E-02 0.61855267E+01</pdfrwt>
<totfact> 0.33453749E+09</totfact>
</mgrwt>
</event>
<event>
 4    1  0.3989279E+006  0.5453694E+01  0.7546771E-02  0.2492458E+00
         21   -1    0    0  501  502  0.00000000000E+00  0.00000000000E+00  0.12272863557E+03  0.12272863557E+03  0.00000000000E+00 0.  1.
         21   -1    0    0  502  503 -0.00000000000E+00 -0.00000000000E+00 -0.30995859721E+00  0.30995859721E+00  0.00000000000E+00 0.  1.
          5    1    1    2  501    0  0.46129227429E+00  0.27276331008E+01  0.89941869276E+02  0.90107061997E+02  0.47000000000E+01 0.  1.
         -5    1    1    2    0  503 -0.46129227429E+00 -0.27276331008E+01  0.32476807698E+02  0.32931532172E+02  0.47000000000E+01 0.  1.
<mgrwt>
<rscale>  2 0.54536935E+01</rscale>
<asrwt>0</asrwt>
<pdfrwt beam="1">  1       21 0.18881290E-01 0.54536935E+01</pdfrwt>
<pdfrwt beam="2">  1       21 0.47686036E-04 0.54536935E+01</pdfrwt>
<totfact> 0.23726962E+09</totfact>
</mgrwt>
</event>
<event>
 4    1  0.3989279E+006  0.6042134E+01  0.7546771E-02  0.2409972E+00
         21   -1    0    0  501  502  0.00000000000E+00  0.00000000000E+00  0.16517270632E+01  0.16517270632E+01  0.00000000000E+00 0. -1.
         21   -1    0    0  502  503 -0.00000000000E+00 -0.00000000000E+00 -0.25324655312E+02  0.25324655312E+02  0.00000000000E+00 0.  1.
          5    1    1    2  501    0  0.21662781218E+01  0.31184325783E+01 -0.16647645163E+02  0.17710208133E+02  0.47000000000E+01 0.  1.
         -5    1    1    2    0  503 -0.21662781218E+01 -0.31184325783E+01 -0.70252830853E+01  0.92661742416E+01  0.47000000000E+01 0. -1.
<mgrwt>
<rscale>  2 0.60421339E+01</rscale>
<asrwt>0</asrwt>
<pdfrwt beam="1">  1       21 0.25411187E-03 0.60421339E+01</pdfrwt>
<pdfrwt beam="2">  1       21 0.38961006E-02 0.60421339E+01</pdfrwt>
<totfact> 0.30190605E+09</totfact>
</mgrwt>
</event>
<event>
 4    1  0.3989279E+006  0.9281596E+01  0.7546771E-02  0.2118337E+00
         21   -1    0    0  501  502  0.00000000000E+00  0.00000000000E+00  0.22795231787E+00  0.22795231787E+00  0.00000000000E+00 0. -1.
         21   -1    0    0  502  503 -0.00000000000E+00 -0.00000000000E+00 -0.37798894177E+03  0.37798894177E+03  0.00000000000E+00 0.  1.
          5    1    1    2  501    0  0.79987617955E+01  0.27897091368E+00 -0.19141199691E+03  0.19163689774E+03  0.47000000000E+01 0.  1.
         -5    1    1    2    0  503 -0.79987617955E+01 -0.27897091368E+00 -0.18634899255E+03  0.18657999635E+03  0.47000000000E+01 0.  1.
<mgrwt>
<rscale>  2 0.92815955E+01</rscale>
<asrwt>0</asrwt>
<pdfrwt beam="1">  1       21 0.35069976E-04 0.92815955E+01</pdfrwt>
<pdfrwt beam="2">  1       21 0.58151500E-01 0.92815955E+01</pdfrwt>
<totfact> 0.73833633E+08</totfact>
</mgrwt>
</event>
<event>
 4    1  0.3989279E+006  0.8893742E+01  0.7546771E-02  0.2144016E+00
         21   -1    0    0  501  502  0.00000000000E+00  0.00000000000E+00  0.45450160530E+01  0.45450160530E+01  0.00000000000E+00 0.  1.
         21   -1    0    0  502  503 -0.00000000000E+00 -0.00000000000E+00 -0.23981383083E+02  0.23981383083E+02  0.00000000000E+00 0.  1.
          5    1    1    2  501    0  0.58047444772E+01 -0.48284146264E+01 -0.17188290938E+02  0.19352932378E+02  0.47000000000E+01 0.  1.
         -5    1    1    2    0  503 -0.58047444772E+01  0.48284146264E+01 -0.22480760921E+01  0.91734667583E+01  0.47000000000E+01 0.  1.
<mgrwt>
<rscale>  2 0.88937420E+01</rscale>
<asrwt>0</asrwt>
<pdfrwt beam="1">  1       21 0.69923323E-03 0.88937420E+01</pdfrwt>
<pdfrwt beam="2">  1       21 0.36894436E-02 0.88937420E+01</pdfrwt>
<totfact> 0.10586119E+09</totfact>
</mgrwt>
</event>
<event>
 4    1  0.3989279E+006  0.8892701E+01  0.7546771E-02  0.2144087E+00
         21   -1    0    0  503  502  0.00000000000E+00  0.00000000000E+00  0.11253484179E+02  0.11253484179E+02  0.00000000000E+00 0. -1.
         21   -1    0    0  501  503 -0.00000000000E+00 -0.00000000000E+00 -0.14238798240E+02  0.14238798240E+02  0.00000000000E+00 0.  1.
          5    1    1    2  501    0  0.74343019062E+01 -0.13119762891E+01  0.75784183466E+01  0.11683858577E+02  0.47000000000E+01 0. -1.
         -5    1    1    2    0  502 -0.74343019062E+01  0.13119762891E+01 -0.10563732408E+02  0.13808423842E+02  0.47000000000E+01 0.  1.
<mgrwt>
<rscale>  2 0.88927007E+01</rscale>
<asrwt>0</asrwt>
<pdfrwt beam="1">  1       21 0.17313053E-02 0.88927007E+01</pdfrwt>
<pdfrwt beam="2">  1       21 0.21905843E-02 0.88927007E+01</pdfrwt>
<totfact> 0.61935776E+08</totfact>
</mgrwt>
</event>
<event>
 4    1  0.3989279E+006  0.5183898E+01  0.7546771E-02  0.2535529E+00
         21   -1    0    0  501  502  0.00000000000E+00  0.00000000000E+00  0.14460215751E-01  0.14460215751E-01  0.00000000000E+00 0.  1.
         21   -1    0    0  502  503 -0.00000000000E+00 -0.00000000000E+00 -0.20113154207E+04  0.20113154207E+04  0.00000000000E+00 0. -1.
          5    1    1    2  501    0 -0.16361569205E+01  0.14511335232E+01 -0.12829476506E+04  0.12829581236E+04  0.47000000000E+01 0. -1.
         -5    1    1    2    0  503  0.16361569205E+01 -0.14511335232E+01 -0.72835330988E+03  0.72837175729E+03  0.47000000000E+01 0.  1.
<mgrwt>
<rscale>  2 0.51838980E+01</rscale>
<asrwt>0</asrwt>
<pdfrwt beam="1">  1       21 0.22244088E-05 0.51838980E+01</pdfrwt>
<pdfrwt beam="2">  1       21 0.30946649E+00 0.51838980E+01</pdfrwt>
<totfact> 0.61558103E+08</totfact>
</mgrwt>
</event>
<event>
 4    1  0.3989279E+006  0.5170208E+01  0.7546771E-02  0.2537817E+00
         21   -1    0    0  501  502  0.00000000000E+00  0.00000000000E+00  0.14335330884E+01  0.14335330884E+01  0.00000000000E+00 0.  1.
         21   -1    0    0  502  503 -0.00000000000E+00 -0.00000000000E+00 -0.22354779998E+02  0.22354779998E+02  0.00000000000E+00 0.  1.
          5    1    1    2  501    0  0.16114453331E+01  0.14297889036E+01 -0.56165911894E+01  0.76339471415E+01  0.47000000000E+01 0.  1.
         -5    1    1    2    0  503 -0.16114453331E+01 -0.14297889036E+01 -0.15304655721E+02  0.16154365945E+02  0.47000000000E+01 0.  1.
<mgrwt>
<rscale>  2 0.51702082E+01</rscale>
<asrwt>0</asrwt>
<pdfrwt beam="1">  1       21 0.22054358E-03 0.51702082E+01</pdfrwt>
<pdfrwt beam="2">  1       21 0.34391964E-02 0.51702082E+01</pdfrwt>
<totfact> 0.37949251E+09</totfact>
</mgrwt>
</event>
<event>
 4    1  0.3989279E+006  0.7272377E+01  0.7546771E-02  0.2274380E+00
         21   -1    0    0  501  502  0.00000000000E+00  0.00000000000E+00  0.87400955729E+02  0.87400955729E+02  0.00000000000E+00 0.  1.
         21   -1    0    0  502  503 -0.00000000000E+00 -0.00000000000E+00 -0.62898903833E+00  0.62898903833E+00  0.00000000000E+00 0. -1.
          5    1    1    2  501    0 -0.70780918690E+00 -0.55042228712E+01  0.51961476803E+02  0.52467919101E+02  0.47000000000E+01 0.  1.
         -5    1    1    2    0  503  0.70780918690E+00  0.55042228712E+01  0.34810489888E+02  0.35562025667E+02  0.47000000000E+01 0. -1.
<mgrwt>
<rscale>  2 0.72723767E+01</rscale>
<asrwt>0</asrwt>
<pdfrwt beam="1">  1       21 0.13446291E-01 0.72723767E+01</pdfrwt>
<pdfrwt beam="2">  1       21 0.96767614E-04 0.72723767E+01</pdfrwt>
<totfact> 0.19803178E+09</totfact>
</mgrwt>
</event>
<event>
 4    1  0.3989279E+006  0.8697988E+01  0.7546771E-02  0.2157663E+00
         21   -1    0    0  501  502  0.00000000000E+00  0.00000000000E+00  0.30180704992E+02  0.30180704992E+02  0.00000000000E+00 0. -1.
         21   -1    0    0  502  503 -0.00000000000E+00 -0.00000000000E+00 -0.33178190627E+01  0.33178190627E+01  0.00000000000E+00 0.  1.
          5    1    1    2  501    0 -0.73054130280E+01  0.44265394012E+00  0.51500669212E+01  0.10108322873E+02  0.47000000000E+01 0.  1.
         -5    1    1    2    0  503  0.73054130280E+01 -0.44265394012E+00  0.21712819008E+02  0.23390201181E+02  0.47000000000E+01 0. -1.
<mgrwt>
<rscale>  2 0.86979884E+01</rscale>
<asrwt>0</asrwt>
<pdfrwt beam="1">  1       21 0.46431852E-02 0.86979884E+01</pdfrwt>
<pdfrwt beam="2">  1       21 0.51043372E-03 0.86979884E+01</pdfrwt>
<totfact> 0.11552846E+09</totfact>
</mgrwt>
</event>
<event>
 4    1  0.3989279E+006  0.5644131E+01  0.7546771E-02  0.2464177E+00
         21   -1    0    0  501  502  0.00000000000E+00  0.00000000000E+00  0.22419025563E+00  0.22419025563E+00  0.00000000000E+00 0. -1.
         21   -1    0    0  502  503 -0.00000000000E+00 -0.00000000000E+00 -0.29593651860E+03  0.29593651860E+03  0.00000000000E+00 0. -1.
          5    1    1    2  501    0  0.11383911800E+00 -0.31230201736E+01 -0.41089524564E+02  0.41475357060E+02  0.47000000000E+01 0. -1.
         -5    1    1    2    0  503 -0.11383911800E+00  0.31230201736E+01 -0.25462280378E+03  0.25468535180E+03  0.47000000000E+01 0. -1.
<mgrwt>
<rscale>  2 0.56441310E+01</rscale>
<asrwt>0</asrwt>
<pdfrwt beam="1">  1       21 0.34490862E-04 0.56441310E+01</pdfrwt>
<pdfrwt beam="2">  1       21 0.45528625E-01 0.56441310E+01</pdfrwt>
<totfact> 0.86142046E+08</totfact>
</mgrwt>
</event>
<event>
 4    1  0.3989279E+006  0.5269730E+01  0.7546771E-02  0.2521419E+00
         21   -1    0    0  503  502  0.00000000000E+00  0.00000000000E+00  0.19400239058E+01  0.19400239058E+01  0.00000000000E+00 0. -1.
         21   -1    0    0  501  503 -0.00000000000E+00 -0.00000000000E+00 -0.14315952981E+02  0.14315952981E+02  0.00000000000E+00 0. -1.
          5    1    1    2  501    0  0.17063098530E+01 -0.16638992778E+01 -0.61002172172E+01  0.80611850381E+01  0.47000000000E+01 0. -1.
         -5    1    1    2    0  502 -0.17063098530E+01  0.16638992778E+01 -0.62757118583E+01  0.81947918491E+01  0.47000000000E+01 0. -1.
<mgrwt>
<rscale>  2 0.52697300E+01</rscale>
<asrwt>0</asrwt>
<pdfrwt beam="1">  1       21 0.29846520E-03 0.52697300E+01</pdfrwt>
<pdfrwt beam="2">  1       21 0.22024545E-02 0.52697300E+01</pdfrwt>
<totfact> 0.48671106E+09</totfact>
</mgrwt>
</event>
<event>
 4    1  0.3989279E+006  0.1245582E+02  0.7546771E-02  0.1957356E+00
         21   -1    0    0  501  502  0.00000000000E+00  0.00000000000E+00  0.25647680311E+01  0.25647680311E+01  0.00000000000E+00 0. -1.
         21   -1    0    0  502  503 -0.00000000000E+00 -0.00000000000E+00 -0.60939454507E+02  0.60939454507E+02  0.00000000000E+00 0. -1.
          5    1    1    2  501    0 -0.59292559114E+01 -0.98945140149E+01 -0.26465985477E+02  0.29250570431E+02  0.47000000000E+01 0. -1.
         -5    1    1    2    0  503  0.59292559114E+01  0.98945140149E+01 -0.31908700999E+02  0.34253652107E+02  0.47000000000E+01 0. -1.
<mgrwt>
<rscale>  2 0.12455821E+02</rscale>
<asrwt>0</asrwt>
<pdfrwt beam="1">  1       21 0.39457971E-03 0.12455821E+02</pdfrwt>
<pdfrwt beam="2">  1       21 0.93753004E-02 0.12455821E+02</pdfrwt>
<totfact> 0.68315296E+08</totfact>
</mgrwt>
</event>
<event>
 4    1  0.3989279E+006  0.5026838E+01  0.7546771E-02  0.2562415E+00
         21   -1    0    0  503  502  0.00000000000E+00  0.00000000000E+00  0.25368562640E+02  0.25368562640E+02  0.00000000000E+00 0.  1.
         21   -1    0    0  501  503 -0.00000000000E+00 -0.00000000000E+00 -0.63897286698E+01  0.63897286698E+01  0.00000000000E+00 0.  1.
          5    1    1    2  501    0 -0.17737807348E+01 -0.18112285475E+00 -0.50996417806E+01  0.71606878073E+01  0.47000000000E+01 0.  1.
         -5    1    1    2    0  502  0.17737807348E+01  0.18112285475E+00  0.24078475751E+02  0.24597603503E+02  0.47000000000E+01 0.  1.
<mgrwt>
<rscale>  2 0.50268383E+01</rscale>
<asrwt>0</asrwt>
<pdfrwt beam="1">  1       21 0.39028558E-02 0.50268383E+01</pdfrwt>
<pdfrwt beam="2">  1       21 0.98303519E-03 0.50268383E+01</pdfrwt>
<totfact> 0.39534462E+08</totfact>
</mgrwt>
</event>
<event>
 4    1  0.3989279E+006  0.5649500E+01  0.7546771E-02  0.2463404E+00
         21   -1    0    0  501  502  0.00000000000E+00  0.00000000000E+00  0.29158485279E+01  0.29158485279E+01  0.00000000000E+00 0. -1.
         21   -1    0    0  502  503 -0.00000000000E+00 -0.00000000000E+00 -0.11759858507E+02  0.11759858507E+02  0.00000000000E+00 0.  1.
          5    1    1    2  501    0  0.14647736500E+01 -0.27715136992E+01 -0.63523947333E+01  0.85011627957E+01  0.47000000000E+01 0.  1.
         -5    1    1    2    0  503 -0.14647736500E+01  0.27715136992E+01 -0.24916152458E+01  0.61745442394E+01  0.47000000000E+01 0. -1.
<mgrwt>
<rscale>  2 0.56495000E+01</rscale>
<asrwt>0</asrwt>
<pdfrwt beam="1">  1       21 0.44859207E-03 0.56495000E+01</pdfrwt>
<pdfrwt beam="2">  1       21 0.18092090E-02 0.56495000E+01</pdfrwt>
<totfact> 0.39440490E+09</totfact>
</mgrwt>
</event>
<event>
 4    1  0.3989279E+006  0.6129082E+01  0.7546771E-02  0.2398920E+00
         21   -1    0    0  501  502  0.00000000000E+00  0.00000000000E+00  0.18639185478E+02  0.18639185478E+02  0.00000000000E+00 0. -1.
         21   -1    0    0  502  503 -0.00000000000E+00 -0.00000000000E+00 -0.47067220301E+01  0.47067220301E+01  0.00000000000E+00 0.  1.
          5    1    1    2  501    0  0.31818537065E+01 -0.23133213838E+01  0.15793032167E+02  0.16940646795E+02  0.47000000000E+01 0. -1.
         -5    1    1    2    0  503 -0.31818537065E+01  0.23133213838E+01 -0.18605687190E+01  0.64052607123E+01  0.47000000000E+01 0.  1.
<mgrwt>
<rscale>  2 0.61290822E+01</rscale>
<asrwt>0</asrwt>
<pdfrwt beam="1">  1       21 0.28675670E-02 0.61290822E+01</pdfrwt>
<pdfrwt beam="2">  1       21 0.72411109E-03 0.61290822E+01</pdfrwt>
<totfact> 0.11205876E+09</totfact>
</mgrwt>
</event>
<event>
 4    1  0.3989279E+006  0.7834669E+01  0.7546771E-02  0.2224259E+00
         21   -1    0    0  503  502  0.00000000000E+00  0.00000000000E+00  0.24848506760E+01  0.24848506760E+01  0.00000000000E+00 0.  1.
         21   -1    0    0  501  503 -0.00000000000E+00 -0.00000000000E+00 -0.25306538906E+02  0.25306538906E+02  0.00000000000E+00 0.  1.
          5    1    1    2  501    0 -0.30969227038E+01  0.54498723595E+01 -0.13557656815E+02  0.15658610963E+02  0.47000000000E+01 0.  1.
         -5    1    1    2    0  502  0.30969227038E+01 -0.54498723595E+01 -0.92640314150E+01  0.12132778619E+02  0.47000000000E+01 0.  1.
<mgrwt>
<rscale>  2 0.78346690E+01</rscale>
<asrwt>0</asrwt>
<pdfrwt beam="1">  1       21 0.38228472E-03 0.78346690E+01</pdfrwt>
<pdfrwt beam="2">  1       21 0.38933136E-02 0.78346690E+01</pdfrwt>
<totfact> 0.21094749E+09</totfact>
</mgrwt>
</event>
<event>
 4    1  0.3989279E+006  0.7603025E+01  0.7546771E-02  0.2244177E+00
         21   -1    0    0  503  502  0.00000000000E+00  0.00000000000E+00  0.62468691522E+00  0.62468691522E+00  0.00000000000E+00 0.  1.
         21   -1    0    0  501  503 -0.00000000000E+00 -0.00000000000E+00 -0.97522532363E+02  0.97522532363E+02  0.00000000000E+00 0.  1.
          5    1    1    2  501    0 -0.16853607929E+00  0.59739091704E+01 -0.59545707280E+02  0.60029136681E+02  0.47000000000E+01 0.  1.
         -5    1    1    2    0  502  0.16853607929E+00 -0.59739091704E+01 -0.37352138168E+02  0.38118082597E+02  0.47000000000E+01 0.  1.
<mgrwt>
<rscale>  2 0.76030254E+01</rscale>
<asrwt>0</asrwt>
<pdfrwt beam="1">  1       21 0.96105756E-04 0.76030254E+01</pdfrwt>
<pdfrwt beam="2">  1       21 0.15003455E-01 0.76030254E+01</pdfrwt>
<totfact> 0.17320907E+09</totfact>
</mgrwt>
</event>
<event>
 4    1  0.3989279E+006  0.5978969E+01  0.7546771E-02  0.2418169E+00
         21   -1    0    0  503  502  0.00000000000E+00  0.00000000000E+00  0.87005915343E+01  0.87005915343E+01  0.00000000000E+00 0. -1.
         21   -1    0    0  501  503 -0.00000000000E+00 -0.00000000000E+00 -0.48895003636E+01  0.48895003636E+01  0.00000000000E+00 0. -1.
          5    1    1    2  501    0 -0.69772772053E+00  0.36292214083E+01 -0.80984124970E+00  0.60335656831E+01  0.47000000000E+01 0. -1.
         -5    1    1    2    0  502  0.69772772053E+00 -0.36292214083E+01  0.46209324203E+01  0.75565262148E+01  0.47000000000E+01 0. -1.
<mgrwt>
<rscale>  2 0.59789691E+01</rscale>
<asrwt>0</asrwt>
<pdfrwt beam="1">  1       21 0.13385525E-02 0.59789691E+01</pdfrwt>
<pdfrwt beam="2">  1       21 0.75223083E-03 0.59789691E+01</pdfrwt>
<totfact> 0.31073765E+09</totfact>
</mgrwt>
</event>
<event>
 4    1  0.3989279E+006  0.6220978E+01  0.7546771E-02  0.2387521E+00
         21   -1    0    0  501  502  0.00000000000E+00  0.00000000000E+00  0.13296357959E+02  0.13296357959E+02  0.00000000000E+00 0. -1.
         21   -1    0    0  502  503 -0.00000000000E+00 -0.00000000000E+00 -0.29948429623E+01  0.29948429623E+01  0.00000000000E+00 0. -1.
          5    1    1    2  501    0  0.38819748744E+01 -0.12413030637E+01  0.37847047733E+01  0.72817959627E+01  0.47000000000E+01 0. -1.
         -5    1    1    2    0  503 -0.38819748744E+01  0.12413030637E+01  0.65168102236E+01  0.90094049588E+01  0.47000000000E+01 0. -1.
<mgrwt>
<rscale>  2 0.62209776E+01</rscale>
<asrwt>0</asrwt>
<pdfrwt beam="1">  1       21 0.20455935E-02 0.62209776E+01</pdfrwt>
<pdfrwt beam="2">  1       21 0.46074508E-03 0.62209776E+01</pdfrwt>
<totfact> 0.34778395E+09</totfact>
</mgrwt>
</event>
<event>
 4    1  0.3989279E+006  0.5148296E+01  0.7546771E-02  0.2541500E+00
         21   -1    0    0  503  502  0.00000000000E+00  0.00000000000E+00  0.19739008850E+00  0.19739008850E+00  0.00000000000E+00 0. -1.
         21   -1    0    0  501  503 -0.00000000000E+00 -0.00000000000E+00 -0.13492039068E+03  0.13492039068E+03  0.00000000000E+00 0. -1.
          5    1    1    2  501    0  0.16435468439E+01 -0.13090860258E+01 -0.72026751624E+02  0.72210511021E+02  0.47000000000E+01 0. -1.
         -5    1    1    2    0  502 -0.16435468439E+01  0.13090860258E+01 -0.62696248964E+02  0.62907269744E+02  0.47000000000E+01 0. -1.
<mgrwt>
<rscale>  2 0.51482961E+01</rscale>
<asrwt>0</asrwt>
<pdfrwt beam="1">  1       21 0.30367876E-04 0.51482961E+01</pdfrwt>
<pdfrwt beam="2">  1       21 0.20756867E-01 0.51482961E+01</pdfrwt>
<totfact> 0.35224798E+09</totfact>
</mgrwt>
</event>
<event>
 4    1  0.3989279E+006  0.1044543E+02  0.7546771E-02  0.2050490E+00
         21   -1    0    0  501  502  0.00000000000E+00  0.00000000000E+00  0.13995712186E+03  0.13995712186E+03  0.00000000000E+00 0. -1.
         21   -1    0    0  502  503 -0.00000000000E+00 -0.00000000000E+00 -0.11569627619E+01  0.11569627619E+01  0.00000000000E+00 0.  1.
          5    1    1    2  501    0 -0.73662413342E+01  0.57232428438E+01  0.10969727316E+03  0.11019346060E+03  0.47000000000E+01 0. -1.
         -5    1    1    2    0  503  0.73662413342E+01 -0.57232428438E+01  0.29102885938E+02  0.30920624023E+02  0.47000000000E+01 0.  1.
<mgrwt>
<rscale>  2 0.10445431E+02</rscale>
<asrwt>0</asrwt>
<pdfrwt beam="1">  1       21 0.21531852E-01 0.10445431E+02</pdfrwt>
<pdfrwt beam="2">  1       21 0.17799438E-03 0.10445431E+02</pdfrwt>
<totfact> 0.49364646E+08</totfact>
</mgrwt>
</event>
<event>
 4    1  0.3989279E+006  0.4970774E+01  0.7546771E-02  0.2572365E+00
         21   -1    0    0  501  502  0.00000000000E+00  0.00000000000E+00  0.14249352154E+00  0.14249352154E+00  0.00000000000E+00 0.  1.
         21   -1    0    0  502  503 -0.00000000000E+00 -0.00000000000E+00 -0.59558697837E+03  0.59558697837E+03  0.00000000000E+00 0.  1.
          5    1    1    2  501    0 -0.11726634501E+00 -0.16139523424E+01 -0.46939222743E+02  0.47201686678E+02  0.47000000000E+01 0.  1.
         -5    1    1    2    0  503  0.11726634501E+00  0.16139523424E+01 -0.54850526210E+03  0.54852778521E+03  0.47000000000E+01 0.  1.
<mgrwt>
<rscale>  2 0.49707739E+01</rscale>
<asrwt>0</asrwt>
<pdfrwt beam="1">  1       21 0.21921644E-04 0.49707739E+01</pdfrwt>
<pdfrwt beam="2">  1       21 0.91630588E-01 0.49707739E+01</pdfrwt>
<totfact> 0.38828870E+08</totfact>
</mgrwt>
</event>
<event>
 4    1  0.3989279E+006  0.5669602E+01  0.7546771E-02  0.2460517E+00
         21   -1    0    0  503  502  0.00000000000E+00  0.00000000000E+00  0.95177151903E+00  0.95177151903E+00  0.00000000000E+00 0.  1.
         21   -1    0    0  501  503 -0.00000000000E+00 -0.00000000000E+00 -0.53544875628E+02  0.53544875628E+02  0.00000000000E+00 0.  1.
          5    1    1    2  501    0 -0.10067575747E+01  0.30067958833E+01 -0.42854344174E+02  0.43227759564E+02  0.47000000000E+01 0.  1.
         -5    1    1    2    0  502  0.10067575747E+01 -0.30067958833E+01 -0.97387599347E+01  0.11268887583E+02  0.47000000000E+01 0.  1.
<mgrwt>
<rscale>  2 0.56696016E+01</rscale>
<asrwt>0</asrwt>
<pdfrwt beam="1">  1       21 0.14642637E-03 0.56696016E+01</pdfrwt>
<pdfrwt beam="2">  1       21 0.82376744E-02 0.56696016E+01</pdfrwt>
<totfact> 0.19811473E+09</totfact>
</mgrwt>
</event>
<event>
 4    1  0.3989279E+006  0.8261593E+01  0.7546771E-02  0.2189930E+00
         21   -1    0    0  503  502  0.00000000000E+00  0.00000000000E+00  0.42307494336E+00  0.42307494336E+00  0.00000000000E+00 0.  1.
         21   -1    0    0  501  503 -0.00000000000E+00 -0.00000000000E+00 -0.21755942304E+03  0.21755942304E+03  0.00000000000E+00 0. -1.
          5    1    1    2  501    0 -0.63026362102E+01  0.25378518437E+01 -0.53157749125E+02  0.53795912551E+02  0.47000000000E+01 0.  1.
         -5    1    1    2    0  502  0.63026362102E+01 -0.25378518437E+01 -0.16397859898E+03  0.16418658544E+03  0.47000000000E+01 0. -1.
<mgrwt>
<rscale>  2 0.82615928E+01</rscale>
<asrwt>0</asrwt>
<pdfrwt beam="1">  1       21 0.65088300E-04 0.82615928E+01</pdfrwt>
<pdfrwt beam="2">  1       21 0.33470759E-01 0.82615928E+01</pdfrwt>
<totfact> 0.81381676E+08</totfact>
</mgrwt>
</event>
<event>
 4    1  0.3989279E+006  0.5608038E+01  0.7546771E-02  0.2469412E+00
         21   -1    0    0  503  502  0.00000000000E+00  0.00000000000E+00  0.22567483030E+03  0.22567483030E+03  0.00000000000E+00 0. -1.
         21   -1    0    0  501  503 -0.00000000000E+00 -0.00000000000E+00 -0.14943576805E+00  0.14943576805E+00  0.00000000000E+00 0.  1.
          5    1    1    2  501    0 -0.24043634210E+01 -0.18918577385E+01  0.83443766164E+02  0.83632004644E+02  0.47000000000E+01 0. -1.
         -5    1    1    2    0  502  0.24043634210E+01  0.18918577385E+01  0.14208162837E+03  0.14219226143E+03  0.47000000000E+01 0.  1.
<mgrwt>
<rscale>  2 0.56080379E+01</rscale>
<asrwt>0</asrwt>
<pdfrwt beam="1">  1       21 0.34718932E-01 0.56080379E+01</pdfrwt>
<pdfrwt beam="2">  1       21 0.22990299E-04 0.56080379E+01</pdfrwt>
<totfact> 0.23536868E+09</totfact>
</mgrwt>
</event>
<event>
 4    1  0.3989279E+006  0.5055452E+01  0.7546771E-02  0.2557410E+00
         21   -1    0    0  503  502  0.00000000000E+00  0.00000000000E+00  0.68104150476E+00  0.68104150476E+00  0.00000000000E+00 0.  1.
         21   -1    0    0  501  503 -0.00000000000E+00 -0.00000000000E+00 -0.69096896670E+02  0.69096896670E+02  0.00000000000E+00 0.  1.
          5    1    1    2  501    0  0.15155828022E+01  0.10819439904E+01 -0.57790649842E+02  0.58011350641E+02  0.47000000000E+01 0.  1.
         -5    1    1    2    0  502 -0.15155828022E+01 -0.10819439904E+01 -0.10625205323E+02  0.11766587533E+02  0.47000000000E+01 0.  1.
<mgrwt>
<rscale>  2 0.50554519E+01</rscale>
<asrwt>0</asrwt>
<pdfrwt beam="1">  1       21 0.10477560E-03 0.50554519E+01</pdfrwt>
<pdfrwt beam="2">  1       21 0.10630293E-01 0.50554519E+01</pdfrwt>
<totfact> 0.18974284E+09</totfact>
</mgrwt>
</event>
<event>
 4    1  0.3989279E+006  0.5600154E+01  0.7546771E-02  0.2470563E+00
         21   -1    0    0  503  502  0.00000000000E+00  0.00000000000E+00  0.38471737166E+03  0.38471737166E+03  0.00000000000E+00 0.  1.
         21   -1    0    0  501  503 -0.00000000000E+00 -0.00000000000E+00 -0.34727700544E+00  0.34727700544E+00  0.00000000000E+00 0. -1.
          5    1    1    2  501    0  0.30449019875E+01 -0.17063213753E-01  0.23759123961E+02  0.24410196449E+02  0.47000000000E+01 0. -1.
         -5    1    1    2    0  502 -0.30449019875E+01  0.17063213753E-01  0.36061097069E+03  0.36065445221E+03  0.47000000000E+01 0.  1.
<mgrwt>
<rscale>  2 0.56001535E+01</rscale>
<asrwt>0</asrwt>
<pdfrwt beam="1">  1       21 0.59186947E-01 0.56001535E+01</pdfrwt>
<pdfrwt beam="2">  1       21 0.53427540E-04 0.56001535E+01</pdfrwt>
<totfact> 0.29791762E+08</totfact>
</mgrwt>
</event>
<event>
 4    1  0.3989279E+006  0.1165035E+02  0.7546771E-02  0.1991676E+00
         21   -1    0    0  503  502  0.00000000000E+00  0.00000000000E+00  0.10124759874E+02  0.10124759874E+02  0.00000000000E+00 0. -1.
         21   -1    0    0  501  503 -0.00000000000E+00 -0.00000000000E+00 -0.14592606672E+02  0.14592606672E+02  0.00000000000E+00 0.  1.
          5    1    1    2  501    0 -0.35545349887E+01 -0.10050169978E+02 -0.57583900914E+01  0.12995756693E+02  0.47000000000E+01 0.  1.
         -5    1    1    2    0  502  0.35545349887E+01  0.10050169978E+02  0.12905432940E+01  0.11721609854E+02  0.47000000000E+01 0. -1.
<mgrwt>
<rscale>  2 0.11650349E+02</rscale>
<asrwt>0</asrwt>
<pdfrwt beam="1">  1       21 0.15576554E-02 0.11650349E+02</pdfrwt>
<pdfrwt beam="2">  1       21 0.22450164E-02 0.11650349E+02</pdfrwt>
<totfact> 0.81291458E+08</totfact>
</mgrwt>
</event>
<event>
 4    1  0.3989279E+006  0.8396767E+01  0.7546771E-02  0.2179648E+00
         21   -1    0    0  501  502  0.00000000000E+00  0.00000000000E+00  0.28002127702E+03  0.28002127702E+03  0.00000000000E+00 0. -1.
         21   -1    0    0  502  503 -0.00000000000E+00 -0.00000000000E+00 -0.25337444879E+00  0.25337444879E+00  0.00000000000E+00 0.  1.
          5    1    1    2  501    0  0.68250364128E+01 -0.13544654675E+01  0.15097649972E+03  0.15120981835E+03  0.47000000000E+01 0. -1.
         -5    1    1    2    0  503 -0.68250364128E+01  0.13544654675E+01  0.12879140285E+03  0.12906483311E+03  0.47000000000E+01 0.  1.
<mgrwt>
<rscale>  2 0.83967672E+01</rscale>
<asrwt>0</asrwt>
<pdfrwt beam="1">  1       21 0.43079949E-01 0.83967672E+01</pdfrwt>
<pdfrwt beam="2">  1       21 0.38980909E-04 0.83967672E+01</pdfrwt>
<totfact> 0.10532999E+09</totfact>
</mgrwt>
</event>
<event>
 4    1  0.3989279E+006  0.7407696E+01  0.7546771E-02  0.2261754E+00
         21   -1    0    0  501  502  0.00000000000E+00  0.00000000000E+00  0.12454263711E+01  0.12454263711E+01  0.00000000000E+00 0. -1.
         21   -1    0    0  502  503 -0.00000000000E+00 -0.00000000000E+00 -0.52308945396E+02  0.52308945396E+02  0.00000000000E+00 0.  1.
          5    1    1    2  501    0  0.28853138854E+01  0.49455961327E+01 -0.14898505190E+02  0.16638491946E+02  0.47000000000E+01 0. -1.
         -5    1    1    2    0  503 -0.28853138854E+01 -0.49455961327E+01 -0.36165013834E+02  0.36915879821E+02  0.47000000000E+01 0.  1.
<mgrwt>
<rscale>  2 0.74076958E+01</rscale>
<asrwt>0</asrwt>
<pdfrwt beam="1">  1       21 0.19160410E-03 0.74076958E+01</pdfrwt>
<pdfrwt beam="2">  1       21 0.80475283E-02 0.74076958E+01</pdfrwt>
<totfact> 0.17594077E+09</totfact>
</mgrwt>
</event>
<event>
 4    1  0.3989279E+006  0.5480757E+01  0.7546771E-02  0.2488338E+00
         21   -1    0    0  501  502  0.00000000000E+00  0.00000000000E+00  0.26073937016E+03  0.26073937016E+03  0.00000000000E+00 0. -1.
         21   -1    0    0  502  503 -0.00000000000E+00 -0.00000000000E+00 -0.11530746637E+00  0.11530746637E+00  0.00000000000E+00 0. -1.
          5    1    1    2  501    0 -0.18129299576E+01 -0.21591618677E+01  0.13418433142E+03  0.13429621548E+03  0.47000000000E+01 0. -1.
         -5    1    1    2    0  503  0.18129299576E+01  0.21591618677E+01  0.12643973128E+03  0.12655846215E+03  0.47000000000E+01 0. -1.
<mgrwt>
<rscale>  2 0.54807568E+01</rscale>
<asrwt>0</asrwt>
<pdfrwt beam="1">  1       21 0.40113277E-01 0.54807568E+01</pdfrwt>
<pdfrwt beam="2">  1       21 0.17739819E-04 0.54807568E+01</pdfrwt>
<totfact> 0.25427892E+09</totfact>
</mgrwt>
</event>
<event>
 4    1  0.3989279E+006  0.8738602E+01  0.7546771E-02  0.2154791E+00
         21   -1    0    0  501  502  0.00000000000E+00  0.00000000000E+00  0.78179521791E+01  0.78179521791E+01  0.00000000000E+00 0.  1.
         21   -1    0    0  502  503 -0.00000000000E+00 -0.00000000000E+00 -0.12249057032E+02  0.12249057032E+02  0.00000000000E+00 0. -1.
          5    1    1    2  501    0 -0.28123615361E+01 -0.68090959965E+01  0.23003932201E+01  0.90363142191E+01  0.47000000000E+01 0.  1.
         -5    1    1    2    0  503  0.28123615361E+01  0.68090959965E+01 -0.67314980729E+01  0.11030694992E+02  0.47000000000E+01 0. -1.
<mgrwt>
<rscale>  2 0.87386020E+01</rscale>
<asrwt>0</asrwt>
<pdfrwt beam="1">  1       21 0.12027619E-02 0.87386020E+01</pdfrwt>
<pdfrwt beam="2">  1       21 0.18844703E-02 0.87386020E+01</pdfrwt>
<totfact> 0.12990167E+09</totfact>
</mgrwt>
</event>
<event>
 4    1  0.3989279E+006  0.5550900E+01  0.7546771E-02  0.2477817E+00
         21   -1    0    0  501  502  0.00000000000E+00  0.00000000000E+00  0.16392303952E+03  0.16392303952E+03  0.00000000000E+00 0.  1.
         21   -1    0    0  502  503 -0.00000000000E+00 -0.00000000000E+00 -0.26147186980E+00  0.26147186980E+00  0.00000000000E+00 0.  1.
          5    1    1    2  501    0  0.86280733320E+00  0.28245451328E+01  0.12535601594E+03  0.12547885569E+03  0.47000000000E+01 0.  1.
         -5    1    1    2    0  503 -0.86280733320E+00 -0.28245451328E+01  0.38305551705E+02  0.38705655700E+02  0.47000000000E+01 0.  1.
<mgrwt>
<rscale>  2 0.55509001E+01</rscale>
<asrwt>0</asrwt>
<pdfrwt beam="1">  1       21 0.25218847E-01 0.55509001E+01</pdfrwt>
<pdfrwt beam="2">  1       21 0.40226573E-04 0.55509001E+01</pdfrwt>
<totfact> 0.18915772E+09</totfact>
</mgrwt>
</event>
<event>
 4    1  0.3989279E+006  0.5655222E+01  0.7546771E-02  0.2462580E+00
         21   -1    0    0  501  502  0.00000000000E+00  0.00000000000E+00  0.20007389001E+03  0.20007389001E+03  0.00000000000E+00 0. -1.
         21   -1    0    0  502  503 -0.00000000000E+00 -0.00000000000E+00 -0.58980015266E+00  0.58980015266E+00  0.00000000000E+00 0.  1.
          5    1    1    2  501    0 -0.27926700736E+01 -0.14465562350E+01  0.18540560511E+03  0.18549183253E+03  0.47000000000E+01 0. -1.
         -5    1    1    2    0  503  0.27926700736E+01  0.14465562350E+01  0.14078484745E+02  0.15171857626E+02  0.47000000000E+01 0.  1.
<mgrwt>
<rscale>  2 0.56552216E+01</rscale>
<asrwt>0</asrwt>
<pdfrwt beam="1">  1       21 0.30780544E-01 0.56552216E+01</pdfrwt>
<pdfrwt beam="2">  1       21 0.90738645E-04 0.56552216E+01</pdfrwt>
<totfact> 0.46599207E+08</totfact>
</mgrwt>
</event>
<event>
 4    1  0.3989279E+006  0.4989690E+01  0.7546771E-02  0.2568986E+00
         21   -1    0    0  501  502  0.00000000000E+00  0.00000000000E+00  0.16905562099E+03  0.16905562099E+03  0.00000000000E+00 0.  1.
         21   -1    0    0  502  503 -0.00000000000E+00 -0.00000000000E+00 -0.16078471551E+00  0.16078471551E+00  0.00000000000E+00 0.  1.
          5    1    1    2  501    0  0.97799132946E+00  0.13603459219E+01  0.10897618935E+03  0.10909036096E+03  0.47000000000E+01 0.  1.
         -5    1    1    2    0  503 -0.97799132946E+00 -0.13603459219E+01  0.59918646925E+02  0.60126044751E+02  0.47000000000E+01 0.  1.
<mgrwt>
<rscale>  2 0.49896902E+01</rscale>
<asrwt>0</asrwt>
<pdfrwt beam="1">  1       21 0.26008415E-01 0.49896902E+01</pdfrwt>
<pdfrwt beam="2">  1       21 0.24736245E-04 0.49896902E+01</pdfrwt>
<totfact> 0.31173454E+09</totfact>
</mgrwt>
</event>
<event>
 4    1  0.3989279E+006  0.4730453E+01  0.7546771E-02  0.2617314E+00
         21   -1    0    0  501  502  0.00000000000E+00  0.00000000000E+00  0.13529603413E+03  0.13529603413E+03  0.00000000000E+00 0. -1.
         21   -1    0    0  502  503 -0.00000000000E+00 -0.00000000000E+00 -0.31871953650E+00  0.31871953650E+00  0.00000000000E+00 0. -1.
          5    1    1    2  501    0 -0.83872918336E-01 -0.52929598586E+00  0.11451914303E+03  0.11461680204E+03  0.47000000000E+01 0. -1.
         -5    1    1    2    0  503  0.83872918336E-01  0.52929598586E+00  0.20458171565E+02  0.20997951631E+02  0.47000000000E+01 0. -1.
<mgrwt>
<rscale>  2 0.47304534E+01</rscale>
<asrwt>0</asrwt>
<pdfrwt beam="1">  1       21 0.20814729E-01 0.47304534E+01</pdfrwt>
<pdfrwt beam="2">  1       21 0.49033883E-04 0.47304534E+01</pdfrwt>
<totfact> 0.17152074E+09</totfact>
</mgrwt>
</event>
<event>
 4    1  0.3989279E+006  0.5229458E+01  0.7546771E-02  0.2527990E+00
         21   -1    0    0  503  502  0.00000000000E+00  0.00000000000E+00  0.87847508286E+02  0.87847508286E+02  0.00000000000E+00 0.  1.
         21   -1    0    0  501  503 -0.00000000000E+00 -0.00000000000E+00 -0.33719272220E+00  0.33719272220E+00  0.00000000000E+00 0.  1.
          5    1    1    2  501    0  0.12159828528E+01  0.19438652178E+01  0.31537592731E+02  0.31968218304E+02  0.47000000000E+01 0.  1.
         -5    1    1    2    0  502 -0.12159828528E+01 -0.19438652178E+01  0.55972722833E+02  0.56216482704E+02  0.47000000000E+01 0.  1.
<mgrwt>
<rscale>  2 0.52294576E+01</rscale>
<asrwt>0</asrwt>
<pdfrwt beam="1">  1       21 0.13514983E-01 0.52294576E+01</pdfrwt>
<pdfrwt beam="2">  1       21 0.51875874E-04 0.52294576E+01</pdfrwt>
<totfact> 0.34504401E+09</totfact>
</mgrwt>
</event>
<event>
 4    1  0.3989279E+006  0.5494060E+01  0.7546771E-02  0.2486325E+00
         21   -1    0    0  503  502  0.00000000000E+00  0.00000000000E+00  0.51217814293E+01  0.51217814293E+01  0.00000000000E+00 0. -1.
         21   -1    0    0  501  503 -0.00000000000E+00 -0.00000000000E+00 -0.23987764939E+02  0.23987764939E+02  0.00000000000E+00 0.  1.
          5    1    1    2  501    0 -0.28439554710E+01  0.81342609510E-01 -0.22074015279E+02  0.22747458097E+02  0.47000000000E+01 0.  1.
         -5    1    1    2    0  502  0.28439554710E+01 -0.81342609510E-01  0.32080317691E+01  0.63620882713E+01  0.47000000000E+01 0. -1.
<mgrwt>
<rscale>  2 0.54940604E+01</rscale>
<asrwt>0</asrwt>
<pdfrwt beam="1">  1       21 0.78796638E-03 0.54940604E+01</pdfrwt>
<pdfrwt beam="2">  1       21 0.36904254E-02 0.54940604E+01</pdfrwt>
<totfact> 0.63074448E+08</totfact>
</mgrwt>
</event>
<event>
 4    1  0.3989279E+006  0.1385564E+02  0.7546771E-02  0.1905139E+00
         21   -1    0    0  503  502  0.00000000000E+00  0.00000000000E+00  0.32649597384E+01  0.32649597384E+01  0.00000000000E+00 0.  1.
         21   -1    0    0  501  503 -0.00000000000E+00 -0.00000000000E+00 -0.77039321244E+02  0.77039321244E+02  0.00000000000E+00 0. -1.
          5    1    1    2  501    0  0.31357174014E+01 -0.12651328087E+02 -0.56424265298E+02  0.58100572634E+02  0.47000000000E+01 0. -1.
         -5    1    1    2    0  502 -0.31357174014E+01  0.12651328087E+02 -0.17350096208E+02  0.22203708348E+02  0.47000000000E+01 0.  1.
<mgrwt>
<rscale>  2 0.13855642E+02</rscale>
<asrwt>0</asrwt>
<pdfrwt beam="1">  1       21 0.50230150E-03 0.13855642E+02</pdfrwt>
<pdfrwt beam="2">  1       21 0.11852203E-01 0.13855642E+02</pdfrwt>
<totfact> 0.34681430E+08</totfact>
</mgrwt>
</event>
<event>
 4    1  0.3989279E+006  0.5652810E+01  0.7546771E-02  0.2462927E+00
         21   -1    0    0  501  502  0.00000000000E+00  0.00000000000E+00  0.37568123974E+02  0.37568123974E+02  0.00000000000E+00 0. -1.
         21   -1    0    0  502  503 -0.00000000000E+00 -0.00000000000E+00 -0.85062589903E+00  0.85062589903E+00  0.00000000000E+00 0.  1.
          5    1    1    2  501    0 -0.15327037376E+01  0.27413643708E+01  0.18516672954E+02  0.19360305696E+02  0.47000000000E+01 0.  1.
         -5    1    1    2    0  503  0.15327037376E+01 -0.27413643708E+01  0.18200825120E+02  0.19058444176E+02  0.47000000000E+01 0. -1.
<mgrwt>
<rscale>  2 0.56528099E+01</rscale>
<asrwt>0</asrwt>
<pdfrwt beam="1">  1       21 0.57797101E-02 0.56528099E+01</pdfrwt>
<pdfrwt beam="2">  1       21 0.13086555E-03 0.56528099E+01</pdfrwt>
<totfact> 0.39082070E+09</totfact>
</mgrwt>
</event>
<event>
 4    1  0.3989279E+006  0.4817381E+01  0.7546771E-02  0.2600607E+00
         21   -1    0    0  503  502  0.00000000000E+00  0.00000000000E+00  0.15308958266E+01  0.15308958266E+01  0.00000000000E+00 0.  1.
         21   -1    0    0  501  503 -0.00000000000E+00 -0.00000000000E+00 -0.15560688704E+02  0.15560688704E+02  0.00000000000E+00 0.  1.
          5    1    1    2  501    0 -0.33648202589E+00 -0.10019697035E+01 -0.83875848459E+01  0.96725768535E+01  0.47000000000E+01 0.  1.
         -5    1    1    2    0  502  0.33648202589E+00  0.10019697035E+01 -0.56422080312E+01  0.74190076767E+01  0.47000000000E+01 0.  1.
<mgrwt>
<rscale>  2 0.48173814E+01</rscale>
<asrwt>0</asrwt>
<pdfrwt beam="1">  1       21 0.23552243E-03 0.48173814E+01</pdfrwt>
<pdfrwt beam="2">  1       21 0.23939521E-02 0.48173814E+01</pdfrwt>
<totfact> 0.54185728E+09</totfact>
</mgrwt>
</event>
<event>
 4    1  0.3989279E+006  0.4931072E+01  0.7546771E-02  0.2579529E+00
         21   -1    0    0  503  502  0.00000000000E+00  0.00000000000E+00  0.53165902367E-01  0.53165902367E-01  0.00000000000E+00 0.  1.
         21   -1    0    0  501  503 -0.00000000000E+00 -0.00000000000E+00 -0.87785584624E+03  0.87785584624E+03  0.00000000000E+00 0.  1.
          5    1    1    2  501    0  0.13470551249E+01 -0.64102521355E+00 -0.13509734064E+03  0.13518730310E+03  0.47000000000E+01 0.  1.
         -5    1    1    2    0  502 -0.13470551249E+01  0.64102521355E+00 -0.74270533969E+03  0.74272170904E+03  0.47000000000E+01 0.  1.
<mgrwt>
<rscale>  2 0.49310720E+01</rscale>
<asrwt>0</asrwt>
<pdfrwt beam="1">  1       21 0.81791086E-05 0.49310720E+01</pdfrwt>
<pdfrwt beam="2">  1       21 0.13505905E+00 0.49310720E+01</pdfrwt>
<totfact> 0.64761761E+08</totfact>
</mgrwt>
</event>
<event>
 4    1  0.3989279E+006  0.9180222E+01  0.7546771E-02  0.2124882E+00
         21   -1    0    0  503  502  0.00000000000E+00  0.00000000000E+00  0.38525969625E+01  0.38525969625E+01  0.00000000000E+00 0.  1.
         21   -1    0    0  501  503 -0.00000000000E+00 -0.00000000000E+00 -0.48162011623E+02  0.48162011623E+02  0.00000000000E+00 0.  1.
          5    1    1    2  501    0  0.94717474506E+00  0.78287501277E+01 -0.41368437501E+02  0.42374804894E+02  0.47000000000E+01 0.  1.
         -5    1    1    2    0  502 -0.94717474506E+00 -0.78287501277E+01 -0.29409771602E+01  0.96398036918E+01  0.47000000000E+01 0.  1.
<mgrwt>
<rscale>  2 0.91802216E+01</rscale>
<asrwt>0</asrwt>
<pdfrwt beam="1">  1       21 0.59270719E-03 0.91802216E+01</pdfrwt>
<pdfrwt beam="2">  1       21 0.74095407E-02 0.91802216E+01</pdfrwt>
<totfact> 0.47153806E+08</totfact>
</mgrwt>
</event>
<event>
 4    1  0.3989279E+006  0.5094281E+01  0.7546771E-02  0.2550695E+00
         21   -1    0    0  503  502  0.00000000000E+00  0.00000000000E+00  0.44677398999E+02  0.44677398999E+02  0.00000000000E+00 0.  1.
         21   -1    0    0  501  503 -0.00000000000E+00 -0.00000000000E+00 -0.58863085786E+00  0.58863085786E+00  0.00000000000E+00 0.  1.
          5    1    1    2  501    0  0.87665367702E+00 -0.17587437985E+01  0.19445344330E+02  0.20101570026E+02  0.47000000000E+01 0.  1.
         -5    1    1    2    0  502 -0.87665367702E+00  0.17587437985E+01  0.24643423812E+02  0.25164459831E+02  0.47000000000E+01 0.  1.
<mgrwt>
<rscale>  2 0.50942812E+01</rscale>
<asrwt>0</asrwt>
<pdfrwt beam="1">  1       21 0.68734434E-02 0.50942812E+01</pdfrwt>
<pdfrwt beam="2">  1       21 0.90558628E-04 0.50942812E+01</pdfrwt>
<totfact> 0.44672283E+09</totfact>
</mgrwt>
</event>
<event>
 4    1  0.3989279E+006  0.5488467E+01  0.7546771E-02  0.2487170E+00
         21   -1    0    0  501  502  0.00000000000E+00  0.00000000000E+00  0.98531520379E+02  0.98531520379E+02  0.00000000000E+00 0. -1.
         21   -1    0    0  502  503 -0.00000000000E+00 -0.00000000000E+00 -0.30587402018E+00  0.30587402018E+00  0.00000000000E+00 0. -1.
          5    1    1    2  501    0  0.64915130078E+00  0.27589619737E+01  0.48011660564E+02  0.48324350164E+02  0.47000000000E+01 0. -1.
         -5    1    1    2    0  503 -0.64915130078E+00 -0.27589619737E+01  0.50213985794E+02  0.50513044236E+02  0.47000000000E+01 0. -1.
<mgrwt>
<rscale>  2 0.54884669E+01</rscale>
<asrwt>0</asrwt>
<pdfrwt beam="1">  1       21 0.15158670E-01 0.54884669E+01</pdfrwt>
<pdfrwt beam="2">  1       21 0.47057620E-04 0.54884669E+01</pdfrwt>
<totfact> 0.34366093E+09</totfact>
</mgrwt>
</event>
<event>
 4    1  0.3989279E+006  0.4950495E+01  0.7546771E-02  0.2576011E+00
         21   -1    0    0  501  502  0.00000000000E+00  0.00000000000E+00  0.13776218831E+01  0.13776218831E+01  0.00000000000E+00 0. -1.
         21   -1    0    0  502  503 -0.00000000000E+00 -0.00000000000E+00 -0.18142692122E+02  0.18142692122E+02  0.00000000000E+00 0. -1.
          5    1    1    2  501    0 -0.15184423948E+01 -0.33426579294E+00 -0.70210159588E+01  0.85908128847E+01  0.47000000000E+01 0. -1.
         -5    1    1    2    0  503  0.15184423948E+01  0.33426579294E+00 -0.97440542803E+01  0.10929501121E+02  0.47000000000E+01 0. -1.
<mgrwt>
<rscale>  2 0.49504950E+01</rscale>
<asrwt>0</asrwt>
<pdfrwt beam="1">  1       21 0.21194182E-03 0.49504950E+01</pdfrwt>
<pdfrwt beam="2">  1       21 0.27911834E-02 0.49504950E+01</pdfrwt>
<totfact> 0.51673805E+09</totfact>
</mgrwt>
</event>
<event>
 4    1  0.3989279E+006  0.7660320E+01  0.7546771E-02  0.2239160E+00
         21   -1    0    0  501  502  0.00000000000E+00  0.00000000000E+00  0.51262531222E+01  0.51262531222E+01  0.00000000000E+00 0.  1.
         21   -1    0    0  502  503 -0.00000000000E+00 -0.00000000000E+00 -0.11461630218E+02  0.11461630218E+02  0.00000000000E+00 0. -1.
          5    1    1    2  501    0  0.59736399261E+01 -0.95190571985E+00 -0.28719186737E+01  0.81809788739E+01  0.47000000000E+01 0.  1.
         -5    1    1    2    0  503 -0.59736399261E+01  0.95190571985E+00 -0.34634584225E+01  0.84069044666E+01  0.47000000000E+01 0. -1.
<mgrwt>
<rscale>  2 0.76603197E+01</rscale>
<asrwt>0</asrwt>
<pdfrwt beam="1">  1       21 0.78865432E-03 0.76603197E+01</pdfrwt>
<pdfrwt beam="2">  1       21 0.17633277E-02 0.76603197E+01</pdfrwt>
<totfact> 0.23943620E+09</totfact>
</mgrwt>
</event>
<event>
 4    1  0.3989279E+006  0.5177144E+01  0.7546771E-02  0.2536656E+00
         21   -1    0    0  501  502  0.00000000000E+00  0.00000000000E+00  0.10127515635E+02  0.10127515635E+02  0.00000000000E+00 0.  1.
         21   -1    0    0  502  503 -0.00000000000E+00 -0.00000000000E+00 -0.32685957996E+01  0.32685957996E+01  0.00000000000E+00 0.  1.
          5    1    1    2  501    0  0.77197185498E+00  0.20290101747E+01  0.50743022712E+00  0.52019523517E+01  0.47000000000E+01 0.  1.
         -5    1    1    2    0  503 -0.77197185498E+00 -0.20290101747E+01  0.63514896087E+01  0.81941590834E+01  0.47000000000E+01 0.  1.
<mgrwt>
<rscale>  2 0.51771443E+01</rscale>
<asrwt>0</asrwt>
<pdfrwt beam="1">  1       21 0.15580793E-02 0.51771443E+01</pdfrwt>
<pdfrwt beam="2">  1       21 0.50286090E-03 0.51771443E+01</pdfrwt>
<totfact> 0.38240597E+09</totfact>
</mgrwt>
</event>
<event>
 4    1  0.3989279E+006  0.5439518E+01  0.7546771E-02  0.2494631E+00
         21   -1    0    0  501  502  0.00000000000E+00  0.00000000000E+00  0.76634457681E-01  0.76634457681E-01  0.00000000000E+00 0. -1.
         21   -1    0    0  502  503 -0.00000000000E+00 -0.00000000000E+00 -0.41776587866E+03  0.41776587866E+03  0.00000000000E+00 0. -1.
          5    1    1    2  501    0 -0.27359876175E+01 -0.11282296003E+00 -0.15132309247E+03  0.15142082641E+03  0.47000000000E+01 0. -1.
         -5    1    1    2    0  503  0.27359876175E+01  0.11282296003E+00 -0.26636615173E+03  0.26642168671E+03  0.47000000000E+01 0. -1.
<mgrwt>
<rscale>  2 0.54395181E+01</rscale>
<asrwt>0</asrwt>
<pdfrwt beam="1">  1       21 0.11789849E-04 0.54395181E+01</pdfrwt>
<pdfrwt beam="2">  1       21 0.64272041E-01 0.54395181E+01</pdfrwt>
<totfact> 0.18654551E+09</totfact>
</mgrwt>
</event>
<event>
 4    1  0.3989279E+006  0.4962591E+01  0.7546771E-02  0.2573833E+00
         21   -1    0    0  503  502  0.00000000000E+00  0.00000000000E+00  0.37761117368E+01  0.37761117368E+01  0.00000000000E+00 0. -1.
         21   -1    0    0  501  503 -0.00000000000E+00 -0.00000000000E+00 -0.77011946856E+01  0.77011946856E+01  0.00000000000E+00 0. -1.
          5    1    1    2  501    0 -0.13895123020E+01 -0.77882152742E+00 -0.42082208143E+01  0.65066450519E+01  0.47000000000E+01 0. -1.
         -5    1    1    2    0  502  0.13895123020E+01  0.77882152742E+00  0.28313786555E+00  0.49706613705E+01  0.47000000000E+01 0. -1.
<mgrwt>
<rscale>  2 0.49625908E+01</rscale>
<asrwt>0</asrwt>
<pdfrwt beam="1">  1       21 0.58094027E-03 0.49625908E+01</pdfrwt>
<pdfrwt beam="2">  1       21 0.11847992E-02 0.49625908E+01</pdfrwt>
<totfact> 0.44081008E+09</totfact>
</mgrwt>
</event>
<event>
 4    1  0.3989279E+006  0.5164631E+01  0.7546771E-02  0.2538752E+00
         21   -1    0    0  503  502  0.00000000000E+00  0.00000000000E+00  0.74053858483E+02  0.74053858483E+02  0.00000000000E+00 0.  1.
         21   -1    0    0  501  503 -0.00000000000E+00 -0.00000000000E+00 -0.16099266116E+01  0.16099266116E+01  0.00000000000E+00 0.  1.
          5    1    1    2  501    0  0.15110282400E+01  0.15166433710E+01  0.28897350171E+01  0.59181062787E+01  0.47000000000E+01 0.  1.
         -5    1    1    2    0  502 -0.15110282400E+01 -0.15166433710E+01  0.69554196854E+02  0.69745678816E+02  0.47000000000E+01 0.  1.
<mgrwt>
<rscale>  2 0.51646310E+01</rscale>
<asrwt>0</asrwt>
<pdfrwt beam="1">  1       21 0.11392899E-01 0.51646310E+01</pdfrwt>
<pdfrwt beam="2">  1       21 0.24768108E-03 0.51646310E+01</pdfrwt>
<totfact> 0.54879963E+08</totfact>
</mgrwt>
</event>
<event>
 4    1  0.3989279E+006  0.4843732E+01  0.7546771E-02  0.2595645E+00
         21   -1    0    0  501  502  0.00000000000E+00  0.00000000000E+00  0.12722204234E+02  0.12722204234E+02  0.00000000000E+00 0.  1.
         21   -1    0    0  502  503 -0.00000000000E+00 -0.00000000000E+00 -0.19562263168E+01  0.19562263168E+01  0.00000000000E+00 0.  1.
          5    1    1    2  501    0  0.19816340278E-01  0.11710453033E+01  0.71396330377E+01  0.86276358119E+01  0.47000000000E+01 0.  1.
         -5    1    1    2    0  503 -0.19816340278E-01 -0.11710453033E+01  0.36263448798E+01  0.60507947393E+01  0.47000000000E+01 0.  1.
<mgrwt>
<rscale>  2 0.48437320E+01</rscale>
<asrwt>0</asrwt>
<pdfrwt beam="1">  1       21 0.19572621E-02 0.48437320E+01</pdfrwt>
<pdfrwt beam="2">  1       21 0.30095790E-03 0.48437320E+01</pdfrwt>
<totfact> 0.52069298E+09</totfact>
</mgrwt>
</event>
<event>
 4    1  0.3989279E+006  0.4864885E+01  0.7546771E-02  0.2591696E+00
         21   -1    0    0  503  502  0.00000000000E+00  0.00000000000E+00  0.28089002715E+04  0.28089002715E+04  0.00000000000E+00 0.  1.
         21   -1    0    0  501  503 -0.00000000000E+00 -0.00000000000E+00 -0.29463854471E-01  0.29463854471E-01  0.00000000000E+00 0.  1.
          5    1    1    2  501    0  0.65582672730E+00  0.10709785725E+01  0.21765775648E+03  0.21771211739E+03  0.47000000000E+01 0.  1.
         -5    1    1    2    0  502 -0.65582672730E+00 -0.10709785725E+01  0.25912130511E+04  0.25912176179E+04  0.47000000000E+01 0.  1.
<mgrwt>
<rscale>  2 0.48648848E+01</rscale>
<asrwt>0</asrwt>
<pdfrwt beam="1">  1       21 0.43192413E+00 0.48648848E+01</pdfrwt>
<pdfrwt beam="2">  1       21 0.45351504E-05 0.48648848E+01</pdfrwt>
<totfact> 0.71885381E+07</totfact>
</mgrwt>
</event>
<event>
 4    1  0.3989279E+006  0.6960567E+01  0.7546771E-02  0.2304988E+00
         21   -1    0    0  501  502  0.00000000000E+00  0.00000000000E+00  0.14192891636E+01  0.14192891636E+01  0.00000000000E+00 0.  1.
         21   -1    0    0  502  503 -0.00000000000E+00 -0.00000000000E+00 -0.38757969622E+02  0.38757969622E+02  0.00000000000E+00 0.  1.
          5    1    1    2  501    0 -0.84544048261E+00 -0.50640614842E+01 -0.25606191321E+02  0.26535382460E+02  0.47000000000E+01 0.  1.
         -5    1    1    2    0  503  0.84544048261E+00  0.50640614842E+01 -0.11732489137E+02  0.13641876325E+02  0.47000000000E+01 0.  1.
<mgrwt>
<rscale>  2 0.69605667E+01</rscale>
<asrwt>0</asrwt>
<pdfrwt beam="1">  1       21 0.21835219E-03 0.69605667E+01</pdfrwt>
<pdfrwt beam="2">  1       21 0.59627642E-02 0.69605667E+01</pdfrwt>
<totfact> 0.22161966E+09</totfact>
</mgrwt>
</event>
<event>
 4    1  0.3989279E+006  0.9813381E+01  0.7546771E-02  0.2085767E+00
         21   -1    0    0  503  502  0.00000000000E+00  0.00000000000E+00  0.26918832764E+00  0.26918832764E+00  0.00000000000E+00 0.  1.
         21   -1    0    0  501  503 -0.00000000000E+00 -0.00000000000E+00 -0.63702129635E+03  0.63702129635E+03  0.00000000000E+00 0. -1.
          5    1    1    2  501    0  0.26766503274E+01  0.81882832124E+01 -0.52935674195E+03  0.52944769590E+03  0.47000000000E+01 0. -1.
         -5    1    1    2    0  502 -0.26766503274E+01 -0.81882832124E+01 -0.10739536607E+03  0.10784278878E+03  0.47000000000E+01 0.  1.
<mgrwt>
<rscale>  2 0.98133806E+01</rscale>
<asrwt>0</asrwt>
<pdfrwt beam="1">  1       21 0.41413959E-04 0.98133806E+01</pdfrwt>
<pdfrwt beam="2">  1       21 0.98002400E-01 0.98133806E+01</pdfrwt>
<totfact> 0.21450874E+08</totfact>
</mgrwt>
</event>
<event>
 4    1  0.3989279E+006  0.6506688E+01  0.7546771E-02  0.2353800E+00
         21   -1    0    0  503  502  0.00000000000E+00  0.00000000000E+00  0.10201992582E+03  0.10201992582E+03  0.00000000000E+00 0.  1.
         21   -1    0    0  501  503 -0.00000000000E+00 -0.00000000000E+00 -0.30564634885E+01  0.30564634885E+01  0.00000000000E+00 0.  1.
          5    1    1    2  501    0  0.44741496647E+01 -0.47851687390E+00  0.64024469758E+00  0.65381118752E+01  0.47000000000E+01 0.  1.
         -5    1    1    2    0  502 -0.44741496647E+01  0.47851687390E+00  0.98323217638E+02  0.98538277437E+02  0.47000000000E+01 0.  1.
<mgrwt>
<rscale>  2 0.65066884E+01</rscale>
<asrwt>0</asrwt>
<pdfrwt beam="1">  1       21 0.15695371E-01 0.65066884E+01</pdfrwt>
<pdfrwt beam="2">  1       21 0.47022523E-03 0.65066884E+01</pdfrwt>
<totfact> 0.16358701E+08</totfact>
</mgrwt>
</event>
<event>
 4    1  0.3989279E+006  0.8838690E+01  0.7546771E-02  0.2147805E+00
         21   -1    0    0  503  502  0.00000000000E+00  0.00000000000E+00  0.42938994825E+01  0.42938994825E+01  0.00000000000E+00 0.  1.
         21   -1    0    0  501  503 -0.00000000000E+00 -0.00000000000E+00 -0.44126384896E+02  0.44126384896E+02  0.00000000000E+00 0.  1.
          5    1    1    2  501    0  0.25206508531E+01 -0.70483157649E+01 -0.38475940457E+02  0.39478100637E+02  0.47000000000E+01 0.  1.
         -5    1    1    2    0  502 -0.25206508531E+01  0.70483157649E+01 -0.13565449562E+01  0.89421837413E+01  0.47000000000E+01 0.  1.
<mgrwt>
<rscale>  2 0.88386897E+01</rscale>
<asrwt>0</asrwt>
<pdfrwt beam="1">  1       21 0.66059993E-03 0.88386897E+01</pdfrwt>
<pdfrwt beam="2">  1       21 0.67886745E-02 0.88386897E+01</pdfrwt>
<totfact> 0.45245259E+08</totfact>
</mgrwt>
</event>
<event>
 4    1  0.3989279E+006  0.7307462E+01  0.7546771E-02  0.2271070E+00
         21   -1    0    0  503  502  0.00000000000E+00  0.00000000000E+00  0.53929200632E+00  0.53929200632E+00  0.00000000000E+00 0. -1.
         21   -1    0    0  501  503 -0.00000000000E+00 -0.00000000000E+00 -0.99330492519E+02  0.99330492519E+02  0.00000000000E+00 0.  1.
          5    1    1    2  501    0 -0.54238328510E+01  0.13751515254E+01 -0.46589721055E+02  0.47159316285E+02  0.47000000000E+01 0.  1.
         -5    1    1    2    0  502  0.54238328510E+01 -0.13751515254E+01 -0.52201479458E+02  0.52710468240E+02  0.47000000000E+01 0. -1.
<mgrwt>
<rscale>  2 0.73074622E+01</rscale>
<asrwt>0</asrwt>
<pdfrwt beam="1">  1       21 0.82967985E-04 0.73074622E+01</pdfrwt>
<pdfrwt beam="2">  1       21 0.15281617E-01 0.73074622E+01</pdfrwt>
<totfact> 0.19964771E+09</totfact>
</mgrwt>
</event>
<event>
 4    1  0.3989279E+006  0.5292424E+01  0.7546771E-02  0.2517754E+00
         21   -1    0    0  503  502  0.00000000000E+00  0.00000000000E+00  0.12345642108E+00  0.12345642108E+00  0.00000000000E+00 0.  1.
         21   -1    0    0  501  503 -0.00000000000E+00 -0.00000000000E+00 -0.48316058568E+03  0.48316058568E+03  0.00000000000E+00 0.  1.
          5    1    1    2  501    0 -0.21428975786E+01  0.11522772197E+01 -0.41750728694E+03  0.41754082962E+03  0.47000000000E+01 0.  1.
         -5    1    1    2    0  502  0.21428975786E+01 -0.11522772197E+01 -0.65529842322E+02  0.65743212482E+02  0.47000000000E+01 0.  1.
<mgrwt>
<rscale>  2 0.52924241E+01</rscale>
<asrwt>0</asrwt>
<pdfrwt beam="1">  1       21 0.18993220E-04 0.52924241E+01</pdfrwt>
<pdfrwt beam="2">  1       21 0.74332692E-01 0.52924241E+01</pdfrwt>
<totfact> 0.73799907E+08</totfact>
</mgrwt>
</event>
<event>
 4    1  0.3989279E+006  0.5732564E+01  0.7546771E-02  0.2451587E+00
         21   -1    0    0  503  502  0.00000000000E+00  0.00000000000E+00  0.27293669307E+01  0.27293669307E+01  0.00000000000E+00 0. -1.
         21   -1    0    0  501  503 -0.00000000000E+00 -0.00000000000E+00 -0.12055367540E+02  0.12055367540E+02  0.00000000000E+00 0. -1.
          5    1    1    2  501    0 -0.10016479526E+01  0.31255380678E+01 -0.44013064051E+01  0.72272944388E+01  0.47000000000E+01 0. -1.
         -5    1    1    2    0  502  0.10016479526E+01 -0.31255380678E+01 -0.49246942046E+01  0.75574400324E+01  0.47000000000E+01 0. -1.
<mgrwt>
<rscale>  2 0.57325637E+01</rscale>
<asrwt>0</asrwt>
<pdfrwt beam="1">  1       21 0.41990261E-03 0.57325637E+01</pdfrwt>
<pdfrwt beam="2">  1       21 0.18546719E-02 0.57325637E+01</pdfrwt>
<totfact> 0.42274696E+09</totfact>
</mgrwt>
</event>
<event>
 4    1  0.3989279E+006  0.5725362E+01  0.7546771E-02  0.2452600E+00
         21   -1    0    0  501  502  0.00000000000E+00  0.00000000000E+00  0.34676094963E+03  0.34676094963E+03  0.00000000000E+00 0.  1.
         21   -1    0    0  502  503 -0.00000000000E+00 -0.00000000000E+00 -0.24603866812E+00  0.24603866812E+00  0.00000000000E+00 0.  1.
          5    1    1    2  501    0  0.26153624116E+01  0.19620515835E+01  0.30940926065E+03  0.30946222765E+03  0.47000000000E+01 0.  1.
         -5    1    1    2    0  503 -0.26153624116E+01 -0.19620515835E+01  0.37105650318E+02  0.37544760652E+02  0.47000000000E+01 0.  1.
<mgrwt>
<rscale>  2 0.57253617E+01</rscale>
<asrwt>0</asrwt>
<pdfrwt beam="1">  1       21 0.53347447E-01 0.57253617E+01</pdfrwt>
<pdfrwt beam="2">  1       21 0.37852380E-04 0.57253617E+01</pdfrwt>
<totfact> 0.57917700E+08</totfact>
</mgrwt>
</event>
<event>
 4    1  0.3989279E+006  0.6068132E+01  0.7546771E-02  0.2406640E+00
         21   -1    0    0  501  502  0.00000000000E+00  0.00000000000E+00  0.34112460846E+02  0.34112460846E+02  0.00000000000E+00 0. -1.
         21   -1    0    0  502  503 -0.00000000000E+00 -0.00000000000E+00 -0.11085199303E+01  0.11085199303E+01  0.00000000000E+00 0. -1.
          5    1    1    2  501    0  0.22895866990E+01 -0.30805881155E+01  0.13649483976E+02  0.14937558141E+02  0.47000000000E+01 0. -1.
         -5    1    1    2    0  503 -0.22895866990E+01  0.30805881155E+01  0.19354456940E+02  0.20283422636E+02  0.47000000000E+01 0. -1.
<mgrwt>
<rscale>  2 0.60681324E+01</rscale>
<asrwt>0</asrwt>
<pdfrwt beam="1">  1       21 0.52480701E-02 0.60681324E+01</pdfrwt>
<pdfrwt beam="2">  1       21 0.17054155E-03 0.60681324E+01</pdfrwt>
<totfact> 0.33608655E+09</totfact>
</mgrwt>
</event>
<event>
 4    1  0.3989279E+006  0.5459887E+01  0.7546771E-02  0.2491512E+00
         21   -1    0    0  503  502  0.00000000000E+00  0.00000000000E+00  0.54399144663E+01  0.54399144663E+01  0.00000000000E+00 0. -1.
         21   -1    0    0  501  503 -0.00000000000E+00 -0.00000000000E+00 -0.11638273364E+02  0.11638273364E+02  0.00000000000E+00 0. -1.
          5    1    1    2  501    0 -0.23628107606E+01  0.14620156126E+01 -0.93107206914E+01  0.10793511205E+02  0.47000000000E+01 0. -1.
         -5    1    1    2    0  502  0.23628107606E+01 -0.14620156126E+01  0.31123617940E+01  0.62846766248E+01  0.47000000000E+01 0. -1.
<mgrwt>
<rscale>  2 0.54598868E+01</rscale>
<asrwt>0</asrwt>
<pdfrwt beam="1">  1       21 0.83690992E-03 0.54598868E+01</pdfrwt>
<pdfrwt beam="2">  1       21 0.17905036E-02 0.54598868E+01</pdfrwt>
<totfact> 0.16319634E+09</totfact>
</mgrwt>
</event>
<event>
 4    1  0.3989279E+006  0.8562936E+01  0.7546771E-02  0.2167367E+00
         21   -1    0    0  501  502  0.00000000000E+00  0.00000000000E+00  0.98984732763E+01  0.98984732763E+01  0.00000000000E+00 0. -1.
         21   -1    0    0  502  503 -0.00000000000E+00 -0.00000000000E+00 -0.78618901606E+01  0.78618901606E+01  0.00000000000E+00 0.  1.
          5    1    1    2  501    0  0.43246698778E+01  0.57036037854E+01 -0.11163657704E+01  0.86354002933E+01  0.47000000000E+01 0.  1.
         -5    1    1    2    0  503 -0.43246698778E+01 -0.57036037854E+01  0.31529488862E+01  0.91249631436E+01  0.47000000000E+01 0. -1.
<mgrwt>
<rscale>  2 0.85629356E+01</rscale>
<asrwt>0</asrwt>
<pdfrwt beam="1">  1       21 0.15228420E-02 0.85629356E+01</pdfrwt>
<pdfrwt beam="2">  1       21 0.12095216E-02 0.85629356E+01</pdfrwt>
<totfact> 0.17355835E+09</totfact>
</mgrwt>
</event>
<event>
 4    1  0.3989279E+006  0.6755355E+01  0.7546771E-02  0.2326388E+00
         21   -1    0    0  501  502  0.00000000000E+00  0.00000000000E+00  0.12774485076E+00  0.12774485076E+00  0.00000000000E+00 0. -1.
         21   -1    0    0  502  503 -0.00000000000E+00 -0.00000000000E+00 -0.36314020641E+03  0.36314020641E+03  0.00000000000E+00 0. -1.
          5    1    1    2  501    0 -0.61882237270E+00 -0.48126788082E+01 -0.15834241621E+03  0.15848645239E+03  0.47000000000E+01 0. -1.
         -5    1    1    2    0  503  0.61882237270E+00  0.48126788082E+01 -0.20467004534E+03  0.20478149887E+03  0.47000000000E+01 0. -1.
<mgrwt>
<rscale>  2 0.67553548E+01</rscale>
<asrwt>0</asrwt>
<pdfrwt beam="1">  1       21 0.19653333E-04 0.67553548E+01</pdfrwt>
<pdfrwt beam="2">  1       21 0.55866931E-01 0.67553548E+01</pdfrwt>
<totfact> 0.14356325E+09</totfact>
</mgrwt>
</event>
<event>
 4    1  0.3989279E+006  0.4909046E+01  0.7546771E-02  0.2583546E+00
         21   -1    0    0  501  502  0.00000000000E+00  0.00000000000E+00  0.10113023397E+04  0.10113023397E+04  0.00000000000E+00 0.  1.
         21   -1    0    0  502  503 -0.00000000000E+00 -0.00000000000E+00 -0.28252431898E-01  0.28252431898E-01  0.00000000000E+00 0. -1.
          5    1    1    2  501    0 -0.70092643238E+00 -0.12318426863E+01  0.70571302724E+03  0.70573010107E+03  0.47000000000E+01 0.  1.
         -5    1    1    2    0  503  0.70092643238E+00  0.12318426863E+01  0.30556105999E+03  0.30560049103E+03  0.47000000000E+01 0. -1.
<mgrwt>
<rscale>  2 0.49090462E+01</rscale>
<asrwt>0</asrwt>
<pdfrwt beam="1">  1       21 0.15555599E+00 0.49090462E+01</pdfrwt>
<pdfrwt beam="2">  1       21 0.43473380E-05 0.49090462E+01</pdfrwt>
<totfact> 0.11210806E+09</totfact>
</mgrwt>
</event>
<event>
 4    1  0.3989279E+006  0.1214079E+02  0.7546771E-02  0.1970361E+00
         21   -1    0    0  503  502  0.00000000000E+00  0.00000000000E+00  0.50573012645E+01  0.50573012645E+01  0.00000000000E+00 0. -1.
         21   -1    0    0  501  503 -0.00000000000E+00 -0.00000000000E+00 -0.29298320191E+02  0.29298320191E+02  0.00000000000E+00 0. -1.
          5    1    1    2  501    0 -0.30081471241E+01  0.10782382321E+02 -0.10880813287E+02  0.16303092204E+02  0.47000000000E+01 0. -1.
         -5    1    1    2    0  502  0.30081471241E+01 -0.10782382321E+02 -0.13360205640E+02  0.18052529252E+02  0.47000000000E+01 0. -1.
<mgrwt>
<rscale>  2 0.12140787E+02</rscale>
<asrwt>0</asrwt>
<pdfrwt beam="1">  1       21 0.77804637E-03 0.12140787E+02</pdfrwt>
<pdfrwt beam="2">  1       21 0.45074337E-02 0.12140787E+02</pdfrwt>
<totfact> 0.79827928E+08</totfact>
</mgrwt>
</event>
<event>
 4    1  0.3989279E+006  0.9893487E+01  0.7546771E-02  0.2081101E+00
         21   -1    0    0  503  502  0.00000000000E+00  0.00000000000E+00  0.58282591892E+02  0.58282591892E+02  0.00000000000E+00 0. -1.
         21   -1    0    0  501  503 -0.00000000000E+00 -0.00000000000E+00 -0.23826049797E+01  0.23826049797E+01  0.00000000000E+00 0.  1.
          5    1    1    2  501    0  0.20290304704E+00  0.87034422325E+01  0.44428495072E+02  0.45516724956E+02  0.47000000000E+01 0. -1.
         -5    1    1    2    0  502 -0.20290304704E+00 -0.87034422325E+01  0.11471491840E+02  0.15148471915E+02  0.47000000000E+01 0.  1.
<mgrwt>
<rscale>  2 0.98934866E+01</rscale>
<asrwt>0</asrwt>
<pdfrwt beam="1">  1       21 0.89665516E-02 0.98934866E+01</pdfrwt>
<pdfrwt beam="2">  1       21 0.36655465E-03 0.98934866E+01</pdfrwt>
<totfact> 0.72256970E+08</totfact>
</mgrwt>
</event>
<event>
 4    1  0.3989279E+006  0.4796512E+01  0.7546771E-02  0.2604570E+00
         21   -1    0    0  501  502  0.00000000000E+00  0.00000000000E+00  0.28056695994E+01  0.28056695994E+01  0.00000000000E+00 0. -1.
         21   -1    0    0  502  503 -0.00000000000E+00 -0.00000000000E+00 -0.14132545426E+02  0.14132545426E+02  0.00000000000E+00 0. -1.
          5    1    1    2  501    0 -0.42896569376E+00 -0.85587141054E+00 -0.17627937630E+00  0.47997501869E+01  0.47000000000E+01 0. -1.
         -5    1    1    2    0  503  0.42896569376E+00  0.85587141054E+00 -0.11150596450E+02  0.12138464839E+02  0.47000000000E+01 0. -1.
<mgrwt>
<rscale>  2 0.47965120E+01</rscale>
<asrwt>0</asrwt>
<pdfrwt beam="1">  1       21 0.43164147E-03 0.47965120E+01</pdfrwt>
<pdfrwt beam="2">  1       21 0.21742378E-02 0.47965120E+01</pdfrwt>
<totfact> 0.27188996E+09</totfact>
</mgrwt>
</event>
<event>
 4    1  0.3989279E+006  0.4999553E+01  0.7546771E-02  0.2567233E+00
         21   -1    0    0  503  502  0.00000000000E+00  0.00000000000E+00  0.26665584903E+01  0.26665584903E+01  0.00000000000E+00 0. -1.
         21   -1    0    0  501  503 -0.00000000000E+00 -0.00000000000E+00 -0.93747320612E+01  0.93747320612E+01  0.00000000000E+00 0.  1.
          5    1    1    2  501    0 -0.81580870436E-01  0.17026084406E+01 -0.34171240760E+01  0.60557631964E+01  0.47000000000E+01 0. -1.
         -5    1    1    2    0  502  0.81580870436E-01 -0.17026084406E+01 -0.32910494949E+01  0.59855273551E+01  0.47000000000E+01 0. -1.
<mgrwt>
<rscale>  2 0.49995531E+01</rscale>
<asrwt>0</asrwt>
<pdfrwt beam="1">  1       21 0.41023977E-03 0.49995531E+01</pdfrwt>
<pdfrwt beam="2">  1       21 0.14422665E-02 0.49995531E+01</pdfrwt>
<totfact> 0.54354968E+09</totfact>
</mgrwt>
</event>
<event>
 4    1  0.3989279E+006  0.4728496E+01  0.7546771E-02  0.2617696E+00
         21   -1    0    0  501  502  0.00000000000E+00  0.00000000000E+00  0.11702629634E+04  0.11702629634E+04  0.00000000000E+00 0.  1.
         21   -1    0    0  502  503 -0.00000000000E+00 -0.00000000000E+00 -0.98826781014E-01  0.98826781014E-01  0.00000000000E+00 0.  1.
          5    1    1    2  501    0  0.38957082562E+00 -0.34191800621E+00  0.11106628174E+04  0.11106728828E+04  0.47000000000E+01 0.  1.
         -5    1    1    2    0  503 -0.38957082562E+00  0.34191800621E+00  0.59501319258E+02  0.59688907401E+02  0.47000000000E+01 0.  1.
<mgrwt>
<rscale>  2 0.47284959E+01</rscale>
<asrwt>0</asrwt>
<pdfrwt beam="1">  1       21 0.18002936E+00 0.47284959E+01</pdfrwt>
<pdfrwt beam="2">  1       21 0.15205057E-04 0.47284959E+01</pdfrwt>
<totfact> 0.15062523E+08</totfact>
</mgrwt>
</event>
<event>
 4    1  0.3989279E+006  0.5954738E+01  0.7546771E-02  0.2421352E+00
         21   -1    0    0  501  502  0.00000000000E+00  0.00000000000E+00  0.67325918850E+01  0.67325918850E+01  0.00000000000E+00 0.  1.
         21   -1    0    0  502  503 -0.00000000000E+00 -0.00000000000E+00 -0.16883166320E+02  0.16883166320E+02  0.00000000000E+00 0.  1.
          5    1    1    2  501    0 -0.23478434651E+01 -0.28029516913E+01  0.47191830593E+01  0.75979994649E+01  0.47000000000E+01 0.  1.
         -5    1    1    2    0  503  0.23478434651E+01  0.28029516913E+01 -0.14869757495E+02  0.16017758740E+02  0.47000000000E+01 0.  1.
<mgrwt>
<rscale>  2 0.59547382E+01</rscale>
<asrwt>0</asrwt>
<pdfrwt beam="1">  1       21 0.10357834E-02 0.59547382E+01</pdfrwt>
<pdfrwt beam="2">  1       21 0.25974102E-02 0.59547382E+01</pdfrwt>
<totfact> 0.76360269E+08</totfact>
</mgrwt>
</event>
<event>
 4    1  0.3989279E+006  0.8369488E+01  0.7546771E-02  0.2181702E+00
         21   -1    0    0  501  502  0.00000000000E+00  0.00000000000E+00  0.78406500471E+00  0.78406500471E+00  0.00000000000E+00 0.  1.
         21   -1    0    0  502  503 -0.00000000000E+00 -0.00000000000E+00 -0.11197640396E+03  0.11197640396E+03  0.00000000000E+00 0. -1.
          5    1    1    2  501    0  0.26265032922E+01 -0.64077926215E+01 -0.30246759956E+02  0.31383352492E+02  0.47000000000E+01 0.  1.
         -5    1    1    2    0  503 -0.26265032922E+01  0.64077926215E+01 -0.80945579000E+02  0.81377116473E+02  0.47000000000E+01 0. -1.
<mgrwt>
<rscale>  2 0.83694878E+01</rscale>
<asrwt>0</asrwt>
<pdfrwt beam="1">  1       21 0.12062539E-03 0.83694878E+01</pdfrwt>
<pdfrwt beam="2">  1       21 0.17227138E-01 0.83694878E+01</pdfrwt>
<totfact> 0.10814772E+09</totfact>
</mgrwt>
</event>
<event>
 4    1  0.3989279E+006  0.5046247E+01  0.7546771E-02  0.2559014E+00
         21   -1    0    0  503  502  0.00000000000E+00  0.00000000000E+00  0.13300955513E+01  0.13300955513E+01  0.00000000000E+00 0.  1.
         21   -1    0    0  501  503 -0.00000000000E+00 -0.00000000000E+00 -0.19146214951E+02  0.19146214951E+02  0.00000000000E+00 0.  1.
          5    1    1    2  501    0  0.17998267423E+01 -0.36774315425E+00 -0.89913146262E+01  0.10310594068E+02  0.47000000000E+01 0.  1.
         -5    1    1    2    0  502 -0.17998267423E+01  0.36774315425E+00 -0.88248047738E+01  0.10165716434E+02  0.47000000000E+01 0.  1.
<mgrwt>
<rscale>  2 0.50462473E+01</rscale>
<asrwt>0</asrwt>
<pdfrwt beam="1">  1       21 0.20463007E-03 0.50462473E+01</pdfrwt>
<pdfrwt beam="2">  1       21 0.29455718E-02 0.50462473E+01</pdfrwt>
<totfact> 0.51179953E+09</totfact>
</mgrwt>
</event>
<event>
 4    1  0.3989279E+006  0.6974779E+01  0.7546771E-02  0.2303544E+00
         21   -1    0    0  501  502  0.00000000000E+00  0.00000000000E+00  0.81893214472E+03  0.81893214472E+03  0.00000000000E+00 0. -1.
         21   -1    0    0  502  503 -0.00000000000E+00 -0.00000000000E+00 -0.92199362882E-01  0.92199362882E-01  0.00000000000E+00 0.  1.
          5    1    1    2  501    0 -0.29517391290E+01 -0.42243086134E+01  0.65365698827E+03  0.65369419904E+03  0.47000000000E+01 0. -1.
         -5    1    1    2    0  503  0.29517391290E+01  0.42243086134E+01  0.16518295709E+03  0.16533014505E+03  0.47000000000E+01 0.  1.
<mgrwt>
<rscale>  2 0.69747794E+01</rscale>
<asrwt>0</asrwt>
<pdfrwt beam="1">  1       21 0.12598374E+00 0.69747794E+01</pdfrwt>
<pdfrwt beam="2">  1       21 0.14185173E-04 0.69747794E+01</pdfrwt>
<totfact> 0.45220349E+08</totfact>
</mgrwt>
</event>
<event>
 4    1  0.3989279E+006  0.8414060E+01  0.7546771E-02  0.2178352E+00
         21   -1    0    0  501  502  0.00000000000E+00  0.00000000000E+00  0.65156206438E+03  0.65156206438E+03  0.00000000000E+00 0.  1.
         21   -1    0    0  502  503 -0.00000000000E+00 -0.00000000000E+00 -0.29990988120E+00  0.29990988120E+00  0.00000000000E+00 0. -1.
          5    1    1    2  501    0 -0.72438468066E+00 -0.69413019199E+01  0.58590754788E+03  0.58596796078E+03  0.47000000000E+01 0.  1.
         -5    1    1    2    0  503  0.72438468066E+00  0.69413019199E+01  0.65354606618E+02  0.65894013474E+02  0.47000000000E+01 0. -1.
<mgrwt>
<rscale>  2 0.84140600E+01</rscale>
<asrwt>0</asrwt>
<pdfrwt beam="1">  1       21 0.10023918E+00 0.84140600E+01</pdfrwt>
<pdfrwt beam="2">  1       21 0.46140503E-04 0.84140600E+01</pdfrwt>
<totfact> 0.16460981E+08</totfact>
</mgrwt>
</event>
<event>
 4    1  0.3989279E+006  0.8709601E+01  0.7546771E-02  0.2156840E+00
         21   -1    0    0  503  502  0.00000000000E+00  0.00000000000E+00  0.21131583605E+00  0.21131583605E+00  0.00000000000E+00 0. -1.
         21   -1    0    0  501  503 -0.00000000000E+00 -0.00000000000E+00 -0.39420075150E+03  0.39420075150E+03  0.00000000000E+00 0.  1.
          5    1    1    2  501    0 -0.23783649913E+01  0.69361751200E+01 -0.25594560580E+03  0.25609375290E+03  0.47000000000E+01 0.  1.
         -5    1    1    2    0  502  0.23783649913E+01 -0.69361751200E+01 -0.13804382986E+03  0.13831831444E+03  0.47000000000E+01 0. -1.
<mgrwt>
<rscale>  2 0.87096008E+01</rscale>
<asrwt>0</asrwt>
<pdfrwt beam="1">  1       21 0.32510239E-04 0.87096008E+01</pdfrwt>
<pdfrwt beam="2">  1       21 0.60646063E-01 0.87096008E+01</pdfrwt>
<totfact> 0.73007042E+08</totfact>
</mgrwt>
</event>
<event>
 4    1  0.3989279E+006  0.5502698E+01  0.7546771E-02  0.2485023E+00
         21   -1    0    0  503  502  0.00000000000E+00  0.00000000000E+00  0.61824272531E-01  0.61824272531E-01  0.00000000000E+00 0.  1.
         21   -1    0    0  501  503 -0.00000000000E+00 -0.00000000000E+00 -0.86019050622E+03  0.86019050622E+03  0.00000000000E+00 0.  1.
          5    1    1    2  501    0 -0.11179537745E+00  0.28595780487E+01 -0.71232213766E+03  0.71234339155E+03  0.47000000000E+01 0.  1.
         -5    1    1    2    0  502  0.11179537745E+00 -0.28595780487E+01 -0.14780654429E+03  0.14790893894E+03  0.47000000000E+01 0.  1.
<mgrwt>
<rscale>  2 0.55026980E+01</rscale>
<asrwt>0</asrwt>
<pdfrwt beam="1">  1       21 0.95107687E-05 0.55026980E+01</pdfrwt>
<pdfrwt beam="2">  1       21 0.13234615E+00 0.55026980E+01</pdfrwt>
<totfact> 0.59819208E+08</totfact>
</mgrwt>
</event>
<event>
 4    1  0.3989279E+006  0.6405558E+01  0.7546771E-02  0.2365450E+00
         21   -1    0    0  503  502  0.00000000000E+00  0.00000000000E+00  0.35110874655E+00  0.35110874655E+00  0.00000000000E+00 0. -1.
         21   -1    0    0  501  503 -0.00000000000E+00 -0.00000000000E+00 -0.46602784591E+03  0.46602784591E+03  0.00000000000E+00 0.  1.
          5    1    1    2  501    0  0.40065025787E+00 -0.43336646118E+01 -0.43468386871E+03  0.43473106271E+03  0.47000000000E+01 0.  1.
         -5    1    1    2    0  502 -0.40065025787E+00  0.43336646118E+01 -0.30992868457E+02  0.31647891949E+02  0.47000000000E+01 0. -1.
<mgrwt>
<rscale>  2 0.64055577E+01</rscale>
<asrwt>0</asrwt>
<pdfrwt beam="1">  1       21 0.54016860E-04 0.64055577E+01</pdfrwt>
<pdfrwt beam="2">  1       21 0.71696420E-01 0.64055577E+01</pdfrwt>
<totfact> 0.22365551E+08</totfact>
</mgrwt>
</event>
<event>
 4    1  0.3989279E+006  0.6883498E+01  0.7546771E-02  0.2312901E+00
         21   -1    0    0  501  502  0.00000000000E+00  0.00000000000E+00  0.53850248104E+03  0.53850248104E+03  0.00000000000E+00 0.  1.
         21   -1    0    0  502  503 -0.00000000000E+00 -0.00000000000E+00 -0.91518772324E-01  0.91518772324E-01  0.00000000000E+00 0.  1.
          5    1    1    2  501    0 -0.29041724100E+01 -0.41058900530E+01  0.32208902551E+03  0.32216257216E+03  0.47000000000E+01 0.  1.
         -5    1    1    2    0  503  0.29041724100E+01  0.41058900530E+01  0.21632193676E+03  0.21643142765E+03  0.47000000000E+01 0.  1.
<mgrwt>
<rscale>  2 0.68834984E+01</rscale>
<asrwt>0</asrwt>
<pdfrwt beam="1">  1       21 0.82843998E-01 0.68834984E+01</pdfrwt>
<pdfrwt beam="2">  1       21 0.14080242E-04 0.68834984E+01</pdfrwt>
<totfact> 0.10703296E+09</totfact>
</mgrwt>
</event>
<event>
 4    1  0.3989279E+006  0.8594517E+01  0.7546771E-02  0.2165076E+00
         21   -1    0    0  501  502  0.00000000000E+00  0.00000000000E+00  0.10744568057E+03  0.10744568057E+03  0.00000000000E+00 0.  1.
         21   -1    0    0  502  503 -0.00000000000E+00 -0.00000000000E+00 -0.89312729644E+00  0.89312729644E+00  0.00000000000E+00 0.  1.
          5    1    1    2  501    0 -0.71905605011E+01 -0.26752531913E+00  0.79270028203E+02  0.79734579083E+02  0.47000000000E+01 0.  1.
         -5    1    1    2    0  503  0.71905605011E+01  0.26752531913E+00  0.27282525072E+02  0.28604228785E+02  0.47000000000E+01 0.  1.
<mgrwt>
<rscale>  2 0.85945174E+01</rscale>
<asrwt>0</asrwt>
<pdfrwt beam="1">  1       21 0.16530094E-01 0.85945174E+01</pdfrwt>
<pdfrwt beam="2">  1       21 0.13740428E-03 0.85945174E+01</pdfrwt>
<totfact> 0.98316221E+08</totfact>
</mgrwt>
</event>
<event>
 4    1  0.3989279E+006  0.5159868E+01  0.7546771E-02  0.2539552E+00
         21   -1    0    0  501  502  0.00000000000E+00  0.00000000000E+00  0.24787766750E+03  0.24787766750E+03  0.00000000000E+00 0.  1.
         21   -1    0    0  502  503 -0.00000000000E+00 -0.00000000000E+00 -0.17398608850E+00  0.17398608850E+00  0.00000000000E+00 0.  1.
          5    1    1    2  501    0 -0.19756962058E+01  0.79426644307E+00  0.20057350715E+03  0.20063986644E+03  0.47000000000E+01 0.  1.
         -5    1    1    2    0  503  0.19756962058E+01 -0.79426644307E+00  0.47130174264E+02  0.47411787151E+02  0.47000000000E+01 0.  1.
<mgrwt>
<rscale>  2 0.51598677E+01</rscale>
<asrwt>0</asrwt>
<pdfrwt beam="1">  1       21 0.38134743E-01 0.51598677E+01</pdfrwt>
<pdfrwt beam="2">  1       21 0.26767289E-04 0.51598677E+01</pdfrwt>
<totfact> 0.15269070E+09</totfact>
</mgrwt>
</event>
<event>
 4    1  0.3989279E+006  0.6003635E+01  0.7546771E-02  0.2414951E+00
         21   -1    0    0  503  502  0.00000000000E+00  0.00000000000E+00  0.14408452697E+02  0.14408452697E+02  0.00000000000E+00 0.  1.
         21   -1    0    0  501  503 -0.00000000000E+00 -0.00000000000E+00 -0.89774528622E+01  0.89774528622E+01  0.00000000000E+00 0. -1.
          5    1    1    2  501    0  0.24499671658E+01  0.28198040259E+01 -0.72156010814E+01  0.93866145560E+01  0.47000000000E+01 0. -1.
         -5    1    1    2    0  502 -0.24499671658E+01 -0.28198040259E+01  0.12646600917E+02  0.13999291004E+02  0.47000000000E+01 0.  1.
<mgrwt>
<rscale>  2 0.60036351E+01</rscale>
<asrwt>0</asrwt>
<pdfrwt beam="1">  1       21 0.22166850E-02 0.60036351E+01</pdfrwt>
<pdfrwt beam="2">  1       21 0.13811466E-02 0.60036351E+01</pdfrwt>
<totfact> 0.64268592E+08</totfact>
</mgrwt>
</event>
<event>
 4    1  0.3989279E+006  0.6665408E+01  0.7546771E-02  0.2336108E+00
         21   -1    0    0  501  502  0.00000000000E+00  0.00000000000E+00  0.40362470283E+01  0.40362470283E+01  0.00000000000E+00 0.  1.
         21   -1    0    0  502  503 -0.00000000000E+00 -0.00000000000E+00 -0.15307554820E+02  0.15307554820E+02  0.00000000000E+00 0. -1.
          5    1    1    2  501    0 -0.24025598767E+01 -0.40700578487E+01 -0.50925387566E+00  0.66848339069E+01  0.47000000000E+01 0.  1.
         -5    1    1    2    0  503  0.24025598767E+01  0.40700578487E+01 -0.10762053917E+02  0.12658967942E+02  0.47000000000E+01 0. -1.
<mgrwt>
<rscale>  2 0.66654081E+01</rscale>
<asrwt>0</asrwt>
<pdfrwt beam="1">  1       21 0.62096109E-03 0.66654081E+01</pdfrwt>
<pdfrwt beam="2">  1       21 0.23550084E-02 0.66654081E+01</pdfrwt>
<totfact> 0.19812649E+09</totfact>
</mgrwt>
</event>
<event>
 4    1  0.3989279E+006  0.4921347E+01  0.7546771E-02  0.2581299E+00
         21   -1    0    0  501  502  0.00000000000E+00  0.00000000000E+00  0.13546292299E+03  0.13546292299E+03  0.00000000000E+00 0.  1.
         21   -1    0    0  502  503 -0.00000000000E+00 -0.00000000000E+00 -0.26436955340E+01  0.26436955340E+01  0.00000000000E+00 0.  1.
          5    1    1    2  501    0  0.14388269083E+01 -0.24379495345E+00  0.13308702952E+03  0.13317799024E+03  0.47000000000E+01 0.  1.
         -5    1    1    2    0  503 -0.14388269083E+01  0.24379495345E+00 -0.26780205733E+00  0.49286282872E+01  0.47000000000E+01 0.  1.
<mgrwt>
<rscale>  2 0.49213473E+01</rscale>
<asrwt>0</asrwt>
<pdfrwt beam="1">  1       21 0.20840444E-01 0.49213473E+01</pdfrwt>
<pdfrwt beam="2">  1       21 0.40672249E-03 0.49213473E+01</pdfrwt>
<totfact> 0.10479084E+08</totfact>
</mgrwt>
</event>
<event>
 4    1  0.3989279E+006  0.4716288E+01  0.7546771E-02  0.2620087E+00
         21   -1    0    0  501  502  0.00000000000E+00  0.00000000000E+00  0.61189156189E+01  0.61189156189E+01  0.00000000000E+00 0.  1.
         21   -1    0    0  502  503 -0.00000000000E+00 -0.00000000000E+00 -0.44726561947E+01  0.44726561947E+01  0.00000000000E+00 0.  1.
          5    1    1    2  501    0  0.16604329350E+00 -0.35468330972E+00  0.31147013222E+01  0.56519673524E+01  0.47000000000E+01 0.  1.
         -5    1    1    2    0  503 -0.16604329350E+00  0.35468330972E+00 -0.14684418980E+01  0.49396044612E+01  0.47000000000E+01 0.  1.
<mgrwt>
<rscale>  2 0.47162878E+01</rscale>
<asrwt>0</asrwt>
<pdfrwt beam="1">  1       21 0.94137164E-03 0.47162878E+01</pdfrwt>
<pdfrwt beam="2">  1       21 0.68810095E-03 0.47162878E+01</pdfrwt>
<totfact> 0.45525719E+09</totfact>
</mgrwt>
</event>
<event>
 4    1  0.3989279E+006  0.7085758E+01  0.7546771E-02  0.2292434E+00
         21   -1    0    0  501  502  0.00000000000E+00  0.00000000000E+00  0.31273638039E+01  0.31273638039E+01  0.00000000000E+00 0.  1.
         21   -1    0    0  502  503 -0.00000000000E+00 -0.00000000000E+00 -0.25020624754E+02  0.25020624754E+02  0.00000000000E+00 0. -1.
          5    1    1    2  501    0 -0.28557657332E+01  0.44679482457E+01 -0.25215699706E+01  0.75210554157E+01  0.47000000000E+01 0.  1.
         -5    1    1    2    0  503  0.28557657332E+01 -0.44679482457E+01 -0.19371690980E+02  0.20626933142E+02  0.47000000000E+01 0. -1.
<mgrwt>
<rscale>  2 0.70857575E+01</rscale>
<asrwt>0</asrwt>
<pdfrwt beam="1">  1       21 0.48113287E-03 0.70857575E+01</pdfrwt>
<pdfrwt beam="2">  1       21 0.38493271E-02 0.70857575E+01</pdfrwt>
<totfact> 0.14436781E+09</totfact>
</mgrwt>
</event>
<event>
 4    1  0.3989279E+006  0.8556083E+01  0.7546771E-02  0.2167866E+00
         21   -1    0    0  503  502  0.00000000000E+00  0.00000000000E+00  0.31670092286E+00  0.31670092286E+00  0.00000000000E+00 0. -1.
         21   -1    0    0  501  503 -0.00000000000E+00 -0.00000000000E+00 -0.28928120159E+03  0.28928120159E+03  0.00000000000E+00 0. -1.
          5    1    1    2  501    0 -0.44230495651E+01  0.56172231371E+01 -0.20938998550E+03  0.20956472172E+03  0.47000000000E+01 0. -1.
         -5    1    1    2    0  502  0.44230495651E+01 -0.56172231371E+01 -0.79574515169E+02  0.80033180792E+02  0.47000000000E+01 0. -1.
<mgrwt>
<rscale>  2 0.85560834E+01</rscale>
<asrwt>0</asrwt>
<pdfrwt beam="1">  1       21 0.48723247E-04 0.85560834E+01</pdfrwt>
<pdfrwt beam="2">  1       21 0.44504775E-01 0.85560834E+01</pdfrwt>
<totfact> 0.74168393E+08</totfact>
</mgrwt>
</event>
<event>
 4    1  0.3989279E+006  0.4851631E+01  0.7546771E-02  0.2594167E+00
         21   -1    0    0  501  502  0.00000000000E+00  0.00000000000E+00  0.24660329657E+01  0.24660329657E+01  0.00000000000E+00 0.  1.
         21   -1    0    0  502  503 -0.00000000000E+00 -0.00000000000E+00 -0.44206950132E+02  0.44206950132E+02  0.00000000000E+00 0.  1.
          5    1    1    2  501    0  0.47430427136E+00 -0.11060558186E+01 -0.20634959672E+00  0.48560173158E+01  0.47000000000E+01 0.  1.
         -5    1    1    2    0  503 -0.47430427136E+00  0.11060558186E+01 -0.41534567570E+02  0.41816965782E+02  0.47000000000E+01 0.  1.
<mgrwt>
<rscale>  2 0.48516311E+01</rscale>
<asrwt>0</asrwt>
<pdfrwt beam="1">  1       21 0.37938972E-03 0.48516311E+01</pdfrwt>
<pdfrwt beam="2">  1       21 0.68010686E-02 0.48516311E+01</pdfrwt>
<totfact> 0.63132660E+08</totfact>
</mgrwt>
</event>
<event>
 4    1  0.3989279E+006  0.4814179E+01  0.7546771E-02  0.2601213E+00
         21   -1    0    0  501  502  0.00000000000E+00  0.00000000000E+00  0.18987072647E+01  0.18987072647E+01  0.00000000000E+00 0.  1.
         21   -1    0    0  502  503 -0.00000000000E+00 -0.00000000000E+00 -0.31809812021E+02  0.31809812021E+02  0.00000000000E+00 0.  1.
          5    1    1    2  501    0  0.15546084495E+00 -0.10306069594E+01 -0.17244715697E+01  0.51137188986E+01  0.47000000000E+01 0.  1.
         -5    1    1    2    0  503 -0.15546084495E+00  0.10306069594E+01 -0.28186633186E+02  0.28594800387E+02  0.47000000000E+01 0.  1.
<mgrwt>
<rscale>  2 0.48141789E+01</rscale>
<asrwt>0</asrwt>
<pdfrwt beam="1">  1       21 0.29210882E-03 0.48141789E+01</pdfrwt>
<pdfrwt beam="2">  1       21 0.48938171E-02 0.48141789E+01</pdfrwt>
<totfact> 0.14484253E+09</totfact>
</mgrwt>
</event>
<event>
 4    1  0.3989279E+006  0.5200307E+01  0.7546771E-02  0.2532801E+00
         21   -1    0    0  501  502  0.00000000000E+00  0.00000000000E+00  0.35505217189E+01  0.35505217189E+01  0.00000000000E+00 0.  1.
         21   -1    0    0  502  503 -0.00000000000E+00 -0.00000000000E+00 -0.76834350663E+01  0.76834350663E+01  0.00000000000E+00 0.  1.
          5    1    1    2  501    0  0.15551205649E+01  0.15921046001E+01 -0.15429060645E+01  0.54243668896E+01  0.47000000000E+01 0.  1.
         -5    1    1    2    0  503 -0.15551205649E+01 -0.15921046001E+01 -0.25900072830E+01  0.58095898956E+01  0.47000000000E+01 0.  1.
<mgrwt>
<rscale>  2 0.52003074E+01</rscale>
<asrwt>0</asrwt>
<pdfrwt beam="1">  1       21 0.54623411E-03 0.52003074E+01</pdfrwt>
<pdfrwt beam="2">  1       21 0.11820669E-02 0.52003074E+01</pdfrwt>
<totfact> 0.50570502E+09</totfact>
</mgrwt>
</event>
<event>
 4    1  0.3989279E+006  0.5714913E+01  0.7546771E-02  0.2454074E+00
         21   -1    0    0  503  502  0.00000000000E+00  0.00000000000E+00  0.14063560156E+00  0.14063560156E+00  0.00000000000E+00 0.  1.
         21   -1    0    0  501  503 -0.00000000000E+00 -0.00000000000E+00 -0.42149170766E+03  0.42149170766E+03  0.00000000000E+00 0. -1.
          5    1    1    2  501    0  0.28544434283E+01  0.15564025559E+01 -0.69409658905E+02  0.69644533063E+02  0.47000000000E+01 0.  1.
         -5    1    1    2    0  502 -0.28544434283E+01 -0.15564025559E+01 -0.35194141315E+03  0.35198781020E+03  0.47000000000E+01 0. -1.
<mgrwt>
<rscale>  2 0.57149135E+01</rscale>
<asrwt>0</asrwt>
<pdfrwt beam="1">  1       21 0.21636608E-04 0.57149135E+01</pdfrwt>
<pdfrwt beam="2">  1       21 0.64843793E-01 0.57149135E+01</pdfrwt>
<totfact> 0.85071498E+08</totfact>
</mgrwt>
</event>
<event>
 4    1  0.3989279E+006  0.8247440E+01  0.7546771E-02  0.2191022E+00
         21   -1    0    0  503  502  0.00000000000E+00  0.00000000000E+00  0.75744594807E+00  0.75744594807E+00  0.00000000000E+00 0.  1.
         21   -1    0    0  501  503 -0.00000000000E+00 -0.00000000000E+00 -0.15611529374E+03  0.15611529374E+03  0.00000000000E+00 0. -1.
          5    1    1    2  501    0 -0.65309609014E+01 -0.18101972324E+01 -0.12879936748E+03  0.12906315248E+03  0.47000000000E+01 0.  1.
         -5    1    1    2    0  502  0.65309609014E+01  0.18101972324E+01 -0.26558480313E+02  0.27809587211E+02  0.47000000000E+01 0.  1.
<mgrwt>
<rscale>  2 0.82474399E+01</rscale>
<asrwt>0</asrwt>
<pdfrwt beam="1">  1       21 0.11652998E-03 0.82474399E+01</pdfrwt>
<pdfrwt beam="2">  1       21 0.24017771E-01 0.82474399E+01</pdfrwt>
<totfact> 0.64815696E+08</totfact>
</mgrwt>
</event>
<event>
 4    1  0.3989279E+006  0.4999937E+01  0.7546771E-02  0.2567165E+00
         21   -1    0    0  503  502  0.00000000000E+00  0.00000000000E+00  0.17532985017E+00  0.17532985017E+00  0.00000000000E+00 0. -1.
         21   -1    0    0  501  503 -0.00000000000E+00 -0.00000000000E+00 -0.19313177942E+03  0.19313177942E+03  0.00000000000E+00 0. -1.
          5    1    1    2  501    0  0.37406560335E+00  0.16641657683E+01 -0.14592506400E+03  0.14601069713E+03  0.47000000000E+01 0. -1.
         -5    1    1    2    0  502 -0.37406560335E+00 -0.16641657683E+01 -0.47031385566E+02  0.47296412138E+02  0.47000000000E+01 0. -1.
<mgrwt>
<rscale>  2 0.49999373E+01</rscale>
<asrwt>0</asrwt>
<pdfrwt beam="1">  1       21 0.26973880E-04 0.49999373E+01</pdfrwt>
<pdfrwt beam="2">  1       21 0.29712519E-01 0.49999373E+01</pdfrwt>
<totfact> 0.22373083E+09</totfact>
</mgrwt>
</event>
<event>
 4    1  0.3989279E+006  0.1295127E+02  0.7546771E-02  0.1937891E+00
         21   -1    0    0  501  502  0.00000000000E+00  0.00000000000E+00  0.56457710729E+00  0.56457710729E+00  0.00000000000E+00 0. -1.
         21   -1    0    0  502  503 -0.00000000000E+00 -0.00000000000E+00 -0.30574489895E+03  0.30574489895E+03  0.00000000000E+00 0.  1.
          5    1    1    2  501    0  0.10236409822E+02 -0.63922904145E+01 -0.12683594127E+03  0.12749545663E+03  0.47000000000E+01 0. -1.
         -5    1    1    2    0  503 -0.10236409822E+02  0.63922904145E+01 -0.17834438057E+03  0.17881401943E+03  0.47000000000E+01 0. -1.
<mgrwt>
<rscale>  2 0.12951273E+02</rscale>
<asrwt>0</asrwt>
<pdfrwt beam="1">  1       21 0.86857855E-04 0.12951273E+02</pdfrwt>
<pdfrwt beam="2">  1       21 0.47037764E-01 0.12951273E+02</pdfrwt>
<totfact> 0.37034235E+08</totfact>
</mgrwt>
</event>
<event>
 4    1  0.3989279E+006  0.6371220E+01  0.7546771E-02  0.2369475E+00
         21   -1    0    0  503  502  0.00000000000E+00  0.00000000000E+00  0.81013353837E+02  0.81013353837E+02  0.00000000000E+00 0. -1.
         21   -1    0    0  501  503 -0.00000000000E+00 -0.00000000000E+00 -0.59986993478E+00  0.59986993478E+00  0.00000000000E+00 0. -1.
          5    1    1    2  501    0 -0.41892562704E+01  0.97600236808E+00  0.23645035897E+02  0.24488368082E+02  0.47000000000E+01 0. -1.
         -5    1    1    2    0  502  0.41892562704E+01 -0.97600236808E+00  0.56768448006E+02  0.57124855691E+02  0.47000000000E+01 0. -1.
<mgrwt>
<rscale>  2 0.63712203E+01</rscale>
<asrwt>0</asrwt>
<pdfrwt beam="1">  1       21 0.12463584E-01 0.63712203E+01</pdfrwt>
<pdfrwt beam="2">  1       21 0.92287746E-04 0.63712203E+01</pdfrwt>
<totfact> 0.21524126E+09</totfact>
</mgrwt>
</event>
<event>
 4    1  0.3989279E+006  0.5729259E+01  0.7546771E-02  0.2452052E+00
         21   -1    0    0  503  502  0.00000000000E+00  0.00000000000E+00  0.21308843563E+03  0.21308843563E+03  0.00000000000E+00 0. -1.
         21   -1    0    0  501  503 -0.00000000000E+00 -0.00000000000E+00 -0.15411946533E+00  0.15411946533E+00  0.00000000000E+00 0.  1.
          5    1    1    2  501    0  0.32737610784E+01  0.12999289102E+00  0.10886903696E+03  0.10901968454E+03  0.47000000000E+01 0. -1.
         -5    1    1    2    0  502 -0.32737610784E+01 -0.12999289102E+00  0.10406527921E+03  0.10422287055E+03  0.47000000000E+01 0. -1.
<mgrwt>
<rscale>  2 0.57292591E+01</rscale>
<asrwt>0</asrwt>
<pdfrwt beam="1">  1       21 0.32782600E-01 0.57292591E+01</pdfrwt>
<pdfrwt beam="2">  1       21 0.23710858E-04 0.57292591E+01</pdfrwt>
<totfact> 0.25346743E+09</totfact>
</mgrwt>
</event>
<event>
 4    1  0.3989279E+006  0.7590747E+01  0.7546771E-02  0.2245261E+00
         21   -1    0    0  501  502  0.00000000000E+00  0.00000000000E+00  0.81886729540E+01  0.81886729540E+01  0.00000000000E+00 0.  1.
         21   -1    0    0  502  503 -0.00000000000E+00 -0.00000000000E+00 -0.25767020509E+02  0.25767020509E+02  0.00000000000E+00 0. -1.
          5    1    1    2  501    0 -0.29286155636E+01 -0.51915935755E+01  0.56860625468E+01  0.94842364088E+01  0.47000000000E+01 0.  1.
         -5    1    1    2    0  503  0.29286155636E+01  0.51915935755E+01 -0.23264410102E+02  0.24471457054E+02  0.47000000000E+01 0. -1.
<mgrwt>
<rscale>  2 0.75907465E+01</rscale>
<asrwt>0</asrwt>
<pdfrwt beam="1">  1       21 0.12597958E-02 0.75907465E+01</pdfrwt>
<pdfrwt beam="2">  1       21 0.39641570E-02 0.75907465E+01</pdfrwt>
<totfact> 0.36965369E+08</totfact>
</mgrwt>
</event>
<event>
 4    1  0.3989279E+006  0.5846745E+01  0.7546771E-02  0.2435807E+00
         21   -1    0    0  501  502  0.00000000000E+00  0.00000000000E+00  0.76860372342E+02  0.76860372342E+02  0.00000000000E+00 0.  1.
         21   -1    0    0  502  503 -0.00000000000E+00 -0.00000000000E+00 -0.91030057243E+00  0.91030057243E+00  0.00000000000E+00 0.  1.
          5    1    1    2  501    0 -0.32127019634E+01  0.13315305468E+01  0.65783190591E+02  0.66042505948E+02  0.47000000000E+01 0.  1.
         -5    1    1    2    0  503  0.32127019634E+01 -0.13315305468E+01  0.10166881178E+02  0.11728166967E+02  0.47000000000E+01 0.  1.
<mgrwt>
<rscale>  2 0.58467450E+01</rscale>
<asrwt>0</asrwt>
<pdfrwt beam="1">  1       21 0.11824668E-01 0.58467450E+01</pdfrwt>
<pdfrwt beam="2">  1       21 0.14004630E-03 0.58467450E+01</pdfrwt>
<totfact> 0.12420960E+09</totfact>
</mgrwt>
</event>
<event>
 4    1  0.3989279E+006  0.5183409E+01  0.7546771E-02  0.2535611E+00
         21   -1    0    0  501  502  0.00000000000E+00  0.00000000000E+00  0.63819605370E+02  0.63819605370E+02  0.00000000000E+00 0. -1.
         21   -1    0    0  502  503 -0.00000000000E+00 -0.00000000000E+00 -0.15040534727E+01  0.15040534727E+01  0.00000000000E+00 0.  1.
          5    1    1    2  501    0  0.92591992565E+00  0.19799994420E+01  0.58874050146E+02  0.59101789365E+02  0.47000000000E+01 0. -1.
         -5    1    1    2    0  503 -0.92591992565E+00 -0.19799994420E+01  0.34415017511E+01  0.62218694781E+01  0.47000000000E+01 0.  1.
<mgrwt>
<rscale>  2 0.51834087E+01</rscale>
<asrwt>0</asrwt>
<pdfrwt beam="1">  1       21 0.98183987E-02 0.51834087E+01</pdfrwt>
<pdfrwt beam="2">  1       21 0.23139289E-03 0.51834087E+01</pdfrwt>
<totfact> 0.75704962E+08</totfact>
</mgrwt>
</event>
<event>
 4    1  0.3989279E+006  0.4841440E+01  0.7546771E-02  0.2596075E+00
         21   -1    0    0  501  502  0.00000000000E+00  0.00000000000E+00  0.29346702978E+01  0.29346702978E+01  0.00000000000E+00 0. -1.
         21   -1    0    0  502  503 -0.00000000000E+00 -0.00000000000E+00 -0.80308229364E+01  0.80308229364E+01  0.00000000000E+00 0. -1.
          5    1    1    2  501    0 -0.35960635870E+00  0.11046381107E+01 -0.21435840136E+01  0.52947610439E+01  0.47000000000E+01 0.  1.
         -5    1    1    2    0  503  0.35960635870E+00 -0.11046381107E+01 -0.29525686250E+01  0.56707321903E+01  0.47000000000E+01 0.  1.
<mgrwt>
<rscale>  2 0.48414401E+01</rscale>
<asrwt>0</asrwt>
<pdfrwt beam="1">  1       21 0.45148775E-03 0.48414401E+01</pdfrwt>
<pdfrwt beam="2">  1       21 0.12355112E-02 0.48414401E+01</pdfrwt>
<totfact> 0.57209514E+09</totfact>
</mgrwt>
</event>
<event>
 4    1  0.3989279E+006  0.5818650E+01  0.7546771E-02  0.2439641E+00
         21   -1    0    0  503  502  0.00000000000E+00  0.00000000000E+00  0.10636269368E+03  0.10636269368E+03  0.00000000000E+00 0.  1.
         21   -1    0    0  501  503 -0.00000000000E+00 -0.00000000000E+00 -0.32609527549E+00  0.32609527549E+00  0.00000000000E+00 0.  1.
          5    1    1    2  501    0 -0.14359755215E+00 -0.34272534687E+01  0.44777781551E+02  0.45154251264E+02  0.47000000000E+01 0.  1.
         -5    1    1    2    0  502  0.14359755215E+00  0.34272534687E+01  0.61258816856E+02  0.61534537694E+02  0.47000000000E+01 0.  1.
<mgrwt>
<rscale>  2 0.58186499E+01</rscale>
<asrwt>0</asrwt>
<pdfrwt beam="1">  1       21 0.16363464E-01 0.58186499E+01</pdfrwt>
<pdfrwt beam="2">  1       21 0.50168589E-04 0.58186499E+01</pdfrwt>
<totfact> 0.29444568E+09</totfact>
</mgrwt>
</event>
<event>
 4    1  0.3989279E+006  0.5944117E+01  0.7546771E-02  0.2422754E+00
         21   -1    0    0  503  502  0.00000000000E+00  0.00000000000E+00  0.16731446953E+01  0.16731446953E+01  0.00000000000E+00 0.  1.
         21   -1    0    0  501  503 -0.00000000000E+00 -0.00000000000E+00 -0.37436953987E+02  0.37436953987E+02  0.00000000000E+00 0.  1.
          5    1    1    2  501    0 -0.10333290351E-01 -0.36390128065E+01 -0.30792978548E+02  0.31361442072E+02  0.47000000000E+01 0.  1.
         -5    1    1    2    0  502  0.10333290351E-01  0.36390128065E+01 -0.49708307443E+01  0.77486566108E+01  0.47000000000E+01 0.  1.
<mgrwt>
<rscale>  2 0.59441165E+01</rscale>
<asrwt>0</asrwt>
<pdfrwt beam="1">  1       21 0.25740688E-03 0.59441165E+01</pdfrwt>
<pdfrwt beam="2">  1       21 0.57595313E-02 0.59441165E+01</pdfrwt>
<totfact> 0.16407780E+09</totfact>
</mgrwt>
</event>
<event>
 4    1  0.3989279E+006  0.5859450E+01  0.7546771E-02  0.2434083E+00
         21   -1    0    0  503  502  0.00000000000E+00  0.00000000000E+00  0.63018254774E+01  0.63018254774E+01  0.00000000000E+00 0. -1.
         21   -1    0    0  501  503 -0.00000000000E+00 -0.00000000000E+00 -0.29570637120E+02  0.29570637120E+02  0.00000000000E+00 0. -1.
          5    1    1    2  501    0 -0.47185490746E-01 -0.34987031425E+01 -0.27834296989E+02  0.28444353377E+02  0.47000000000E+01 0. -1.
         -5    1    1    2    0  502  0.47185490746E-01  0.34987031425E+01  0.45654853462E+01  0.74281092208E+01  0.47000000000E+01 0. -1.
<mgrwt>
<rscale>  2 0.58594496E+01</rscale>
<asrwt>0</asrwt>
<pdfrwt beam="1">  1       21 0.96951162E-03 0.58594496E+01</pdfrwt>
<pdfrwt beam="2">  1       21 0.45493287E-02 0.58594496E+01</pdfrwt>
<totfact> 0.36524332E+08</totfact>
</mgrwt>
</event>
<event>
 4    1  0.3989279E+006  0.6143082E+01  0.7546771E-02  0.2397165E+00
         21   -1    0    0  501  502  0.00000000000E+00  0.00000000000E+00  0.72322164869E+02  0.72322164869E+02  0.00000000000E+00 0.  1.
         21   -1    0    0  502  503 -0.00000000000E+00 -0.00000000000E+00 -0.10171467048E+01  0.10171467048E+01  0.00000000000E+00 0.  1.
          5    1    1    2  501    0 -0.39491115215E+01  0.22798368894E+00  0.61242561349E+02  0.61549888538E+02  0.47000000000E+01 0.  1.
         -5    1    1    2    0  503  0.39491115215E+01 -0.22798368894E+00  0.10062456815E+02  0.11789423036E+02  0.47000000000E+01 0.  1.
<mgrwt>
<rscale>  2 0.61430822E+01</rscale>
<asrwt>0</asrwt>
<pdfrwt beam="1">  1       21 0.11126483E-01 0.61430822E+01</pdfrwt>
<pdfrwt beam="2">  1       21 0.15648416E-03 0.61430822E+01</pdfrwt>
<totfact> 0.12221145E+09</totfact>
</mgrwt>
</event>
<event>
 4    1  0.3989279E+006  0.5509317E+01  0.7546771E-02  0.2484027E+00
         21   -1    0    0  501  502  0.00000000000E+00  0.00000000000E+00  0.24344221103E+01  0.24344221103E+01  0.00000000000E+00 0. -1.
         21   -1    0    0  502  503 -0.00000000000E+00 -0.00000000000E+00 -0.18145014987E+02  0.18145014987E+02  0.00000000000E+00 0. -1.
          5    1    1    2  501    0  0.28083448785E+01  0.61300036810E+00 -0.20998134021E+01  0.58959127140E+01  0.47000000000E+01 0. -1.
         -5    1    1    2    0  503 -0.28083448785E+01 -0.61300036810E+00 -0.13610779474E+02  0.14683524383E+02  0.47000000000E+01 0. -1.
<mgrwt>
<rscale>  2 0.55093167E+01</rscale>
<asrwt>0</asrwt>
<pdfrwt beam="1">  1       21 0.37452649E-03 0.55093167E+01</pdfrwt>
<pdfrwt beam="2">  1       21 0.27915407E-02 0.55093167E+01</pdfrwt>
<totfact> 0.26525067E+09</totfact>
</mgrwt>
</event>
<event>
 4    1  0.3989279E+006  0.5564658E+01  0.7546771E-02  0.2475780E+00
         21   -1    0    0  503  502  0.00000000000E+00  0.00000000000E+00  0.18780763896E+02  0.18780763896E+02  0.00000000000E+00 0.  1.
         21   -1    0    0  501  503 -0.00000000000E+00 -0.00000000000E+00 -0.28231633651E+01  0.28231633651E+01  0.00000000000E+00 0. -1.
          5    1    1    2  501    0  0.28913045144E+01  0.71817404803E+00  0.10119097900E+01  0.56559152382E+01  0.47000000000E+01 0. -1.
         -5    1    1    2    0  502 -0.28913045144E+01 -0.71817404803E+00  0.14945690741E+02  0.15948012023E+02  0.47000000000E+01 0.  1.
<mgrwt>
<rscale>  2 0.55646577E+01</rscale>
<asrwt>0</asrwt>
<pdfrwt beam="1">  1       21 0.28893482E-02 0.55646577E+01</pdfrwt>
<pdfrwt beam="2">  1       21 0.43433284E-03 0.55646577E+01</pdfrwt>
<totfact> 0.20772453E+09</totfact>
</mgrwt>
</event>
<event>
 4    1  0.3989279E+006  0.4882384E+01  0.7546771E-02  0.2588451E+00
         21   -1    0    0  503  502  0.00000000000E+00  0.00000000000E+00  0.68454067193E+02  0.68454067193E+02  0.00000000000E+00 0.  1.
         21   -1    0    0  501  503 -0.00000000000E+00 -0.00000000000E+00 -0.11199892943E+01  0.11199892943E+01  0.00000000000E+00 0.  1.
          5    1    1    2  501    0 -0.13219366874E+01 -0.12714010250E-01  0.47900661636E+01  0.68397669626E+01  0.47000000000E+01 0.  1.
         -5    1    1    2    0  502  0.13219366874E+01  0.12714010250E-01  0.62544011735E+02  0.62734289525E+02  0.47000000000E+01 0.  1.
<mgrwt>
<rscale>  2 0.48823845E+01</rscale>
<asrwt>0</asrwt>
<pdfrwt beam="1">  1       21 0.10531392E-01 0.48823845E+01</pdfrwt>
<pdfrwt beam="2">  1       21 0.17230610E-03 0.48823845E+01</pdfrwt>
<totfact> 0.95877614E+08</totfact>
</mgrwt>
</event>
<event>
 4    1  0.3989279E+006  0.7463471E+01  0.7546771E-02  0.2256659E+00
         21   -1    0    0  501  502  0.00000000000E+00  0.00000000000E+00  0.27199995331E+03  0.27199995331E+03  0.00000000000E+00 0.  1.
         21   -1    0    0  502  503 -0.00000000000E+00 -0.00000000000E+00 -0.47728287673E+00  0.47728287673E+00  0.00000000000E+00 0. -1.
          5    1    1    2  501    0  0.42028979839E+01 -0.39936255503E+01  0.23870232475E+03  0.23881897587E+03  0.47000000000E+01 0.  1.
         -5    1    1    2    0  503 -0.42028979839E+01  0.39936255503E+01  0.32820345681E+02  0.33658260310E+02  0.47000000000E+01 0. -1.
<mgrwt>
<rscale>  2 0.74634708E+01</rscale>
<asrwt>0</asrwt>
<pdfrwt beam="1">  1       21 0.41846023E-01 0.74634708E+01</pdfrwt>
<pdfrwt beam="2">  1       21 0.73428352E-04 0.74634708E+01</pdfrwt>
<totfact> 0.43852550E+08</totfact>
</mgrwt>
</event>
<event>
 4    1  0.3989279E+006  0.8272935E+01  0.7546771E-02  0.2189057E+00
         21   -1    0    0  503  502  0.00000000000E+00  0.00000000000E+00  0.15646698908E+01  0.15646698908E+01  0.00000000000E+00 0. -1.
         21   -1    0    0  501  503 -0.00000000000E+00 -0.00000000000E+00 -0.35018158688E+03  0.35018158688E+03  0.00000000000E+00 0. -1.
          5    1    1    2  501    0 -0.16752711715E+01 -0.65988576305E+01 -0.33883100436E+03  0.33893198576E+03  0.47000000000E+01 0. -1.
         -5    1    1    2    0  502  0.16752711715E+01  0.65988576305E+01 -0.97859126246E+01  0.12814271006E+02  0.47000000000E+01 0. -1.
<mgrwt>
<rscale>  2 0.82729351E+01</rscale>
<asrwt>0</asrwt>
<pdfrwt beam="1">  1       21 0.24071837E-03 0.82729351E+01</pdfrwt>
<pdfrwt beam="2">  1       21 0.53874106E-01 0.82729351E+01</pdfrwt>
<totfact> 0.57356893E+07</totfact>
</mgrwt>
</event>
<event>
 4    1  0.3989279E+006  0.1099266E+02  0.7546771E-02  0.2022538E+00
         21   -1    0    0  501  502  0.00000000000E+00  0.00000000000E+00  0.48932473861E+01  0.48932473861E+01  0.00000000000E+00 0. -1.
         21   -1    0    0  502  503 -0.00000000000E+00 -0.00000000000E+00 -0.28206129019E+02  0.28206129019E+02  0.00000000000E+00 0.  1.
          5    1    1    2  501    0 -0.11364729482E+01 -0.98720357182E+01 -0.58173862941E+01  0.12437067310E+02  0.47000000000E+01 0. -1.
         -5    1    1    2    0  503  0.11364729482E+01  0.98720357182E+01 -0.17495495339E+02  0.20662309095E+02  0.47000000000E+01 0.  1.
<mgrwt>
<rscale>  2 0.10992664E+02</rscale>
<asrwt>0</asrwt>
<pdfrwt beam="1">  1       21 0.75280729E-03 0.10992664E+02</pdfrwt>
<pdfrwt beam="2">  1       21 0.43394045E-02 0.10992664E+02</pdfrwt>
<totfact> 0.84259814E+08</totfact>
</mgrwt>
</event>
<event>
 4    1  0.3989279E+006  0.7277992E+01  0.7546771E-02  0.2273848E+00
         21   -1    0    0  503  502  0.00000000000E+00  0.00000000000E+00  0.25903599530E+00  0.25903599530E+00  0.00000000000E+00 0. -1.
         21   -1    0    0  501  503 -0.00000000000E+00 -0.00000000000E+00 -0.38809640074E+03  0.38809640074E+03  0.00000000000E+00 0. -1.
          5    1    1    2  501    0 -0.55553445858E+01 -0.13158464526E+00 -0.32747933400E+03  0.32756019808E+03  0.47000000000E+01 0. -1.
         -5    1    1    2    0  502  0.55553445858E+01  0.13158464526E+00 -0.60358030741E+02  0.60795238654E+02  0.47000000000E+01 0. -1.
<mgrwt>
<rscale>  2 0.72779920E+01</rscale>
<asrwt>0</asrwt>
<pdfrwt beam="1">  1       21 0.39851755E-04 0.72779920E+01</pdfrwt>
<pdfrwt beam="2">  1       21 0.59707044E-01 0.72779920E+01</pdfrwt>
<totfact> 0.51487025E+08</totfact>
</mgrwt>
</event>
<event>
 4    1  0.3989279E+006  0.5242083E+01  0.7546771E-02  0.2525921E+00
         21   -1    0    0  503  502  0.00000000000E+00  0.00000000000E+00  0.70234275852E+02  0.70234275852E+02  0.00000000000E+00 0.  1.
         21   -1    0    0  501  503 -0.00000000000E+00 -0.00000000000E+00 -0.40476826808E+00  0.40476826808E+00  0.00000000000E+00 0.  1.
          5    1    1    2  501    0  0.42039083371E+00 -0.22831358285E+01  0.28461054881E+02  0.28939783735E+02  0.47000000000E+01 0. -1.
         -5    1    1    2    0  502 -0.42039083371E+00  0.22831358285E+01  0.41368452703E+02  0.41699260386E+02  0.47000000000E+01 0. -1.
<mgrwt>
<rscale>  2 0.52420833E+01</rscale>
<asrwt>0</asrwt>
<pdfrwt beam="1">  1       21 0.10805264E-01 0.52420833E+01</pdfrwt>
<pdfrwt beam="2">  1       21 0.62272097E-04 0.52420833E+01</pdfrwt>
<totfact> 0.38272894E+09</totfact>
</mgrwt>
</event>
<event>
 4    1  0.3989279E+006  0.7447307E+01  0.7546771E-02  0.2258129E+00
         21   -1    0    0  503  502  0.00000000000E+00  0.00000000000E+00  0.12674765809E+02  0.12674765809E+02  0.00000000000E+00 0.  1.
         21   -1    0    0  501  503 -0.00000000000E+00 -0.00000000000E+00 -0.11725237568E+02  0.11725237568E+02  0.00000000000E+00 0. -1.
          5    1    1    2  501    0  0.57403775929E+01  0.64842236142E+00 -0.91840937829E+01  0.11824126398E+02  0.47000000000E+01 0. -1.
         -5    1    1    2    0  502 -0.57403775929E+01 -0.64842236142E+00  0.10133622024E+02  0.12575876979E+02  0.47000000000E+01 0.  1.
<mgrwt>
<rscale>  2 0.74473073E+01</rscale>
<asrwt>0</asrwt>
<pdfrwt beam="1">  1       21 0.19499640E-02 0.74473073E+01</pdfrwt>
<pdfrwt beam="2">  1       21 0.18038827E-02 0.74473073E+01</pdfrwt>
<totfact> 0.61745398E+08</totfact>
</mgrwt>
</event>
<event>
 4    1  0.3989279E+006  0.5345180E+01  0.7546771E-02  0.2509336E+00
         21   -1    0    0  501  502  0.00000000000E+00  0.00000000000E+00  0.78577651792E+01  0.78577651792E+01  0.00000000000E+00 0.  1.
         21   -1    0    0  502  503 -0.00000000000E+00 -0.00000000000E+00 -0.46221777473E+01  0.46221777473E+01  0.00000000000E+00 0. -1.
          5    1    1    2  501    0 -0.22332789544E+01 -0.12220546355E+01  0.45000564636E+01  0.69872355475E+01  0.47000000000E+01 0.  1.
         -5    1    1    2    0  503  0.22332789544E+01  0.12220546355E+01 -0.12644690317E+01  0.54927073791E+01  0.47000000000E+01 0. -1.
<mgrwt>
<rscale>  2 0.53451803E+01</rscale>
<asrwt>0</asrwt>
<pdfrwt beam="1">  1       21 0.12088869E-02 0.53451803E+01</pdfrwt>
<pdfrwt beam="2">  1       21 0.71110427E-03 0.53451803E+01</pdfrwt>
<totfact> 0.34975682E+09</totfact>
</mgrwt>
</event>
<event>
 4    1  0.3989279E+006  0.5960114E+01  0.7546771E-02  0.2420644E+00
         21   -1    0    0  501  502  0.00000000000E+00  0.00000000000E+00  0.26248899136E+02  0.26248899136E+02  0.00000000000E+00 0.  1.
         21   -1    0    0  502  503 -0.00000000000E+00 -0.00000000000E+00 -0.16315934009E+01  0.16315934009E+01  0.00000000000E+00 0. -1.
          5    1    1    2  501    0  0.28917340967E+00 -0.36536742818E+01  0.18065787205E+02  0.19023554462E+02  0.47000000000E+01 0.  1.
         -5    1    1    2    0  503 -0.28917340967E+00  0.36536742818E+01  0.65515185294E+01  0.88569380747E+01  0.47000000000E+01 0.  1.
<mgrwt>
<rscale>  2 0.59601138E+01</rscale>
<asrwt>0</asrwt>
<pdfrwt beam="1">  1       21 0.40382919E-02 0.59601138E+01</pdfrwt>
<pdfrwt beam="2">  1       21 0.25101439E-03 0.59601138E+01</pdfrwt>
<totfact> 0.28780277E+09</totfact>
</mgrwt>
</event>
<event>
 4    1  0.3989279E+006  0.9408316E+01  0.7546771E-02  0.2110312E+00
         21   -1    0    0  503  502  0.00000000000E+00  0.00000000000E+00  0.13686461075E+02  0.13686461075E+02  0.00000000000E+00 0. -1.
         21   -1    0    0  501  503 -0.00000000000E+00 -0.00000000000E+00 -0.16931737947E+02  0.16931737947E+02  0.00000000000E+00 0.  1.
          5    1    1    2  501    0  0.73440087993E+01 -0.35343941729E+01 -0.13657853689E+02  0.16584733185E+02  0.47000000000E+01 0.  1.
         -5    1    1    2    0  502 -0.73440087993E+01  0.35343941729E+01  0.10412576817E+02  0.14033465837E+02  0.47000000000E+01 0. -1.
<mgrwt>
<rscale>  2 0.94083159E+01</rscale>
<asrwt>0</asrwt>
<pdfrwt beam="1">  1       21 0.21056094E-02 0.94083159E+01</pdfrwt>
<pdfrwt beam="2">  1       21 0.26048828E-02 0.94083159E+01</pdfrwt>
<totfact> 0.37149163E+08</totfact>
</mgrwt>
</event>
<event>
 4    1  0.3989279E+006  0.4790160E+01  0.7546771E-02  0.2605782E+00
         21   -1    0    0  501  502  0.00000000000E+00  0.00000000000E+00  0.88246095495E+02  0.88246095495E+02  0.00000000000E+00 0. -1.
         21   -1    0    0  502  503 -0.00000000000E+00 -0.00000000000E+00 -0.10276144825E+01  0.10276144825E+01  0.00000000000E+00 0. -1.
          5    1    1    2  501    0 -0.73584291291E+00 -0.56051036007E+00  0.82187689579E+02  0.82327164138E+02  0.47000000000E+01 0. -1.
         -5    1    1    2    0  503  0.73584291291E+00  0.56051036007E+00  0.50307914342E+01  0.69465458403E+01  0.47000000000E+01 0. -1.
<mgrwt>
<rscale>  2 0.47901604E+01</rscale>
<asrwt>0</asrwt>
<pdfrwt beam="1">  1       21 0.13576316E-01 0.47901604E+01</pdfrwt>
<pdfrwt beam="2">  1       21 0.15809460E-03 0.47901604E+01</pdfrwt>
<totfact> 0.71744251E+08</totfact>
</mgrwt>
</event>
<event>
 4    1  0.3989279E+006  0.5912423E+01  0.7546771E-02  0.2426963E+00
         21   -1    0    0  501  502  0.00000000000E+00  0.00000000000E+00  0.70734430364E+00  0.70734430364E+00  0.00000000000E+00 0.  1.
         21   -1    0    0  502  503 -0.00000000000E+00 -0.00000000000E+00 -0.50179979329E+02  0.50179979329E+02  0.00000000000E+00 0.  1.
          5    1    1    2  501    0  0.35839619123E+01 -0.14818674091E+00 -0.27868170475E+02  0.28488447973E+02  0.47000000000E+01 0.  1.
         -5    1    1    2    0  503 -0.35839619123E+01  0.14818674091E+00 -0.21604464550E+02  0.22398875659E+02  0.47000000000E+01 0.  1.
<mgrwt>
<rscale>  2 0.59124227E+01</rscale>
<asrwt>0</asrwt>
<pdfrwt beam="1">  1       21 0.10882217E-03 0.59124227E+01</pdfrwt>
<pdfrwt beam="2">  1       21 0.77199986E-02 0.59124227E+01</pdfrwt>
<totfact> 0.33799143E+09</totfact>
</mgrwt>
</event>
<event>
 4    1  0.3989279E+006  0.6859599E+01  0.7546771E-02  0.2315385E+00
         21   -1    0    0  503  502  0.00000000000E+00  0.00000000000E+00  0.29283155503E+03  0.29283155503E+03  0.00000000000E+00 0.  1.
         21   -1    0    0  501  503 -0.00000000000E+00 -0.00000000000E+00 -0.64169211700E+00  0.64169211700E+00  0.00000000000E+00 0. -1.
          5    1    1    2  501    0 -0.98959751762E+00 -0.48974274333E+01  0.19052086355E+02  0.20249347969E+02  0.47000000000E+01 0. -1.
         -5    1    1    2    0  502  0.98959751762E+00  0.48974274333E+01  0.27313777656E+03  0.27322389918E+03  0.47000000000E+01 0.  1.
<mgrwt>
<rscale>  2 0.68595990E+01</rscale>
<asrwt>0</asrwt>
<pdfrwt beam="1">  1       21 0.45050902E-01 0.68595990E+01</pdfrwt>
<pdfrwt beam="2">  1       21 0.98722098E-04 0.68595990E+01</pdfrwt>
<totfact> 0.24466543E+08</totfact>
</mgrwt>
</event>
<event>
 4    1  0.3989279E+006  0.6568400E+01  0.7546771E-02  0.2346837E+00
         21   -1    0    0  501  502  0.00000000000E+00  0.00000000000E+00  0.84997895438E+02  0.84997895438E+02  0.00000000000E+00 0.  1.
         21   -1    0    0  502  503 -0.00000000000E+00 -0.00000000000E+00 -0.75534150261E+00  0.75534150261E+00  0.00000000000E+00 0.  1.
          5    1    1    2  501    0  0.43248933695E+01  0.15327002178E+01  0.66677363656E+02  0.67000109677E+02  0.47000000000E+01 0.  1.
         -5    1    1    2    0  503 -0.43248933695E+01 -0.15327002178E+01  0.17565190280E+02  0.18753127264E+02  0.47000000000E+01 0.  1.
<mgrwt>
<rscale>  2 0.65683995E+01</rscale>
<asrwt>0</asrwt>
<pdfrwt beam="1">  1       21 0.13076592E-01 0.65683995E+01</pdfrwt>
<pdfrwt beam="2">  1       21 0.11620645E-03 0.65683995E+01</pdfrwt>
<totfact> 0.14978402E+09</totfact>
</mgrwt>
</event>
<event>
 4    1  0.3989279E+006  0.5831884E+01  0.7546771E-02  0.2437831E+00
         21   -1    0    0  501  502  0.00000000000E+00  0.00000000000E+00  0.42426799197E+02  0.42426799197E+02  0.00000000000E+00 0.  1.
         21   -1    0    0  502  503 -0.00000000000E+00 -0.00000000000E+00 -0.94398920735E+00  0.94398920735E+00  0.00000000000E+00 0.  1.
          5    1    1    2  501    0 -0.19927694674E+01 -0.28195276453E+01  0.29162466415E+02  0.29739877500E+02  0.47000000000E+01 0.  1.
         -5    1    1    2    0  503  0.19927694674E+01  0.28195276453E+01  0.12320343575E+02  0.13630910905E+02  0.47000000000E+01 0.  1.
<mgrwt>
<rscale>  2 0.58318836E+01</rscale>
<asrwt>0</asrwt>
<pdfrwt beam="1">  1       21 0.65271984E-02 0.58318836E+01</pdfrwt>
<pdfrwt beam="2">  1       21 0.14522914E-03 0.58318836E+01</pdfrwt>
<totfact> 0.29138472E+09</totfact>
</mgrwt>
</event>
<event>
 4    1  0.3989279E+006  0.7724976E+01  0.7546771E-02  0.2233570E+00
         21   -1    0    0  501  502  0.00000000000E+00  0.00000000000E+00  0.52220169845E+02  0.52220169845E+02  0.00000000000E+00 0.  1.
         21   -1    0    0  502  503 -0.00000000000E+00 -0.00000000000E+00 -0.36269540588E+01  0.36269540588E+01  0.00000000000E+00 0.  1.
          5    1    1    2  501    0 -0.52829530981E+01  0.31105731521E+01  0.47406202040E+02  0.48031481870E+02  0.47000000000E+01 0.  1.
         -5    1    1    2    0  503  0.52829530981E+01 -0.31105731521E+01  0.11870137466E+01  0.78156420342E+01  0.47000000000E+01 0.  1.
<mgrwt>
<rscale>  2 0.77249763E+01</rscale>
<asrwt>0</asrwt>
<pdfrwt beam="1">  1       21 0.80338718E-02 0.77249763E+01</pdfrwt>
<pdfrwt beam="2">  1       21 0.55799297E-03 0.77249763E+01</pdfrwt>
<totfact> 0.40903486E+08</totfact>
</mgrwt>
</event>
<event>
 4    1  0.3989279E+006  0.9001961E+01  0.7546771E-02  0.2136674E+00
         21   -1    0    0  503  502  0.00000000000E+00  0.00000000000E+00  0.10721444078E+01  0.10721444078E+01  0.00000000000E+00 0. -1.
         21   -1    0    0  501  503 -0.00000000000E+00 -0.00000000000E+00 -0.18556428636E+03  0.18556428636E+03  0.00000000000E+00 0.  1.
          5    1    1    2  501    0  0.37880811631E+01 -0.66780047134E+01 -0.16408828395E+03  0.16433502437E+03  0.47000000000E+01 0.  1.
         -5    1    1    2    0  502 -0.37880811631E+01  0.66780047134E+01 -0.20403858007E+02  0.22301406400E+02  0.47000000000E+01 0. -1.
<mgrwt>
<rscale>  2 0.90019612E+01</rscale>
<asrwt>0</asrwt>
<pdfrwt beam="1">  1       21 0.16494521E-03 0.90019612E+01</pdfrwt>
<pdfrwt beam="2">  1       21 0.28548366E-01 0.90019612E+01</pdfrwt>
<totfact> 0.31432141E+08</totfact>
</mgrwt>
</event>
<event>
 4    1  0.3989279E+006  0.5665415E+01  0.7546771E-02  0.2461117E+00
         21   -1    0    0  503  502  0.00000000000E+00  0.00000000000E+00  0.10500891632E+02  0.10500891632E+02  0.00000000000E+00 0. -1.
         21   -1    0    0  501  503 -0.00000000000E+00 -0.00000000000E+00 -0.32558050017E+01  0.32558050017E+01  0.00000000000E+00 0. -1.
          5    1    1    2  501    0 -0.12567887582E+01 -0.29029998855E+01  0.19211082771E+01  0.59822724219E+01  0.47000000000E+01 0. -1.
         -5    1    1    2    0  502  0.12567887582E+01  0.29029998855E+01  0.53239783532E+01  0.77744242117E+01  0.47000000000E+01 0. -1.
<mgrwt>
<rscale>  2 0.56654149E+01</rscale>
<asrwt>0</asrwt>
<pdfrwt beam="1">  1       21 0.16155218E-02 0.56654149E+01</pdfrwt>
<pdfrwt beam="2">  1       21 0.50089308E-03 0.56654149E+01</pdfrwt>
<totfact> 0.39895083E+09</totfact>
</mgrwt>
</event>
<event>
 4    1  0.3989279E+006  0.8165415E+01  0.7546771E-02  0.2197411E+00
         21   -1    0    0  503  502  0.00000000000E+00  0.00000000000E+00  0.77834223025E+02  0.77834223025E+02  0.00000000000E+00 0.  1.
         21   -1    0    0  501  503 -0.00000000000E+00 -0.00000000000E+00 -0.15327953718E+01  0.15327953718E+01  0.00000000000E+00 0.  1.
          5    1    1    2  501    0 -0.30626961831E+01 -0.59332865353E+01  0.11793523121E+02  0.14344378154E+02  0.47000000000E+01 0.  1.
         -5    1    1    2    0  502  0.30626961831E+01  0.59332865353E+01  0.64507904532E+02  0.65022640243E+02  0.47000000000E+01 0.  1.
<mgrwt>
<rscale>  2 0.81654147E+01</rscale>
<asrwt>0</asrwt>
<pdfrwt beam="1">  1       21 0.11974493E-01 0.81654147E+01</pdfrwt>
<pdfrwt beam="2">  1       21 0.23581473E-03 0.81654147E+01</pdfrwt>
<totfact> 0.75796192E+08</totfact>
</mgrwt>
</event>
<event>
 4    1  0.3989279E+006  0.4839734E+01  0.7546771E-02  0.2596395E+00
         21   -1    0    0  503  502  0.00000000000E+00  0.00000000000E+00  0.45134757989E+01  0.45134757989E+01  0.00000000000E+00 0.  1.
         21   -1    0    0  501  503 -0.00000000000E+00 -0.00000000000E+00 -0.64430906313E+01  0.64430906313E+01  0.00000000000E+00 0.  1.
          5    1    1    2  501    0  0.11446609805E+01 -0.15093111843E+00 -0.33811690873E+01  0.59038405602E+01  0.47000000000E+01 0.  1.
         -5    1    1    2    0  502 -0.11446609805E+01  0.15093111843E+00  0.14515542548E+01  0.50527258700E+01  0.47000000000E+01 0.  1.
<mgrwt>
<rscale>  2 0.48397344E+01</rscale>
<asrwt>0</asrwt>
<pdfrwt beam="1">  1       21 0.69438089E-03 0.48397344E+01</pdfrwt>
<pdfrwt beam="2">  1       21 0.99124471E-03 0.48397344E+01</pdfrwt>
<totfact> 0.43040282E+09</totfact>
</mgrwt>
</event>
<event>
 4    1  0.3989279E+006  0.5386051E+01  0.7546771E-02  0.2502911E+00
         21   -1    0    0  501  502  0.00000000000E+00  0.00000000000E+00  0.52827332271E+00  0.52827332271E+00  0.00000000000E+00 0. -1.
         21   -1    0    0  502  503 -0.00000000000E+00 -0.00000000000E+00 -0.83295938823E+02  0.83295938823E+02  0.00000000000E+00 0.  1.
          5    1    1    2  501    0  0.35388782735E+00 -0.26065895352E+01 -0.16918596916E+02  0.17755237740E+02  0.47000000000E+01 0. -1.
         -5    1    1    2    0  503 -0.35388782735E+00  0.26065895352E+01 -0.65849068584E+02  0.66068974405E+02  0.47000000000E+01 0.  1.
<mgrwt>
<rscale>  2 0.53860510E+01</rscale>
<asrwt>0</asrwt>
<pdfrwt beam="1">  1       21 0.81272897E-04 0.53860510E+01</pdfrwt>
<pdfrwt beam="2">  1       21 0.12814747E-01 0.53860510E+01</pdfrwt>
<totfact> 0.21203635E+09</totfact>
</mgrwt>
</event>
<event>
 4    1  0.3989279E+006  0.6305069E+01  0.7546771E-02  0.2377333E+00
         21   -1    0    0  503  502  0.00000000000E+00  0.00000000000E+00  0.60509423648E+01  0.60509423648E+01  0.00000000000E+00 0. -1.
         21   -1    0    0  501  503 -0.00000000000E+00 -0.00000000000E+00 -0.18011058502E+02  0.18011058502E+02  0.00000000000E+00 0. -1.
          5    1    1    2  501    0  0.52624060413E-01  0.42025135219E+01 -0.15568934966E+02  0.16797190990E+02  0.47000000000E+01 0. -1.
         -5    1    1    2    0  502 -0.52624060413E-01 -0.42025135219E+01  0.36088188292E+01  0.72648098761E+01  0.47000000000E+01 0. -1.
<mgrwt>
<rscale>  2 0.63050685E+01</rscale>
<asrwt>0</asrwt>
<pdfrwt beam="1">  1       21 0.93091421E-03 0.63050685E+01</pdfrwt>
<pdfrwt beam="2">  1       21 0.27709321E-02 0.63050685E+01</pdfrwt>
<totfact> 0.84600651E+08</totfact>
</mgrwt>
</event>
<event>
 4    1  0.3989279E+006  0.9296165E+01  0.7546771E-02  0.2117405E+00
         21   -1    0    0  503  502  0.00000000000E+00  0.00000000000E+00  0.11976370953E+02  0.11976370953E+02  0.00000000000E+00 0.  1.
         21   -1    0    0  501  503 -0.00000000000E+00 -0.00000000000E+00 -0.11338082926E+02  0.11338082926E+02  0.00000000000E+00 0.  1.
          5    1    1    2  501    0  0.53028782352E+01 -0.60173221739E+01 -0.67098982491E+01  0.11464790370E+02  0.47000000000E+01 0.  1.
         -5    1    1    2    0  502 -0.53028782352E+01  0.60173221739E+01  0.73481862759E+01  0.11849663509E+02  0.47000000000E+01 0.  1.
<mgrwt>
<rscale>  2 0.92961650E+01</rscale>
<asrwt>0</asrwt>
<pdfrwt beam="1">  1       21 0.18425186E-02 0.92961650E+01</pdfrwt>
<pdfrwt beam="2">  1       21 0.17443204E-02 0.92961650E+01</pdfrwt>
<totfact> 0.81208192E+08</totfact>
</mgrwt>
</event>
<event>
 4    1  0.3989279E+006  0.5246792E+01  0.7546771E-02  0.2525151E+00
         21   -1    0    0  501  502  0.00000000000E+00  0.00000000000E+00  0.13991729569E+00  0.13991729569E+00  0.00000000000E+00 0.  1.
         21   -1    0    0  502  503 -0.00000000000E+00 -0.00000000000E+00 -0.25442483863E+03  0.25442483863E+03  0.00000000000E+00 0.  1.
          5    1    1    2  501    0 -0.86531499171E+00  0.21656536381E+01 -0.66541558550E+02  0.66748092407E+02  0.47000000000E+01 0.  1.
         -5    1    1    2    0  503  0.86531499171E+00 -0.21656536381E+01 -0.18774336278E+03  0.18781666352E+03  0.47000000000E+01 0.  1.
<mgrwt>
<rscale>  2 0.52467919E+01</rscale>
<asrwt>0</asrwt>
<pdfrwt beam="1">  1       21 0.21525719E-04 0.52467919E+01</pdfrwt>
<pdfrwt beam="2">  1       21 0.39142317E-01 0.52467919E+01</pdfrwt>
<totfact> 0.19775891E+09</totfact>
</mgrwt>
</event>
<event>
 4    1  0.3989279E+006  0.5525144E+01  0.7546771E-02  0.2481654E+00
         21   -1    0    0  503  502  0.00000000000E+00  0.00000000000E+00  0.43446027415E+01  0.43446027415E+01  0.00000000000E+00 0. -1.
         21   -1    0    0  501  503 -0.00000000000E+00 -0.00000000000E+00 -0.15267639427E+02  0.15267639427E+02  0.00000000000E+00 0.  1.
          5    1    1    2  501    0  0.19275792775E+01  0.21729358257E+01 -0.12666050417E+02  0.13818684639E+02  0.47000000000E+01 0.  1.
         -5    1    1    2    0  502 -0.19275792775E+01 -0.21729358257E+01  0.17430137322E+01  0.57935575292E+01  0.47000000000E+01 0. -1.
<mgrwt>
<rscale>  2 0.55251436E+01</rscale>
<asrwt>0</asrwt>
<pdfrwt beam="1">  1       21 0.66840041E-03 0.55251436E+01</pdfrwt>
<pdfrwt beam="2">  1       21 0.23488676E-02 0.55251436E+01</pdfrwt>
<totfact> 0.15310320E+09</totfact>
</mgrwt>
</event>
<event>
 4    1  0.3989279E+006  0.4792460E+01  0.7546771E-02  0.2605343E+00
         21   -1    0    0  501  502  0.00000000000E+00  0.00000000000E+00  0.53621471487E+01  0.53621471487E+01  0.00000000000E+00 0.  1.
         21   -1    0    0  502  503 -0.00000000000E+00 -0.00000000000E+00 -0.47974060775E+01  0.47974060775E+01  0.00000000000E+00 0. -1.
          5    1    1    2  501    0  0.80261330511E+00 -0.48319997964E+00  0.19452810847E+01  0.51722131469E+01  0.47000000000E+01 0.  1.
         -5    1    1    2    0  503 -0.80261330511E+00  0.48319997964E+00 -0.13805400135E+01  0.49873400793E+01  0.47000000000E+01 0. -1.
<mgrwt>
<rscale>  2 0.47924597E+01</rscale>
<asrwt>0</asrwt>
<pdfrwt beam="1">  1       21 0.82494571E-03 0.47924597E+01</pdfrwt>
<pdfrwt beam="2">  1       21 0.73806248E-03 0.47924597E+01</pdfrwt>
<totfact> 0.50507062E+09</totfact>
</mgrwt>
</event>
<event>
 4    1  0.3989279E+006  0.9644525E+01  0.7546771E-02  0.2095801E+00
         21   -1    0    0  501  502  0.00000000000E+00  0.00000000000E+00  0.78133624771E+01  0.78133624771E+01  0.00000000000E+00 0. -1.
         21   -1    0    0  502  503 -0.00000000000E+00 -0.00000000000E+00 -0.12349342243E+02  0.12349342243E+02  0.00000000000E+00 0.  1.
          5    1    1    2  501    0  0.82039275487E+01 -0.19032712641E+01 -0.35535775173E+00  0.96510697781E+01  0.47000000000E+01 0. -1.
         -5    1    1    2    0  503 -0.82039275487E+01  0.19032712641E+01 -0.41806220143E+01  0.10511634942E+02  0.47000000000E+01 0.  1.
<mgrwt>
<rscale>  2 0.96445253E+01</rscale>
<asrwt>0</asrwt>
<pdfrwt beam="1">  1       21 0.12020558E-02 0.96445253E+01</pdfrwt>
<pdfrwt beam="2">  1       21 0.18998988E-02 0.96445253E+01</pdfrwt>
<totfact> 0.13681554E+09</totfact>
</mgrwt>
</event>
<event>
 4    1  0.3989279E+006  0.4837441E+01  0.7546771E-02  0.2596825E+00
         21   -1    0    0  501  502  0.00000000000E+00  0.00000000000E+00  0.88406986006E+00  0.88406986006E+00  0.00000000000E+00 0. -1.
         21   -1    0    0  502  503 -0.00000000000E+00 -0.00000000000E+00 -0.50200256552E+02  0.50200256552E+02  0.00000000000E+00 0. -1.
          5    1    1    2  501    0 -0.11436649438E+01 -0.53574936553E-01 -0.70966183496E+01  0.85885290812E+01  0.47000000000E+01 0. -1.
         -5    1    1    2    0  503  0.11436649438E+01  0.53574936553E-01 -0.42219568342E+02  0.42495797330E+02  0.47000000000E+01 0. -1.
<mgrwt>
<rscale>  2 0.48374414E+01</rscale>
<asrwt>0</asrwt>
<pdfrwt beam="1">  1       21 0.13601078E-03 0.48374414E+01</pdfrwt>
<pdfrwt beam="2">  1       21 0.77231148E-02 0.48374414E+01</pdfrwt>
<totfact> 0.20754729E+09</totfact>
</mgrwt>
</event>
<event>
 4    1  0.3989279E+006  0.6137545E+01  0.7546771E-02  0.2397859E+00
         21   -1    0    0  501  502  0.00000000000E+00  0.00000000000E+00  0.18820256085E+01  0.18820256085E+01  0.00000000000E+00 0. -1.
         21   -1    0    0  502  503 -0.00000000000E+00 -0.00000000000E+00 -0.21921774820E+02  0.21921774820E+02  0.00000000000E+00 0. -1.
          5    1    1    2  501    0 -0.92346207151E+00 -0.38375352342E+01 -0.65100549331E+01  0.89470818764E+01  0.47000000000E+01 0. -1.
         -5    1    1    2    0  503  0.92346207151E+00  0.38375352342E+01 -0.13529694279E+02  0.14856718553E+02  0.47000000000E+01 0. -1.
<mgrwt>
<rscale>  2 0.61375450E+01</rscale>
<asrwt>0</asrwt>
<pdfrwt beam="1">  1       21 0.28954241E-03 0.61375450E+01</pdfrwt>
<pdfrwt beam="2">  1       21 0.33725807E-02 0.61375450E+01</pdfrwt>
<totfact> 0.31614766E+09</totfact>
</mgrwt>
</event>
<event>
 4    1  0.3989279E+006  0.8284774E+01  0.7546771E-02  0.2188147E+00
         21   -1    0    0  503  502  0.00000000000E+00  0.00000000000E+00  0.27406546459E+03  0.27406546459E+03  0.00000000000E+00 0. -1.
         21   -1    0    0  501  503 -0.00000000000E+00 -0.00000000000E+00 -0.17166333232E+01  0.17166333232E+01  0.00000000000E+00 0. -1.
          5    1    1    2  501    0  0.51401141510E+01 -0.44862803642E+01  0.87382668543E+01  0.12041378352E+02  0.47000000000E+01 0. -1.
         -5    1    1    2    0  502 -0.51401141510E+01  0.44862803642E+01  0.26361056442E+03  0.26374071956E+03  0.47000000000E+01 0. -1.
<mgrwt>
<rscale>  2 0.82847743E+01</rscale>
<asrwt>0</asrwt>
<pdfrwt beam="1">  1       21 0.42163883E-01 0.82847743E+01</pdfrwt>
<pdfrwt beam="2">  1       21 0.26409765E-03 0.82847743E+01</pdfrwt>
<totfact> 0.78984729E+07</totfact>
</mgrwt>
</event>
<event>
 4    1  0.3989279E+006  0.6660416E+01  0.7546771E-02  0.2336654E+00
         21   -1    0    0  501  502  0.00000000000E+00  0.00000000000E+00  0.23123294052E+02  0.23123294052E+02  0.00000000000E+00 0. -1.
         21   -1    0    0  502  503 -0.00000000000E+00 -0.00000000000E+00 -0.21322220945E+01  0.21322220945E+01  0.00000000000E+00 0. -1.
          5    1    1    2  501    0 -0.67735806617E+00  0.46703668842E+01  0.14493825473E+02  0.15950928425E+02  0.47000000000E+01 0. -1.
         -5    1    1    2    0  503  0.67735806617E+00 -0.46703668842E+01  0.64972464846E+01  0.93045877213E+01  0.47000000000E+01 0. -1.
<mgrwt>
<rscale>  2 0.66604160E+01</rscale>
<asrwt>0</asrwt>
<pdfrwt beam="1">  1       21 0.35574297E-02 0.66604160E+01</pdfrwt>
<pdfrwt beam="2">  1       21 0.32803418E-03 0.66604160E+01</pdfrwt>
<totfact> 0.26367848E+09</totfact>
</mgrwt>
</event>
<event>
 4    1  0.3989279E+006  0.7470724E+01  0.7546771E-02  0.2256001E+00
         21   -1    0    0  503  502  0.00000000000E+00  0.00000000000E+00  0.69770661871E+02  0.69770661871E+02  0.00000000000E+00 0.  1.
         21   -1    0    0  501  503 -0.00000000000E+00 -0.00000000000E+00 -0.58685813869E+01  0.58685813869E+01  0.00000000000E+00 0. -1.
          5    1    1    2  501    0 -0.12019047118E+01  0.56812975455E+01 -0.31966492520E+01  0.81259019916E+01  0.47000000000E+01 0. -1.
         -5    1    1    2    0  502  0.12019047118E+01 -0.56812975455E+01  0.67098729736E+02  0.67513341267E+02  0.47000000000E+01 0.  1.
<mgrwt>
<rscale>  2 0.74707240E+01</rscale>
<asrwt>0</asrwt>
<pdfrwt beam="1">  1       21 0.10733947E-01 0.74707240E+01</pdfrwt>
<pdfrwt beam="2">  1       21 0.90285872E-03 0.74707240E+01</pdfrwt>
<totfact> 0.12906248E+08</totfact>
</mgrwt>
</event>
<event>
 4    1  0.3989279E+006  0.6862046E+01  0.7546771E-02  0.2315130E+00
         21   -1    0    0  503  502  0.00000000000E+00  0.00000000000E+00  0.51035701602E+01  0.51035701602E+01  0.00000000000E+00 0. -1.
         21   -1    0    0  501  503 -0.00000000000E+00 -0.00000000000E+00 -0.16185526439E+02  0.16185526439E+02  0.00000000000E+00 0.  1.
          5    1    1    2  501    0 -0.49997137521E+01  0.23320437716E-01 -0.12520739332E+02  0.14277835791E+02  0.47000000000E+01 0.  1.
         -5    1    1    2    0  502  0.49997137521E+01 -0.23320437716E-01  0.14387830535E+01  0.70112608082E+01  0.47000000000E+01 0. -1.
<mgrwt>
<rscale>  2 0.68620464E+01</rscale>
<asrwt>0</asrwt>
<pdfrwt beam="1">  1       21 0.78516465E-03 0.68620464E+01</pdfrwt>
<pdfrwt beam="2">  1       21 0.24900810E-02 0.68620464E+01</pdfrwt>
<totfact> 0.13421484E+09</totfact>
</mgrwt>
</event>
<event>
 4    1  0.3989279E+006  0.7974923E+01  0.7546771E-02  0.2212655E+00
         21   -1    0    0  501  502  0.00000000000E+00  0.00000000000E+00  0.10650287784E+03  0.10650287784E+03  0.00000000000E+00 0. -1.
         21   -1    0    0  502  503 -0.00000000000E+00 -0.00000000000E+00 -0.65006962885E+00  0.65006962885E+00  0.00000000000E+00 0. -1.
          5    1    1    2  501    0  0.39930467574E+01 -0.50561823270E+01  0.68211072174E+02  0.68675685430E+02  0.47000000000E+01 0. -1.
         -5    1    1    2    0  503 -0.39930467574E+01  0.50561823270E+01  0.37641736038E+02  0.38477262040E+02  0.47000000000E+01 0. -1.
<mgrwt>
<rscale>  2 0.79749233E+01</rscale>
<asrwt>0</asrwt>
<pdfrwt beam="1">  1       21 0.16385044E-01 0.79749233E+01</pdfrwt>
<pdfrwt beam="2">  1       21 0.10001080E-03 0.79749233E+01</pdfrwt>
<totfact> 0.14703626E+09</totfact>
</mgrwt>
</event>
<event>
 4    1  0.3989279E+006  0.4754697E+01  0.7546771E-02  0.2612601E+00
         21   -1    0    0  503  502  0.00000000000E+00  0.00000000000E+00  0.58185017873E-01  0.58185017873E-01  0.00000000000E+00 0.  1.
         21   -1    0    0  501  503 -0.00000000000E+00 -0.00000000000E+00 -0.42894365567E+03  0.42894365567E+03  0.00000000000E+00 0.  1.
          5    1    1    2  501    0  0.11858094741E+00  0.70928165932E+00 -0.28027599566E+03  0.28031632290E+03  0.47000000000E+01 0.  1.
         -5    1    1    2    0  502 -0.11858094741E+00 -0.70928165932E+00 -0.14860947499E+03  0.14868551779E+03  0.47000000000E+01 0.  1.
<mgrwt>
<rscale>  2 0.47546968E+01</rscale>
<asrwt>0</asrwt>
<pdfrwt beam="1">  1       21 0.89516368E-05 0.47546968E+01</pdfrwt>
<pdfrwt beam="2">  1       21 0.65990627E-01 0.47546968E+01</pdfrwt>
<totfact> 0.22863140E+09</totfact>
</mgrwt>
</event>
<event>
 4    1  0.3989279E+006  0.4876132E+01  0.7546771E-02  0.2589608E+00
         21   -1    0    0  501  502  0.00000000000E+00  0.00000000000E+00  0.19040020209E+03  0.19040020209E+03  0.00000000000E+00 0. -1.
         21   -1    0    0  502  503 -0.00000000000E+00 -0.00000000000E+00 -0.58041307451E+00  0.58041307451E+00  0.00000000000E+00 0. -1.
          5    1    1    2  501    0 -0.92625309921E+00 -0.91034014570E+00  0.17950630604E+03  0.17957252176E+03  0.47000000000E+01 0. -1.
         -5    1    1    2    0  503  0.92625309921E+00  0.91034014570E+00  0.10313482975E+02  0.11408093402E+02  0.47000000000E+01 0. -1.
<mgrwt>
<rscale>  2 0.48761321E+01</rscale>
<asrwt>0</asrwt>
<pdfrwt beam="1">  1       21 0.29292289E-01 0.48761321E+01</pdfrwt>
<pdfrwt beam="2">  1       21 0.89294471E-04 0.48761321E+01</pdfrwt>
<totfact> 0.45909343E+08</totfact>
</mgrwt>
</event>
<event>
 4    1  0.3989279E+006  0.1058652E+02  0.7546771E-02  0.2043068E+00
         21   -1    0    0  503  502  0.00000000000E+00  0.00000000000E+00  0.82033377206E+02  0.82033377206E+02  0.00000000000E+00 0.  1.
         21   -1    0    0  501  503 -0.00000000000E+00 -0.00000000000E+00 -0.14450928169E+01  0.14450928169E+01  0.00000000000E+00 0. -1.
          5    1    1    2  501    0 -0.81800768723E+01  0.48032110615E+01  0.50046256053E+02  0.51153711880E+02  0.47000000000E+01 0.  1.
         -5    1    1    2    0  502  0.81800768723E+01 -0.48032110615E+01  0.30542028337E+02  0.32324758144E+02  0.47000000000E+01 0. -1.
<mgrwt>
<rscale>  2 0.10586524E+02</rscale>
<asrwt>0</asrwt>
<pdfrwt beam="1">  1       21 0.12620516E-01 0.10586524E+02</pdfrwt>
<pdfrwt beam="2">  1       21 0.22232204E-03 0.10586524E+02</pdfrwt>
<totfact> 0.87945122E+08</totfact>
</mgrwt>
</event>
<event>
 4    1  0.3989279E+006  0.7139595E+01  0.7546771E-02  0.2287147E+00
         21   -1    0    0  503  502  0.00000000000E+00  0.00000000000E+00  0.37410862259E+00  0.37410862259E+00  0.00000000000E+00 0. -1.
         21   -1    0    0  501  503 -0.00000000000E+00 -0.00000000000E+00 -0.45367656166E+03  0.45367656166E+03  0.00000000000E+00 0. -1.
          5    1    1    2  501    0  0.21333735858E+00 -0.53701301832E+01 -0.41654906577E+03  0.41661024712E+03  0.47000000000E+01 0. -1.
         -5    1    1    2    0  502 -0.21333735858E+00  0.53701301832E+01 -0.36753387268E+02  0.37440423164E+02  0.47000000000E+01 0. -1.
<mgrwt>
<rscale>  2 0.71395946E+01</rscale>
<asrwt>0</asrwt>
<pdfrwt beam="1">  1       21 0.57555191E-04 0.71395946E+01</pdfrwt>
<pdfrwt beam="2">  1       21 0.69796371E-01 0.71395946E+01</pdfrwt>
<totfact> 0.23052554E+08</totfact>
</mgrwt>
</event>
<event>
 4    1  0.3989279E+006  0.6151250E+01  0.7546771E-02  0.2396144E+00
         21   -1    0    0  501  502  0.00000000000E+00  0.00000000000E+00  0.31107953088E+00  0.31107953088E+00  0.00000000000E+00 0.  1.
         21   -1    0    0  502  503 -0.00000000000E+00 -0.00000000000E+00 -0.12165602641E+03  0.12165602641E+03  0.00000000000E+00 0.  1.
          5    1    1    2  501    0 -0.32679795022E+01  0.22512638893E+01 -0.59853785856E+02  0.60169041545E+02  0.47000000000E+01 0. -1.
         -5    1    1    2    0  503  0.32679795022E+01 -0.22512638893E+01 -0.61491161021E+02  0.61798064394E+02  0.47000000000E+01 0. -1.
<mgrwt>
<rscale>  2 0.61512502E+01</rscale>
<asrwt>0</asrwt>
<pdfrwt beam="1">  1       21 0.47858343E-04 0.61512502E+01</pdfrwt>
<pdfrwt beam="2">  1       21 0.18716330E-01 0.61512502E+01</pdfrwt>
<totfact> 0.26508443E+09</totfact>
</mgrwt>
</event>
<event>
 4    1  0.3989279E+006  0.9599950E+01  0.7546771E-02  0.2098496E+00
         21   -1    0    0  503  502  0.00000000000E+00  0.00000000000E+00  0.67856517695E+01  0.67856517695E+01  0.00000000000E+00 0.  1.
         21   -1    0    0  501  503 -0.00000000000E+00 -0.00000000000E+00 -0.18525826005E+02  0.18525826005E+02  0.00000000000E+00 0. -1.
          5    1    1    2  501    0 -0.49973322816E+01  0.67153339581E+01 -0.12408225942E+02  0.15688311290E+02  0.47000000000E+01 0. -1.
         -5    1    1    2    0  502  0.49973322816E+01 -0.67153339581E+01  0.66805170684E+00  0.96231664843E+01  0.47000000000E+01 0.  1.
<mgrwt>
<rscale>  2 0.95999500E+01</rscale>
<asrwt>0</asrwt>
<pdfrwt beam="1">  1       21 0.10439464E-02 0.95999500E+01</pdfrwt>
<pdfrwt beam="2">  1       21 0.28501271E-02 0.95999500E+01</pdfrwt>
<totfact> 0.91740316E+08</totfact>
</mgrwt>
</event>
<event>
 4    1  0.3989279E+006  0.1397611E+02  0.7546771E-02  0.1901022E+00
         21   -1    0    0  503  502  0.00000000000E+00  0.00000000000E+00  0.49581610869E+02  0.49581610869E+02  0.00000000000E+00 0.  1.
         21   -1    0    0  501  503 -0.00000000000E+00 -0.00000000000E+00 -0.74838572142E+01  0.74838572142E+01  0.00000000000E+00 0. -1.
          5    1    1    2  501    0 -0.79539313492E+01 -0.10486967809E+02  0.14133073855E+01  0.14047382515E+02  0.47000000000E+01 0. -1.
         -5    1    1    2    0  502  0.79539313492E+01  0.10486967809E+02  0.40684446269E+02  0.43018085568E+02  0.47000000000E+01 0.  1.
<mgrwt>
<rscale>  2 0.13976105E+02</rscale>
<asrwt>0</asrwt>
<pdfrwt beam="1">  1       21 0.76279399E-02 0.13976105E+02</pdfrwt>
<pdfrwt beam="2">  1       21 0.11513627E-02 0.13976105E+02</pdfrwt>
<totfact> 0.21048094E+08</totfact>
</mgrwt>
</event>
<event>
 4    1  0.3989279E+006  0.5007185E+01  0.7546771E-02  0.2565881E+00
         21   -1    0    0  501  502  0.00000000000E+00  0.00000000000E+00  0.13680268576E+00  0.13680268576E+00  0.00000000000E+00 0.  1.
         21   -1    0    0  502  503 -0.00000000000E+00 -0.00000000000E+00 -0.18509055676E+03  0.18509055676E+03  0.00000000000E+00 0.  1.
          5    1    1    2  501    0 -0.69641649314E+00 -0.15801604877E+01 -0.10166062222E+03  0.10178385929E+03  0.47000000000E+01 0.  1.
         -5    1    1    2    0  503  0.69641649314E+00  0.15801604877E+01 -0.83293131859E+02  0.83443500154E+02  0.47000000000E+01 0.  1.
<mgrwt>
<rscale>  2 0.50071851E+01</rscale>
<asrwt>0</asrwt>
<pdfrwt beam="1">  1       21 0.21046500E-04 0.50071851E+01</pdfrwt>
<pdfrwt beam="2">  1       21 0.28475561E-01 0.50071851E+01</pdfrwt>
<totfact> 0.33383341E+09</totfact>
</mgrwt>
</event>
<event>
 4    1  0.3989279E+006  0.7203714E+01  0.7546771E-02  0.2280934E+00
         21   -1    0    0  503  502  0.00000000000E+00  0.00000000000E+00  0.71503523249E+02  0.71503523249E+02  0.00000000000E+00 0.  1.
         21   -1    0    0  501  503 -0.00000000000E+00 -0.00000000000E+00 -0.10864805803E+01  0.10864805803E+01  0.00000000000E+00 0.  1.
          5    1    1    2  501    0 -0.53148337685E+01 -0.12474119866E+01  0.14294916534E+02  0.16007439937E+02  0.47000000000E+01 0.  1.
         -5    1    1    2    0  502  0.53148337685E+01  0.12474119866E+01  0.56122126135E+02  0.56582563892E+02  0.47000000000E+01 0.  1.
<mgrwt>
<rscale>  2 0.72037139E+01</rscale>
<asrwt>0</asrwt>
<pdfrwt beam="1">  1       21 0.11000538E-01 0.72037139E+01</pdfrwt>
<pdfrwt beam="2">  1       21 0.16715091E-03 0.72037139E+01</pdfrwt>
<totfact> 0.12808168E+09</totfact>
</mgrwt>
</event>
<event>
 4    1  0.3989279E+006  0.5295631E+01  0.7546771E-02  0.2517238E+00
         21   -1    0    0  501  502  0.00000000000E+00  0.00000000000E+00  0.32730949459E+01  0.32730949459E+01  0.00000000000E+00 0. -1.
         21   -1    0    0  502  503 -0.00000000000E+00 -0.00000000000E+00 -0.10190778947E+02  0.10190778947E+02  0.00000000000E+00 0. -1.
          5    1    1    2  501    0 -0.91249844635E+00  0.22629752533E+01 -0.77242849536E+00  0.53516685428E+01  0.47000000000E+01 0. -1.
         -5    1    1    2    0  503  0.91249844635E+00 -0.22629752533E+01 -0.61452555060E+01  0.81122053503E+01  0.47000000000E+01 0. -1.
<mgrwt>
<rscale>  2 0.52956313E+01</rscale>
<asrwt>0</asrwt>
<pdfrwt beam="1">  1       21 0.50355308E-03 0.52956313E+01</pdfrwt>
<pdfrwt beam="2">  1       21 0.15678121E-02 0.52956313E+01</pdfrwt>
<totfact> 0.38715533E+09</totfact>
</mgrwt>
</event>
<event>
 4    1  0.3989279E+006  0.6583018E+01  0.7546771E-02  0.2345204E+00
         21   -1    0    0  501  502  0.00000000000E+00  0.00000000000E+00  0.13515396251E+03  0.13515396251E+03  0.00000000000E+00 0. -1.
         21   -1    0    0  502  503 -0.00000000000E+00 -0.00000000000E+00 -0.83654430545E+00  0.83654430545E+00  0.00000000000E+00 0. -1.
          5    1    1    2  501    0  0.11398889559E+01 -0.44661819980E+01  0.12055579692E+03  0.12073539788E+03  0.47000000000E+01 0. -1.
         -5    1    1    2    0  503 -0.11398889559E+01  0.44661819980E+01  0.13761621283E+02  0.15255108941E+02  0.47000000000E+01 0. -1.
<mgrwt>
<rscale>  2 0.65830182E+01</rscale>
<asrwt>0</asrwt>
<pdfrwt beam="1">  1       21 0.20792900E-01 0.65830182E+01</pdfrwt>
<pdfrwt beam="2">  1       21 0.12869923E-03 0.65830182E+01</pdfrwt>
<totfact> 0.62172571E+08</totfact>
</mgrwt>
</event>
<event>
 4    1  0.3989279E+006  0.7460110E+01  0.7546771E-02  0.2256964E+00
         21   -1    0    0  501  502  0.00000000000E+00  0.00000000000E+00  0.12317217168E+02  0.12317217168E+02  0.00000000000E+00 0. -1.
         21   -1    0    0  502  503 -0.00000000000E+00 -0.00000000000E+00 -0.50402822896E+01  0.50402822896E+01  0.00000000000E+00 0.  1.
          5    1    1    2  501    0 -0.55730508007E+01 -0.15825147846E+01  0.64313023127E+01  0.98496140893E+01  0.47000000000E+01 0. -1.
         -5    1    1    2    0  503  0.55730508007E+01  0.15825147846E+01  0.84563256596E+00  0.75078853686E+01  0.47000000000E+01 0.  1.
<mgrwt>
<rscale>  2 0.74601105E+01</rscale>
<asrwt>0</asrwt>
<pdfrwt beam="1">  1       21 0.18949565E-02 0.74601105E+01</pdfrwt>
<pdfrwt beam="2">  1       21 0.77542805E-03 0.74601105E+01</pdfrwt>
<totfact> 0.21653929E+09</totfact>
</mgrwt>
</event>
<event>
 4    1  0.3989279E+006  0.5813273E+01  0.7546771E-02  0.2440379E+00
         21   -1    0    0  503  502  0.00000000000E+00  0.00000000000E+00  0.14549120190E+00  0.14549120190E+00  0.00000000000E+00 0.  1.
         21   -1    0    0  501  503 -0.00000000000E+00 -0.00000000000E+00 -0.23683459836E+03  0.23683459836E+03  0.00000000000E+00 0.  1.
          5    1    1    2  501    0  0.18016713696E+01  0.29082851611E+01 -0.13478319126E+03  0.13490849784E+03  0.47000000000E+01 0.  1.
         -5    1    1    2    0  502 -0.18016713696E+01 -0.29082851611E+01 -0.10190591590E+03  0.10207159173E+03  0.47000000000E+01 0.  1.
<mgrwt>
<rscale>  2 0.58132729E+01</rscale>
<asrwt>0</asrwt>
<pdfrwt beam="1">  1       21 0.22383349E-04 0.58132729E+01</pdfrwt>
<pdfrwt beam="2">  1       21 0.36435950E-01 0.58132729E+01</pdfrwt>
<totfact> 0.23123323E+09</totfact>
</mgrwt>
</event>
<event>
 4    1  0.3989279E+006  0.4820795E+01  0.7546771E-02  0.2599961E+00
         21   -1    0    0  501  502  0.00000000000E+00  0.00000000000E+00  0.64589151449E+02  0.64589151449E+02  0.00000000000E+00 0.  1.
         21   -1    0    0  502  503 -0.00000000000E+00 -0.00000000000E+00 -0.39480437336E+00  0.39480437336E+00  0.00000000000E+00 0.  1.
          5    1    1    2  501    0  0.81882176697E+00  0.69252555088E+00  0.41770178321E+02  0.42047447695E+02  0.47000000000E+01 0.  1.
         -5    1    1    2    0  503 -0.81882176697E+00 -0.69252555088E+00  0.22424168755E+02  0.22936508127E+02  0.47000000000E+01 0.  1.
<mgrwt>
<rscale>  2 0.48207946E+01</rscale>
<asrwt>0</asrwt>
<pdfrwt beam="1">  1       21 0.99367841E-02 0.48207946E+01</pdfrwt>
<pdfrwt beam="2">  1       21 0.60739186E-04 0.48207946E+01</pdfrwt>
<totfact> 0.41288026E+09</totfact>
</mgrwt>
</event>
<event>
 4    1  0.3989279E+006  0.5582562E+01  0.7546771E-02  0.2473142E+00
         21   -1    0    0  503  502  0.00000000000E+00  0.00000000000E+00  0.19505618152E+02  0.19505618152E+02  0.00000000000E+00 0.  1.
         21   -1    0    0  501  503 -0.00000000000E+00 -0.00000000000E+00 -0.50023870244E+01  0.50023870244E+01  0.00000000000E+00 0. -1.
          5    1    1    2  501    0  0.15638781298E+01  0.25747396735E+01 -0.28577771156E+01  0.62715141101E+01  0.47000000000E+01 0. -1.
         -5    1    1    2    0  502 -0.15638781298E+01 -0.25747396735E+01  0.17361008244E+02  0.18236491067E+02  0.47000000000E+01 0.  1.
<mgrwt>
<rscale>  2 0.55825621E+01</rscale>
<asrwt>0</asrwt>
<pdfrwt beam="1">  1       21 0.30008643E-02 0.55825621E+01</pdfrwt>
<pdfrwt beam="2">  1       21 0.76959801E-03 0.55825621E+01</pdfrwt>
<totfact> 0.89176642E+08</totfact>
</mgrwt>
</event>
<event>
 4    1  0.3989279E+006  0.1303125E+02  0.7546771E-02  0.1934856E+00
         21   -1    0    0  501  502  0.00000000000E+00  0.00000000000E+00  0.15295137001E+03  0.15295137001E+03  0.00000000000E+00 0.  1.
         21   -1    0    0  502  503 -0.00000000000E+00 -0.00000000000E+00 -0.39420065359E+01  0.39420065359E+01  0.00000000000E+00 0. -1.
          5    1    1    2  501    0 -0.10457863139E+02  0.61932697572E+01  0.14099283712E+03  0.14159376261E+03  0.47000000000E+01 0.  1.
         -5    1    1    2    0  503  0.10457863139E+02 -0.61932697572E+01  0.80165263552E+01  0.15299613934E+02  0.47000000000E+01 0. -1.
<mgrwt>
<rscale>  2 0.13031251E+02</rscale>
<asrwt>0</asrwt>
<pdfrwt beam="1">  1       21 0.23530975E-01 0.13031251E+02</pdfrwt>
<pdfrwt beam="2">  1       21 0.60646266E-03 0.13031251E+02</pdfrwt>
<totfact> 0.81583850E+07</totfact>
</mgrwt>
</event>
<event>
 4    1  0.3989279E+006  0.4861303E+01  0.7546771E-02  0.2592363E+00
         21   -1    0    0  501  502  0.00000000000E+00  0.00000000000E+00  0.15455877767E+00  0.15455877767E+00  0.00000000000E+00 0.  1.
         21   -1    0    0  502  503 -0.00000000000E+00 -0.00000000000E+00 -0.19926282509E+03  0.19926282509E+03  0.00000000000E+00 0.  1.
          5    1    1    2  501    0 -0.11578657379E+01 -0.44900990239E+00 -0.51459349142E+02  0.51688459805E+02  0.47000000000E+01 0.  1.
         -5    1    1    2    0  503  0.11578657379E+01  0.44900990239E+00 -0.14764891717E+03  0.14772892407E+03  0.47000000000E+01 0.  1.
<mgrwt>
<rscale>  2 0.48613026E+01</rscale>
<asrwt>0</asrwt>
<pdfrwt beam="1">  1       21 0.23778225E-04 0.48613026E+01</pdfrwt>
<pdfrwt beam="2">  1       21 0.30655881E-01 0.48613026E+01</pdfrwt>
<totfact> 0.24454042E+09</totfact>
</mgrwt>
</event>
<event>
 4    1  0.3989279E+006  0.5884275E+01  0.7546771E-02  0.2430733E+00
         21   -1    0    0  501  502  0.00000000000E+00  0.00000000000E+00  0.42075569795E-01  0.42075569795E-01  0.00000000000E+00 0.  1.
         21   -1    0    0  502  503 -0.00000000000E+00 -0.00000000000E+00 -0.13959583748E+04  0.13959583748E+04  0.00000000000E+00 0.  1.
          5    1    1    2  501    0  0.18949640583E+01  0.29906200530E+01 -0.25074727061E+03  0.25081630413E+03  0.47000000000E+01 0.  1.
         -5    1    1    2    0  503 -0.18949640583E+01 -0.29906200530E+01 -0.11451690286E+04  0.11451841463E+04  0.47000000000E+01 0.  1.
<mgrwt>
<rscale>  2 0.58842754E+01</rscale>
<asrwt>0</asrwt>
<pdfrwt beam="1">  1       21 0.64732378E-05 0.58842754E+01</pdfrwt>
<pdfrwt beam="2">  1       21 0.21476040E+00 0.58842754E+01</pdfrwt>
<totfact> 0.36435239E+08</totfact>
</mgrwt>
</event>
<event>
 4    1  0.3989279E+006  0.5849368E+01  0.7546771E-02  0.2435451E+00
         21   -1    0    0  501  502  0.00000000000E+00  0.00000000000E+00  0.10220790920E+01  0.10220790920E+01  0.00000000000E+00 0.  1.
         21   -1    0    0  502  503 -0.00000000000E+00 -0.00000000000E+00 -0.15169370040E+03  0.15169370040E+03  0.00000000000E+00 0.  1.
          5    1    1    2  501    0  0.19031632018E+01  0.29160032558E+01 -0.79278133494E+01  0.98521738547E+01  0.47000000000E+01 0.  1.
         -5    1    1    2    0  503 -0.19031632018E+01 -0.29160032558E+01 -0.14274380796E+03  0.14286360564E+03  0.47000000000E+01 0.  1.
<mgrwt>
<rscale>  2 0.58493679E+01</rscale>
<asrwt>0</asrwt>
<pdfrwt beam="1">  1       21 0.15724309E-03 0.58493679E+01</pdfrwt>
<pdfrwt beam="2">  1       21 0.23337470E-01 0.58493679E+01</pdfrwt>
<totfact> 0.36085761E+08</totfact>
</mgrwt>
</event>
<event>
 4    1  0.3989279E+006  0.9006844E+01  0.7546771E-02  0.2136346E+00
         21   -1    0    0  501  502  0.00000000000E+00  0.00000000000E+00  0.42633142035E+01  0.42633142035E+01  0.00000000000E+00 0.  1.
         21   -1    0    0  502  503 -0.00000000000E+00 -0.00000000000E+00 -0.26244904878E+02  0.26244904878E+02  0.00000000000E+00 0. -1.
          5    1    1    2  501    0 -0.76830557253E+01  0.62433767927E-01 -0.29918359139E+01  0.94907494640E+01  0.47000000000E+01 0.  1.
         -5    1    1    2    0  503  0.76830557253E+01 -0.62433767927E-01 -0.18989754760E+02  0.21017469617E+02  0.47000000000E+01 0. -1.
<mgrwt>
<rscale>  2 0.90068442E+01</rscale>
<asrwt>0</asrwt>
<pdfrwt beam="1">  1       21 0.65589449E-03 0.90068442E+01</pdfrwt>
<pdfrwt beam="2">  1       21 0.40376777E-02 0.90068442E+01</pdfrwt>
<totfact> 0.10208700E+09</totfact>
</mgrwt>
</event>
<event>
 4    1  0.3989279E+006  0.5326755E+01  0.7546771E-02  0.2512259E+00
         21   -1    0    0  503  502  0.00000000000E+00  0.00000000000E+00  0.23818372786E+02  0.23818372786E+02  0.00000000000E+00 0.  1.
         21   -1    0    0  501  503 -0.00000000000E+00 -0.00000000000E+00 -0.12485981971E+01  0.12485981971E+01  0.00000000000E+00 0.  1.
          5    1    1    2  501    0  0.19349214723E+01  0.15938631262E+01  0.85994711166E+01  0.10115593124E+02  0.47000000000E+01 0.  1.
         -5    1    1    2    0  502 -0.19349214723E+01 -0.15938631262E+01  0.13970303472E+02  0.14951377858E+02  0.47000000000E+01 0.  1.
<mgrwt>
<rscale>  2 0.53267552E+01</rscale>
<asrwt>0</asrwt>
<pdfrwt beam="1">  1       21 0.36643647E-02 0.53267552E+01</pdfrwt>
<pdfrwt beam="2">  1       21 0.19209205E-03 0.53267552E+01</pdfrwt>
<totfact> 0.42990605E+09</totfact>
</mgrwt>
</event>
<event>
 4    1  0.3989279E+006  0.5297328E+01  0.7546771E-02  0.2516965E+00
         21   -1    0    0  503  502  0.00000000000E+00  0.00000000000E+00  0.32086383513E+03  0.32086383513E+03  0.00000000000E+00 0.  1.
         21   -1    0    0  501  503 -0.00000000000E+00 -0.00000000000E+00 -0.90561418856E-01  0.90561418856E-01  0.00000000000E+00 0. -1.
          5    1    1    2  501    0 -0.95425658928E-01 -0.24418395854E+01  0.13067311883E+03  0.13078044836E+03  0.47000000000E+01 0. -1.
         -5    1    1    2    0  502  0.95425658928E-01  0.24418395854E+01  0.19010015488E+03  0.19017394819E+03  0.47000000000E+01 0.  1.
<mgrwt>
<rscale>  2 0.52973283E+01</rscale>
<asrwt>0</asrwt>
<pdfrwt beam="1">  1       21 0.49362757E-01 0.52973283E+01</pdfrwt>
<pdfrwt beam="2">  1       21 0.13932783E-04 0.52973283E+01</pdfrwt>
<totfact> 0.23646618E+09</totfact>
</mgrwt>
</event>
<event>
 4    1  0.3989279E+006  0.5343354E+01  0.7546771E-02  0.2509625E+00
         21   -1    0    0  501  502  0.00000000000E+00  0.00000000000E+00  0.69045229252E+01  0.69045229252E+01  0.00000000000E+00 0. -1.
         21   -1    0    0  502  503 -0.00000000000E+00 -0.00000000000E+00 -0.86145077346E+01  0.86145077346E+01  0.00000000000E+00 0. -1.
          5    1    1    2  501    0  0.69842531619E+00 -0.24441023915E+01  0.47403395555E+01  0.71429863169E+01  0.47000000000E+01 0. -1.
         -5    1    1    2    0  503 -0.69842531619E+00  0.24441023915E+01 -0.64503243648E+01  0.83760443429E+01  0.47000000000E+01 0. -1.
<mgrwt>
<rscale>  2 0.53433542E+01</rscale>
<asrwt>0</asrwt>
<pdfrwt beam="1">  1       21 0.10622343E-02 0.53433542E+01</pdfrwt>
<pdfrwt beam="2">  1       21 0.13253089E-02 0.53433542E+01</pdfrwt>
<totfact> 0.17540244E+09</totfact>
</mgrwt>
</event>
<event>
 4    1  0.3989279E+006  0.5432094E+01  0.7546771E-02  0.2495772E+00
         21   -1    0    0  501  502  0.00000000000E+00  0.00000000000E+00  0.11607131653E+00  0.11607131653E+00  0.00000000000E+00 0. -1.
         21   -1    0    0  502  503 -0.00000000000E+00 -0.00000000000E+00 -0.29358997747E+03  0.29358997747E+03  0.00000000000E+00 0. -1.
          5    1    1    2  501    0 -0.26024309531E+01 -0.80311860014E+00 -0.92960142297E+02  0.93118718323E+02  0.47000000000E+01 0. -1.
         -5    1    1    2    0  503  0.26024309531E+01  0.80311860014E+00 -0.20051376386E+03  0.20058733046E+03  0.47000000000E+01 0. -1.
<mgrwt>
<rscale>  2 0.54320941E+01</rscale>
<asrwt>0</asrwt>
<pdfrwt beam="1">  1       21 0.17857265E-04 0.54320941E+01</pdfrwt>
<pdfrwt beam="2">  1       21 0.45167336E-01 0.54320941E+01</pdfrwt>
<totfact> 0.20334304E+09</totfact>
</mgrwt>
</event>
<event>
 4    1  0.3989279E+006  0.7130258E+01  0.7546771E-02  0.2288059E+00
         21   -1    0    0  503  502  0.00000000000E+00  0.00000000000E+00  0.11731173129E+02  0.11731173129E+02  0.00000000000E+00 0. -1.
         21   -1    0    0  501  503 -0.00000000000E+00 -0.00000000000E+00 -0.47217567625E+02  0.47217567625E+02  0.00000000000E+00 0.  1.
          5    1    1    2  501    0  0.44155660743E+01 -0.30419330433E+01 -0.45832385485E+02  0.46383705540E+02  0.47000000000E+01 0.  1.
         -5    1    1    2    0  502 -0.44155660743E+01  0.30419330433E+01  0.10345990989E+02  0.12565035214E+02  0.47000000000E+01 0. -1.
<mgrwt>
<rscale>  2 0.71302581E+01</rscale>
<asrwt>0</asrwt>
<pdfrwt beam="1">  1       21 0.18047959E-02 0.71302581E+01</pdfrwt>
<pdfrwt beam="2">  1       21 0.72642412E-02 0.71302581E+01</pdfrwt>
<totfact> 0.84951835E+07</totfact>
</mgrwt>
</event>
<event>
 4    1  0.3989279E+006  0.5257997E+01  0.7546771E-02  0.2523324E+00
         21   -1    0    0  501  502  0.00000000000E+00  0.00000000000E+00  0.10847701166E+02  0.10847701166E+02  0.00000000000E+00 0.  1.
         21   -1    0    0  502  503 -0.00000000000E+00 -0.00000000000E+00 -0.26267392175E+01  0.26267392175E+01  0.00000000000E+00 0.  1.
          5    1    1    2  501    0  0.10279403749E+01 -0.21212904879E+01  0.52724254746E+01  0.74461402843E+01  0.47000000000E+01 0.  1.
         -5    1    1    2    0  503 -0.10279403749E+01  0.21212904879E+01  0.29485364739E+01  0.60283000992E+01  0.47000000000E+01 0.  1.
<mgrwt>
<rscale>  2 0.52579972E+01</rscale>
<asrwt>0</asrwt>
<pdfrwt beam="1">  1       21 0.16688771E-02 0.52579972E+01</pdfrwt>
<pdfrwt beam="2">  1       21 0.40411373E-03 0.52579972E+01</pdfrwt>
<totfact> 0.47608717E+09</totfact>
</mgrwt>
</event>
<event>
 4    1  0.3989279E+006  0.7391792E+01  0.7546771E-02  0.2263219E+00
         21   -1    0    0  501  502  0.00000000000E+00  0.00000000000E+00  0.72684467973E+02  0.72684467973E+02  0.00000000000E+00 0.  1.
         21   -1    0    0  502  503 -0.00000000000E+00 -0.00000000000E+00 -0.76647675246E+00  0.76647675246E+00  0.00000000000E+00 0.  1.
          5    1    1    2  501    0 -0.47124564711E+01 -0.32157949627E+01  0.41054295705E+02  0.41714431304E+02  0.47000000000E+01 0. -1.
         -5    1    1    2    0  503  0.47124564711E+01  0.32157949627E+01  0.30863695516E+02  0.31736513421E+02  0.47000000000E+01 0. -1.
<mgrwt>
<rscale>  2 0.73917916E+01</rscale>
<asrwt>0</asrwt>
<pdfrwt beam="1">  1       21 0.11182220E-01 0.73917916E+01</pdfrwt>
<pdfrwt beam="2">  1       21 0.11791956E-03 0.73917916E+01</pdfrwt>
<totfact> 0.20483607E+09</totfact>
</mgrwt>
</event>
<event>
 4    1  0.3989279E+006  0.9149371E+01  0.7546771E-02  0.2126897E+00
         21   -1    0    0  503  502  0.00000000000E+00  0.00000000000E+00  0.77079360105E+00  0.77079360105E+00  0.00000000000E+00 0. -1.
         21   -1    0    0  501  503 -0.00000000000E+00 -0.00000000000E+00 -0.14644950591E+03  0.14644950591E+03  0.00000000000E+00 0.  1.
          5    1    1    2  501    0  0.77716414566E+01 -0.11057012298E+01 -0.11025928897E+03  0.11063824741E+03  0.47000000000E+01 0.  1.
         -5    1    1    2    0  502 -0.77716414566E+01  0.11057012298E+01 -0.35419423337E+02  0.36582052098E+02  0.47000000000E+01 0. -1.
<mgrwt>
<rscale>  2 0.91493708E+01</rscale>
<asrwt>0</asrwt>
<pdfrwt beam="1">  1       21 0.11858367E-03 0.91493708E+01</pdfrwt>
<pdfrwt beam="2">  1       21 0.22530687E-01 0.91493708E+01</pdfrwt>
<totfact> 0.74843058E+08</totfact>
</mgrwt>
</event>
<event>
 4    1  0.3989279E+006  0.6545346E+01  0.7546771E-02  0.2349426E+00
         21   -1    0    0  501  502  0.00000000000E+00  0.00000000000E+00  0.68220402251E+00  0.68220402251E+00  0.00000000000E+00 0. -1.
         21   -1    0    0  502  503 -0.00000000000E+00 -0.00000000000E+00 -0.63840027026E+02  0.63840027026E+02  0.00000000000E+00 0. -1.
          5    1    1    2  501    0 -0.24193580510E+01  0.38598270475E+01 -0.35699094397E+02  0.36294171695E+02  0.47000000000E+01 0. -1.
         -5    1    1    2    0  503  0.24193580510E+01 -0.38598270475E+01 -0.27458728606E+02  0.28228059354E+02  0.47000000000E+01 0. -1.
<mgrwt>
<rscale>  2 0.65453463E+01</rscale>
<asrwt>0</asrwt>
<pdfrwt beam="1">  1       21 0.10495443E-03 0.65453463E+01</pdfrwt>
<pdfrwt beam="2">  1       21 0.98215457E-02 0.65453463E+01</pdfrwt>
<totfact> 0.26774257E+09</totfact>
</mgrwt>
</event>
<event>
 4    1  0.3989279E+006  0.5242023E+01  0.7546771E-02  0.2525931E+00
         21   -1    0    0  501  502  0.00000000000E+00  0.00000000000E+00  0.64460271766E+00  0.64460271766E+00  0.00000000000E+00 0.  1.
         21   -1    0    0  502  503 -0.00000000000E+00 -0.00000000000E+00 -0.44127101350E+02  0.44127101350E+02  0.00000000000E+00 0. -1.
          5    1    1    2  501    0 -0.14424950431E+01  0.18187938883E+01 -0.17616629709E+02  0.18380001237E+02  0.47000000000E+01 0.  1.
         -5    1    1    2    0  503  0.14424950431E+01 -0.18187938883E+01 -0.25865868923E+02  0.26391702830E+02  0.47000000000E+01 0. -1.
<mgrwt>
<rscale>  2 0.52420228E+01</rscale>
<asrwt>0</asrwt>
<pdfrwt beam="1">  1       21 0.99169647E-04 0.52420228E+01</pdfrwt>
<pdfrwt beam="2">  1       21 0.67887850E-02 0.52420228E+01</pdfrwt>
<totfact> 0.41499037E+09</totfact>
</mgrwt>
</event>
<event>
 4    1  0.3989279E+006  0.7855535E+01  0.7546771E-02  0.2222511E+00
         21   -1    0    0  501  502  0.00000000000E+00  0.00000000000E+00  0.33996151398E+02  0.33996151398E+02  0.00000000000E+00 0.  1.
         21   -1    0    0  502  503 -0.00000000000E+00 -0.00000000000E+00 -0.18487456875E+01  0.18487456875E+01  0.00000000000E+00 0. -1.
          5    1    1    2  501    0 -0.40235501925E+01  0.48405030762E+01  0.18488334780E+02  0.20088005106E+02  0.47000000000E+01 0. -1.
         -5    1    1    2    0  503  0.40235501925E+01 -0.48405030762E+01  0.13659070930E+02  0.15756891979E+02  0.47000000000E+01 0.  1.
<mgrwt>
<rscale>  2 0.78555347E+01</rscale>
<asrwt>0</asrwt>
<pdfrwt beam="1">  1       21 0.52301767E-02 0.78555347E+01</pdfrwt>
<pdfrwt beam="2">  1       21 0.28442244E-03 0.78555347E+01</pdfrwt>
<totfact> 0.20499583E+09</totfact>
</mgrwt>
</event>
<event>
 4    1  0.3989279E+006  0.4733639E+01  0.7546771E-02  0.2616692E+00
         21   -1    0    0  501  502  0.00000000000E+00  0.00000000000E+00  0.65989312892E+03  0.65989312892E+03  0.00000000000E+00 0. -1.
         21   -1    0    0  502  503 -0.00000000000E+00 -0.00000000000E+00 -0.62761217406E-01  0.62761217406E-01  0.00000000000E+00 0. -1.
          5    1    1    2  501    0  0.67954534791E-01 -0.55921142061E+00  0.55346523078E+03  0.55348547318E+03  0.47000000000E+01 0. -1.
         -5    1    1    2    0  503 -0.67954534791E-01  0.55921142061E+00  0.10636513692E+03  0.10647041695E+03  0.47000000000E+01 0. -1.
<mgrwt>
<rscale>  2 0.47336387E+01</rscale>
<asrwt>0</asrwt>
<pdfrwt beam="1">  1       21 0.10151646E+00 0.47336387E+01</pdfrwt>
<pdfrwt beam="2">  1       21 0.96561003E-05 0.47336387E+01</pdfrwt>
<totfact> 0.90169794E+08</totfact>
</mgrwt>
</event>
<event>
 4    1  0.3989279E+006  0.5506862E+01  0.7546771E-02  0.2484396E+00
         21   -1    0    0  501  502  0.00000000000E+00  0.00000000000E+00  0.19904352293E+02  0.19904352293E+02  0.00000000000E+00 0. -1.
         21   -1    0    0  502  503 -0.00000000000E+00 -0.00000000000E+00 -0.29343091684E+01  0.29343091684E+01  0.00000000000E+00 0. -1.
          5    1    1    2  501    0  0.25435697847E+01  0.13288266984E+01  0.16402961631E+02  0.17302678345E+02  0.47000000000E+01 0. -1.
         -5    1    1    2    0  503 -0.25435697847E+01 -0.13288266984E+01  0.56708149368E+00  0.55359831163E+01  0.47000000000E+01 0. -1.
<mgrwt>
<rscale>  2 0.55068619E+01</rscale>
<asrwt>0</asrwt>
<pdfrwt beam="1">  1       21 0.30622080E-02 0.55068619E+01</pdfrwt>
<pdfrwt beam="2">  1       21 0.45143219E-03 0.55068619E+01</pdfrwt>
<totfact> 0.17941015E+09</totfact>
</mgrwt>
</event>
<event>
 4    1  0.3989279E+006  0.6550373E+01  0.7546771E-02  0.2348860E+00
         21   -1    0    0  503  502  0.00000000000E+00  0.00000000000E+00  0.52057791171E+01  0.52057791171E+01  0.00000000000E+00 0.  1.
         21   -1    0    0  501  503 -0.00000000000E+00 -0.00000000000E+00 -0.82537262749E+01  0.82537262749E+01  0.00000000000E+00 0. -1.
          5    1    1    2  501    0  0.45331320309E+01 -0.51778081271E+00 -0.17748111275E+01  0.67865556447E+01  0.47000000000E+01 0.  1.
         -5    1    1    2    0  502 -0.45331320309E+01  0.51778081271E+00 -0.12731360303E+01  0.66729497474E+01  0.47000000000E+01 0.  1.
<mgrwt>
<rscale>  2 0.65503727E+01</rscale>
<asrwt>0</asrwt>
<pdfrwt beam="1">  1       21 0.80088909E-03 0.65503727E+01</pdfrwt>
<pdfrwt beam="2">  1       21 0.12698040E-02 0.65503727E+01</pdfrwt>
<totfact> 0.33220677E+09</totfact>
</mgrwt>
</event>
<event>
 4    1  0.3989279E+006  0.5370711E+01  0.7546771E-02  0.2505313E+00
         21   -1    0    0  503  502  0.00000000000E+00  0.00000000000E+00  0.17305270654E-01  0.17305270654E-01  0.00000000000E+00 0.  1.
         21   -1    0    0  501  503 -0.00000000000E+00 -0.00000000000E+00 -0.20621097555E+04  0.20621097555E+04  0.00000000000E+00 0.  1.
          5    1    1    2  501    0  0.15805932920E+01 -0.20630719401E+01 -0.14824806000E+04  0.14824903284E+04  0.47000000000E+01 0.  1.
         -5    1    1    2    0  502 -0.15805932920E+01  0.20630719401E+01 -0.57961185025E+03  0.57963673235E+03  0.47000000000E+01 0.  1.
<mgrwt>
<rscale>  2 0.53707114E+01</rscale>
<asrwt>0</asrwt>
<pdfrwt beam="1">  1       21 0.26629775E-05 0.53707114E+01</pdfrwt>
<pdfrwt beam="2">  1       21 0.31717283E+00 0.53707114E+01</pdfrwt>
<totfact> 0.45473502E+08</totfact>
</mgrwt>
</event>
<event>
 4    1  0.3989279E+006  0.5046371E+01  0.7546771E-02  0.2558993E+00
         21   -1    0    0  501  502  0.00000000000E+00  0.00000000000E+00  0.20715691989E+00  0.20715691989E+00  0.00000000000E+00 0. -1.
         21   -1    0    0  502  503 -0.00000000000E+00 -0.00000000000E+00 -0.27878519139E+03  0.27878519139E+03  0.00000000000E+00 0. -1.
          5    1    1    2  501    0  0.23317424860E+00 -0.18224963496E+01 -0.34988212602E+02  0.35350260031E+02  0.47000000000E+01 0. -1.
         -5    1    1    2    0  503 -0.23317424860E+00  0.18224963496E+01 -0.24358982187E+03  0.24364208828E+03  0.47000000000E+01 0. -1.
<mgrwt>
<rscale>  2 0.50463713E+01</rscale>
<asrwt>0</asrwt>
<pdfrwt beam="1">  1       21 0.31870276E-04 0.50463713E+01</pdfrwt>
<pdfrwt beam="2">  1       21 0.42890055E-01 0.50463713E+01</pdfrwt>
<totfact> 0.97059207E+08</totfact>
</mgrwt>
</event>
<event>
 4    1  0.3989279E+006  0.5698129E+01  0.7546771E-02  0.2456450E+00
         21   -1    0    0  501  502  0.00000000000E+00  0.00000000000E+00  0.56278213788E-01  0.56278213788E-01  0.00000000000E+00 0.  1.
         21   -1    0    0  502  503 -0.00000000000E+00 -0.00000000000E+00 -0.62922877674E+03  0.62922877674E+03  0.00000000000E+00 0. -1.
          5    1    1    2  501    0 -0.31622857718E+01  0.61532420664E+00 -0.22387678415E+03  0.22394928702E+03  0.47000000000E+01 0.  1.
         -5    1    1    2    0  503  0.31622857718E+01 -0.61532420664E+00 -0.40529571438E+03  0.40533576794E+03  0.47000000000E+01 0. -1.
<mgrwt>
<rscale>  2 0.56981291E+01</rscale>
<asrwt>0</asrwt>
<pdfrwt beam="1">  1       21 0.86583067E-05 0.56981291E+01</pdfrwt>
<pdfrwt beam="2">  1       21 0.96803085E-01 0.56981291E+01</pdfrwt>
<totfact> 0.13219928E+09</totfact>
</mgrwt>
</event>
<event>
 4    1  0.3989279E+006  0.4754739E+01  0.7546771E-02  0.2612593E+00
         21   -1    0    0  503  502  0.00000000000E+00  0.00000000000E+00  0.19858779036E+01  0.19858779036E+01  0.00000000000E+00 0. -1.
         21   -1    0    0  501  503 -0.00000000000E+00 -0.00000000000E+00 -0.48252190836E+02  0.48252190836E+02  0.00000000000E+00 0. -1.
          5    1    1    2  501    0  0.54635732439E+00  0.46801606184E+00 -0.45089974965E+02  0.45339975603E+02  0.47000000000E+01 0. -1.
         -5    1    1    2    0  502 -0.54635732439E+00 -0.46801606184E+00 -0.11763379675E+01  0.48980931365E+01  0.47000000000E+01 0. -1.
<mgrwt>
<rscale>  2 0.47547393E+01</rscale>
<asrwt>0</asrwt>
<pdfrwt beam="1">  1       21 0.30551969E-03 0.47547393E+01</pdfrwt>
<pdfrwt beam="2">  1       21 0.74234137E-02 0.47547393E+01</pdfrwt>
<totfact> 0.73040529E+08</totfact>
</mgrwt>
</event>
<event>
 4    1  0.3989279E+006  0.7908375E+01  0.7546771E-02  0.2218119E+00
         21   -1    0    0  503  502  0.00000000000E+00  0.00000000000E+00  0.17137797945E+02  0.17137797945E+02  0.00000000000E+00 0.  1.
         21   -1    0    0  501  503 -0.00000000000E+00 -0.00000000000E+00 -0.36666938821E+01  0.36666938821E+01  0.00000000000E+00 0. -1.
          5    1    1    2  501    0  0.47747748662E+01  0.42016566563E+01  0.74502879045E+01  0.10865044111E+02  0.47000000000E+01 0.  1.
         -5    1    1    2    0  502 -0.47747748662E+01 -0.42016566563E+01  0.60208161581E+01  0.99394477155E+01  0.47000000000E+01 0. -1.
<mgrwt>
<rscale>  2 0.79083749E+01</rscale>
<asrwt>0</asrwt>
<pdfrwt beam="1">  1       21 0.26365843E-02 0.79083749E+01</pdfrwt>
<pdfrwt beam="2">  1       21 0.56410676E-03 0.79083749E+01</pdfrwt>
<totfact> 0.21894904E+09</totfact>
</mgrwt>
</event>
<event>
 4    1  0.3989279E+006  0.9026142E+01  0.7546771E-02  0.2135053E+00
         21   -1    0    0  503  502  0.00000000000E+00  0.00000000000E+00  0.43858498664E+00  0.43858498664E+00  0.00000000000E+00 0. -1.
         21   -1    0    0  501  503 -0.00000000000E+00 -0.00000000000E+00 -0.35905901009E+03  0.35905901009E+03  0.00000000000E+00 0.  1.
          5    1    1    2  501    0  0.18341631338E+01 -0.74844560569E+01 -0.30418708306E+03  0.30432096993E+03  0.47000000000E+01 0.  1.
         -5    1    1    2    0  502 -0.18341631338E+01  0.74844560569E+01 -0.54433342039E+02  0.55176625145E+02  0.47000000000E+01 0. -1.
<mgrwt>
<rscale>  2 0.90261419E+01</rscale>
<asrwt>0</asrwt>
<pdfrwt beam="1">  1       21 0.67474713E-04 0.90261419E+01</pdfrwt>
<pdfrwt beam="2">  1       21 0.55239766E-01 0.90261419E+01</pdfrwt>
<totfact> 0.32870911E+08</totfact>
</mgrwt>
</event>
<event>
 4    1  0.3989279E+006  0.5392928E+01  0.7546771E-02  0.2501838E+00
         21   -1    0    0  503  502  0.00000000000E+00  0.00000000000E+00  0.22598342448E+02  0.22598342448E+02  0.00000000000E+00 0.  1.
         21   -1    0    0  501  503 -0.00000000000E+00 -0.00000000000E+00 -0.18154422215E+01  0.18154422215E+01  0.00000000000E+00 0. -1.
          5    1    1    2  501    0 -0.21758762851E+01  0.15030743072E+01  0.38054783050E+01  0.66004041627E+01  0.47000000000E+01 0. -1.
         -5    1    1    2    0  502  0.21758762851E+01 -0.15030743072E+01  0.16977421921E+02  0.17813380507E+02  0.47000000000E+01 0.  1.
<mgrwt>
<rscale>  2 0.53929278E+01</rscale>
<asrwt>0</asrwt>
<pdfrwt beam="1">  1       21 0.34766679E-02 0.53929278E+01</pdfrwt>
<pdfrwt beam="2">  1       21 0.27929882E-03 0.53929278E+01</pdfrwt>
<totfact> 0.28274236E+09</totfact>
</mgrwt>
</event>
<event>
 4    1  0.3989279E+006  0.6608365E+01  0.7546771E-02  0.2342386E+00
         21   -1    0    0  503  502  0.00000000000E+00  0.00000000000E+00  0.44428938632E+01  0.44428938632E+01  0.00000000000E+00 0.  1.
         21   -1    0    0  501  503 -0.00000000000E+00 -0.00000000000E+00 -0.19397251849E+02  0.19397251849E+02  0.00000000000E+00 0.  1.
          5    1    1    2  501    0 -0.64574989555E+00 -0.46003792710E+01 -0.15848973802E+02  0.17171501185E+02  0.47000000000E+01 0.  1.
         -5    1    1    2    0  502  0.64574989555E+00  0.46003792710E+01  0.89461581677E+00  0.66686445267E+01  0.47000000000E+01 0.  1.
<mgrwt>
<rscale>  2 0.66083646E+01</rscale>
<asrwt>0</asrwt>
<pdfrwt beam="1">  1       21 0.68352214E-03 0.66083646E+01</pdfrwt>
<pdfrwt beam="2">  1       21 0.29841926E-02 0.66083646E+01</pdfrwt>
<totfact> 0.12176711E+09</totfact>
</mgrwt>
</event>
<event>
 4    1  0.3989279E+006  0.5677227E+01  0.7546771E-02  0.2459427E+00
         21   -1    0    0  501  502  0.00000000000E+00  0.00000000000E+00  0.60458174306E+00  0.60458174306E+00  0.00000000000E+00 0. -1.
         21   -1    0    0  502  503 -0.00000000000E+00 -0.00000000000E+00 -0.16466507513E+03  0.16466507513E+03  0.00000000000E+00 0.  1.
          5    1    1    2  501    0  0.13021445500E+01 -0.29060847038E+01 -0.14076208000E+02  0.15177962327E+02  0.47000000000E+01 0. -1.
         -5    1    1    2    0  503 -0.13021445500E+01  0.29060847038E+01 -0.14998428538E+03  0.15009169454E+03  0.47000000000E+01 0.  1.
<mgrwt>
<rscale>  2 0.56772272E+01</rscale>
<asrwt>0</asrwt>
<pdfrwt beam="1">  1       21 0.93012610E-04 0.56772272E+01</pdfrwt>
<pdfrwt beam="2">  1       21 0.25333079E-01 0.56772272E+01</pdfrwt>
<totfact> 0.62504315E+08</totfact>
</mgrwt>
</event>
<event>
 4    1  0.3989279E+006  0.7223584E+01  0.7546771E-02  0.2279027E+00
         21   -1    0    0  503  502  0.00000000000E+00  0.00000000000E+00  0.38546573982E+03  0.38546573982E+03  0.00000000000E+00 0.  1.
         21   -1    0    0  501  503 -0.00000000000E+00 -0.00000000000E+00 -0.15820068604E+00  0.15820068604E+00  0.00000000000E+00 0. -1.
          5    1    1    2  501    0 -0.36667781483E+01 -0.40798164376E+01  0.11940547631E+03  0.11962377664E+03  0.47000000000E+01 0. -1.
         -5    1    1    2    0  502  0.36667781483E+01  0.40798164376E+01  0.26590206282E+03  0.26600016387E+03  0.47000000000E+01 0.  1.
<mgrwt>
<rscale>  2 0.72235839E+01</rscale>
<asrwt>0</asrwt>
<pdfrwt beam="1">  1       21 0.59301670E-01 0.72235839E+01</pdfrwt>
<pdfrwt beam="2">  1       21 0.24338876E-04 0.72235839E+01</pdfrwt>
<totfact> 0.10079484E+09</totfact>
</mgrwt>
</event>
<event>
 4    1  0.3989279E+006  0.7223552E+01  0.7546771E-02  0.2279030E+00
         21   -1    0    0  503  502  0.00000000000E+00  0.00000000000E+00  0.42508981461E+02  0.42508981461E+02  0.00000000000E+00 0. -1.
         21   -1    0    0  501  503 -0.00000000000E+00 -0.00000000000E+00 -0.13575162056E+01  0.13575162056E+01  0.00000000000E+00 0.  1.
          5    1    1    2  501    0  0.26644268231E+01 -0.47948444891E+01  0.13787886659E+02  0.15565523521E+02  0.47000000000E+01 0.  1.
         -5    1    1    2    0  502 -0.26644268231E+01  0.47948444891E+01  0.27363578597E+02  0.28300974146E+02  0.47000000000E+01 0. -1.
<mgrwt>
<rscale>  2 0.72235520E+01</rscale>
<asrwt>0</asrwt>
<pdfrwt beam="1">  1       21 0.65398423E-02 0.72235520E+01</pdfrwt>
<pdfrwt beam="2">  1       21 0.20884868E-03 0.72235520E+01</pdfrwt>
<totfact> 0.21066915E+09</totfact>
</mgrwt>
</event>
<event>
 4    1  0.3989279E+006  0.5141171E+01  0.7546771E-02  0.2542704E+00
         21   -1    0    0  503  502  0.00000000000E+00  0.00000000000E+00  0.11818609385E+02  0.11818609385E+02  0.00000000000E+00 0.  1.
         21   -1    0    0  501  503 -0.00000000000E+00 -0.00000000000E+00 -0.37462394316E+01  0.37462394316E+01  0.00000000000E+00 0.  1.
          5    1    1    2  501    0  0.54175988892E+00 -0.20119967832E+01 -0.90437847829E+00  0.52201087407E+01  0.47000000000E+01 0.  1.
         -5    1    1    2    0  502 -0.54175988892E+00  0.20119967832E+01  0.89767484313E+01  0.10344740076E+02  0.47000000000E+01 0.  1.
<mgrwt>
<rscale>  2 0.51411706E+01</rscale>
<asrwt>0</asrwt>
<pdfrwt beam="1">  1       21 0.18182476E-02 0.51411706E+01</pdfrwt>
<pdfrwt beam="2">  1       21 0.57634453E-03 0.51411706E+01</pdfrwt>
<totfact> 0.25288217E+09</totfact>
</mgrwt>
</event>
<event>
 4    1  0.3989279E+006  0.5933923E+01  0.7546771E-02  0.2424104E+00
         21   -1    0    0  503  502  0.00000000000E+00  0.00000000000E+00  0.19670891617E+02  0.19670891617E+02  0.00000000000E+00 0.  1.
         21   -1    0    0  501  503 -0.00000000000E+00 -0.00000000000E+00 -0.18694476981E+01  0.18694476981E+01  0.00000000000E+00 0.  1.
          5    1    1    2  501    0 -0.50891348981E+00 -0.35864250015E+01  0.11120611311E+02  0.12604738520E+02  0.47000000000E+01 0.  1.
         -5    1    1    2    0  502  0.50891348981E+00  0.35864250015E+01  0.66808326075E+01  0.89356007947E+01  0.47000000000E+01 0.  1.
<mgrwt>
<rscale>  2 0.59339226E+01</rscale>
<asrwt>0</asrwt>
<pdfrwt beam="1">  1       21 0.30262909E-02 0.59339226E+01</pdfrwt>
<pdfrwt beam="2">  1       21 0.28760735E-03 0.59339226E+01</pdfrwt>
<totfact> 0.36266711E+09</totfact>
</mgrwt>
</event>
<event>
 4    1  0.3989279E+006  0.5744966E+01  0.7546771E-02  0.2449847E+00
         21   -1    0    0  503  502  0.00000000000E+00  0.00000000000E+00  0.32253517817E+00  0.32253517817E+00  0.00000000000E+00 0. -1.
         21   -1    0    0  501  503 -0.00000000000E+00 -0.00000000000E+00 -0.49049028700E+03  0.49049028700E+03  0.00000000000E+00 0. -1.
          5    1    1    2  501    0  0.12308934537E+01  0.30658660049E+01 -0.46339553392E+03  0.46343114428E+03  0.47000000000E+01 0. -1.
         -5    1    1    2    0  502 -0.12308934537E+01 -0.30658660049E+01 -0.26772217902E+02  0.27381677897E+02  0.47000000000E+01 0. -1.
<mgrwt>
<rscale>  2 0.57449659E+01</rscale>
<asrwt>0</asrwt>
<pdfrwt beam="1">  1       21 0.49620900E-04 0.57449659E+01</pdfrwt>
<pdfrwt beam="2">  1       21 0.75459887E-01 0.57449659E+01</pdfrwt>
<totfact> 0.21196785E+08</totfact>
</mgrwt>
</event>
<event>
 4    1  0.3989279E+006  0.5942893E+01  0.7546771E-02  0.2422916E+00
         21   -1    0    0  501  502  0.00000000000E+00  0.00000000000E+00  0.10710594418E+04  0.10710594418E+04  0.00000000000E+00 0.  1.
         21   -1    0    0  502  503 -0.00000000000E+00 -0.00000000000E+00 -0.33804566419E-01  0.33804566419E-01  0.00000000000E+00 0.  1.
          5    1    1    2  501    0  0.26510612040E+01 -0.24899511874E+01  0.61941721303E+03  0.61944572141E+03  0.47000000000E+01 0.  1.
         -5    1    1    2    0  503 -0.26510612040E+01  0.24899511874E+01  0.45160842417E+03  0.45164752491E+03  0.47000000000E+01 0.  1.
<mgrwt>
<rscale>  2 0.59428934E+01</rscale>
<asrwt>0</asrwt>
<pdfrwt beam="1">  1       21 0.16475120E+00 0.59428934E+01</pdfrwt>
<pdfrwt beam="2">  1       21 0.52015603E-05 0.59428934E+01</pdfrwt>
<totfact> 0.88490090E+08</totfact>
</mgrwt>
</event>
<event>
 4    1  0.3989279E+006  0.7284813E+01  0.7546771E-02  0.2273204E+00
         21   -1    0    0  503  502  0.00000000000E+00  0.00000000000E+00  0.35448109035E+03  0.35448109035E+03  0.00000000000E+00 0.  1.
         21   -1    0    0  501  503 -0.00000000000E+00 -0.00000000000E+00 -0.12843230808E+01  0.12843230808E+01  0.00000000000E+00 0.  1.
          5    1    1    2  501    0  0.54441178650E+01  0.11576197010E+01  0.94042852697E+01  0.11895759082E+02  0.47000000000E+01 0.  1.
         -5    1    1    2    0  502 -0.54441178650E+01 -0.11576197010E+01  0.34379248200E+03  0.34386965434E+03  0.47000000000E+01 0.  1.
<mgrwt>
<rscale>  2 0.72848132E+01</rscale>
<asrwt>0</asrwt>
<pdfrwt beam="1">  1       21 0.54535474E-01 0.72848132E+01</pdfrwt>
<pdfrwt beam="2">  1       21 0.19758845E-03 0.72848132E+01</pdfrwt>
<totfact> 0.69325502E+07</totfact>
</mgrwt>
</event>
<event>
 4    1  0.3989279E+006  0.5242326E+01  0.7546771E-02  0.2525881E+00
         21   -1    0    0  503  502  0.00000000000E+00  0.00000000000E+00  0.87630452954E+00  0.87630452954E+00  0.00000000000E+00 0.  1.
         21   -1    0    0  501  503 -0.00000000000E+00 -0.00000000000E+00 -0.34608621126E+02  0.34608621126E+02  0.00000000000E+00 0.  1.
          5    1    1    2  501    0 -0.15756558837E+01 -0.17056650923E+01 -0.11431286717E+02  0.12576020868E+02  0.47000000000E+01 0.  1.
         -5    1    1    2    0  502  0.15756558837E+01  0.17056650923E+01 -0.22301029880E+02  0.22908904788E+02  0.47000000000E+01 0.  1.
<mgrwt>
<rscale>  2 0.52423263E+01</rscale>
<asrwt>0</asrwt>
<pdfrwt beam="1">  1       21 0.13481609E-03 0.52423263E+01</pdfrwt>
<pdfrwt beam="2">  1       21 0.53244028E-02 0.52423263E+01</pdfrwt>
<totfact> 0.39446024E+09</totfact>
</mgrwt>
</event>
<event>
 4    1  0.3989279E+006  0.5007285E+01  0.7546771E-02  0.2565863E+00
         21   -1    0    0  503  502  0.00000000000E+00  0.00000000000E+00  0.82880327203E-01  0.82880327203E-01  0.00000000000E+00 0. -1.
         21   -1    0    0  501  503 -0.00000000000E+00 -0.00000000000E+00 -0.30257719056E+03  0.30257719056E+03  0.00000000000E+00 0. -1.
          5    1    1    2  501    0  0.65780461819E+00  0.15969341027E+01 -0.14915545435E+03  0.14923948026E+03  0.47000000000E+01 0. -1.
         -5    1    1    2    0  502 -0.65780461819E+00 -0.15969341027E+01 -0.15333885588E+03  0.15342059063E+03  0.47000000000E+01 0. -1.
<mgrwt>
<rscale>  2 0.50072852E+01</rscale>
<asrwt>0</asrwt>
<pdfrwt beam="1">  1       21 0.12750897E-04 0.50072852E+01</pdfrwt>
<pdfrwt beam="2">  1       21 0.46550055E-01 0.50072852E+01</pdfrwt>
<totfact> 0.28098559E+09</totfact>
</mgrwt>
</event>
<event>
 4    1  0.3989279E+006  0.9305431E+01  0.7546771E-02  0.2116814E+00
         21   -1    0    0  501  502  0.00000000000E+00  0.00000000000E+00  0.71425858563E+01  0.71425858563E+01  0.00000000000E+00 0.  1.
         21   -1    0    0  502  503 -0.00000000000E+00 -0.00000000000E+00 -0.16078623858E+02  0.16078623858E+02  0.00000000000E+00 0.  1.
          5    1    1    2  501    0 -0.74569870801E+01  0.29823473788E+01  0.12907080722E+01  0.93945185895E+01  0.47000000000E+01 0.  1.
         -5    1    1    2    0  503  0.74569870801E+01 -0.29823473788E+01 -0.10226746074E+02  0.13826691125E+02  0.47000000000E+01 0.  1.
<mgrwt>
<rscale>  2 0.93054313E+01</rscale>
<asrwt>0</asrwt>
<pdfrwt beam="1">  1       21 0.10988594E-02 0.93054313E+01</pdfrwt>
<pdfrwt beam="2">  1       21 0.24736344E-02 0.93054313E+01</pdfrwt>
<totfact> 0.10318322E+09</totfact>
</mgrwt>
</event>
<event>
 4    1  0.3989279E+006  0.9217540E+01  0.7546771E-02  0.2122459E+00
         21   -1    0    0  503  502  0.00000000000E+00  0.00000000000E+00  0.80290772357E-01  0.80290772357E-01  0.00000000000E+00 0.  1.
         21   -1    0    0  501  503 -0.00000000000E+00 -0.00000000000E+00 -0.12509505586E+04  0.12509505586E+04  0.00000000000E+00 0. -1.
          5    1    1    2  501    0 -0.62868142863E+01  0.48320804815E+01 -0.37989356357E+03  0.38000537191E+03  0.47000000000E+01 0.  1.
         -5    1    1    2    0  502  0.62868142863E+01 -0.48320804815E+01 -0.87097670424E+03  0.87102547745E+03  0.47000000000E+01 0. -1.
<mgrwt>
<rscale>  2 0.92175396E+01</rscale>
<asrwt>0</asrwt>
<pdfrwt beam="1">  1       21 0.12352857E-04 0.92175396E+01</pdfrwt>
<pdfrwt beam="2">  1       21 0.19244722E+00 0.92175396E+01</pdfrwt>
<totfact> 0.24395419E+08</totfact>
</mgrwt>
</event>
<event>
 4    1  0.3989279E+006  0.6224953E+01  0.7546771E-02  0.2387034E+00
         21   -1    0    0  501  502  0.00000000000E+00  0.00000000000E+00  0.62940569521E+01  0.62940569521E+01  0.00000000000E+00 0. -1.
         21   -1    0    0  502  503 -0.00000000000E+00 -0.00000000000E+00 -0.81952615166E+01  0.81952615166E+01  0.00000000000E+00 0. -1.
          5    1    1    2  501    0  0.38441177602E+01 -0.13721491308E+01  0.26627339786E+01  0.67705381494E+01  0.47000000000E+01 0. -1.
         -5    1    1    2    0  503 -0.38441177602E+01  0.13721491308E+01 -0.45639385432E+01  0.77187803193E+01  0.47000000000E+01 0. -1.
<mgrwt>
<rscale>  2 0.62249526E+01</rscale>
<asrwt>0</asrwt>
<pdfrwt beam="1">  1       21 0.96831645E-03 0.62249526E+01</pdfrwt>
<pdfrwt beam="2">  1       21 0.12608095E-02 0.62249526E+01</pdfrwt>
<totfact> 0.24566870E+09</totfact>
</mgrwt>
</event>
<event>
 4    1  0.3989279E+006  0.5045825E+01  0.7546771E-02  0.2559088E+00
         21   -1    0    0  503  502  0.00000000000E+00  0.00000000000E+00  0.20089504467E+00  0.20089504467E+00  0.00000000000E+00 0. -1.
         21   -1    0    0  501  503 -0.00000000000E+00 -0.00000000000E+00 -0.12884296018E+03  0.12884296018E+03  0.00000000000E+00 0. -1.
          5    1    1    2  501    0 -0.15303032530E+01 -0.10141592320E+01 -0.72574805828E+02  0.72750001980E+02  0.47000000000E+01 0. -1.
         -5    1    1    2    0  502  0.15303032530E+01  0.10141592320E+01 -0.56067259309E+02  0.56293853247E+02  0.47000000000E+01 0. -1.
<mgrwt>
<rscale>  2 0.50458247E+01</rscale>
<asrwt>0</asrwt>
<pdfrwt beam="1">  1       21 0.30906979E-04 0.50458247E+01</pdfrwt>
<pdfrwt beam="2">  1       21 0.19821963E-01 0.50458247E+01</pdfrwt>
<totfact> 0.36336771E+09</totfact>
</mgrwt>
</event>
<event>
 4    1  0.3989279E+006  0.5727763E+01  0.7546771E-02  0.2452262E+00
         21   -1    0    0  503  502  0.00000000000E+00  0.00000000000E+00  0.15948671201E+01  0.15948671201E+01  0.00000000000E+00 0.  1.
         21   -1    0    0  501  503 -0.00000000000E+00 -0.00000000000E+00 -0.30479924651E+02  0.30479924651E+02  0.00000000000E+00 0.  1.
          5    1    1    2  501    0  0.12986295281E+01  0.30051344386E+01 -0.23586826005E+02  0.24272322358E+02  0.47000000000E+01 0. -1.
         -5    1    1    2    0  502 -0.12986295281E+01 -0.30051344386E+01 -0.52982315258E+01  0.78024694133E+01  0.47000000000E+01 0. -1.
<mgrwt>
<rscale>  2 0.57277632E+01</rscale>
<asrwt>0</asrwt>
<pdfrwt beam="1">  1       21 0.24536420E-03 0.57277632E+01</pdfrwt>
<pdfrwt beam="2">  1       21 0.46892187E-02 0.57277632E+01</pdfrwt>
<totfact> 0.23010792E+09</totfact>
</mgrwt>
</event>
<event>
 4    1  0.3989279E+006  0.1019963E+02  0.7546771E-02  0.2063802E+00
         21   -1    0    0  503  502  0.00000000000E+00  0.00000000000E+00  0.62658852469E+01  0.62658852469E+01  0.00000000000E+00 0. -1.
         21   -1    0    0  501  503 -0.00000000000E+00 -0.00000000000E+00 -0.20314327117E+02  0.20314327117E+02  0.00000000000E+00 0. -1.
          5    1    1    2  501    0 -0.85782196990E+01  0.28907625579E+01 -0.12704806086E+02  0.16292466328E+02  0.47000000000E+01 0. -1.
         -5    1    1    2    0  502  0.85782196990E+01 -0.28907625579E+01 -0.13436357838E+01  0.10287746035E+02  0.47000000000E+01 0. -1.
<mgrwt>
<rscale>  2 0.10199626E+02</rscale>
<asrwt>0</asrwt>
<pdfrwt beam="1">  1       21 0.96398235E-03 0.10199626E+02</pdfrwt>
<pdfrwt beam="2">  1       21 0.31252811E-02 0.10199626E+02</pdfrwt>
<totfact> 0.92882052E+08</totfact>
</mgrwt>
</event>
<event>
 4    1  0.3989279E+006  0.4797812E+01  0.7546771E-02  0.2604322E+00
         21   -1    0    0  503  502  0.00000000000E+00  0.00000000000E+00  0.16644576511E+01  0.16644576511E+01  0.00000000000E+00 0.  1.
         21   -1    0    0  501  503 -0.00000000000E+00 -0.00000000000E+00 -0.17738787688E+02  0.17738787688E+02  0.00000000000E+00 0.  1.
          5    1    1    2  501    0  0.13963254186E-01  0.96374671047E+00 -0.12591430658E+02  0.13474536308E+02  0.47000000000E+01 0.  1.
         -5    1    1    2    0  502 -0.13963254186E-01 -0.96374671047E+00 -0.34828993790E+01  0.59287090314E+01  0.47000000000E+01 0.  1.
<mgrwt>
<rscale>  2 0.47978123E+01</rscale>
<asrwt>0</asrwt>
<pdfrwt beam="1">  1       21 0.25607042E-03 0.47978123E+01</pdfrwt>
<pdfrwt beam="2">  1       21 0.27290442E-02 0.47978123E+01</pdfrwt>
<totfact> 0.39994370E+09</totfact>
</mgrwt>
</event>
<event>
 4    1  0.3989279E+006  0.5111194E+01  0.7546771E-02  0.2547798E+00
         21   -1    0    0  503  502  0.00000000000E+00  0.00000000000E+00  0.84446042063E+01  0.84446042063E+01  0.00000000000E+00 0.  1.
         21   -1    0    0  501  503 -0.00000000000E+00 -0.00000000000E+00 -0.14096669662E+02  0.14096669662E+02  0.00000000000E+00 0.  1.
          5    1    1    2  501    0  0.19115512479E+01  0.61666757669E+00 -0.12783455436E+02  0.13767390456E+02  0.47000000000E+01 0.  1.
         -5    1    1    2    0  502 -0.19115512479E+01 -0.61666757669E+00  0.71313899808E+01  0.87738834122E+01  0.47000000000E+01 0.  1.
<mgrwt>
<rscale>  2 0.51111943E+01</rscale>
<asrwt>0</asrwt>
<pdfrwt beam="1">  1       21 0.12991699E-02 0.51111943E+01</pdfrwt>
<pdfrwt beam="2">  1       21 0.21687184E-02 0.51111943E+01</pdfrwt>
<totfact> 0.63131036E+08</totfact>
</mgrwt>
</event>
<event>
 4    1  0.3989279E+006  0.6746285E+01  0.7546771E-02  0.2327358E+00
         21   -1    0    0  503  502  0.00000000000E+00  0.00000000000E+00  0.10402941396E+01  0.10402941396E+01  0.00000000000E+00 0. -1.
         21   -1    0    0  501  503 -0.00000000000E+00 -0.00000000000E+00 -0.10513490785E+03  0.10513490785E+03  0.00000000000E+00 0.  1.
          5    1    1    2  501    0 -0.11329277505E+01  0.47051925259E+01 -0.92612370143E+02  0.92857759318E+02  0.47000000000E+01 0.  1.
         -5    1    1    2    0  502  0.11329277505E+01 -0.47051925259E+01 -0.11482243571E+02  0.13317442676E+02  0.47000000000E+01 0. -1.
<mgrwt>
<rscale>  2 0.67462851E+01</rscale>
<asrwt>0</asrwt>
<pdfrwt beam="1">  1       21 0.16004525E-03 0.67462851E+01</pdfrwt>
<pdfrwt beam="2">  1       21 0.16174601E-01 0.67462851E+01</pdfrwt>
<totfact> 0.70548313E+08</totfact>
</mgrwt>
</event>
<event>
 4    1  0.3989279E+006  0.6745096E+01  0.7546771E-02  0.2327485E+00
         21   -1    0    0  501  502  0.00000000000E+00  0.00000000000E+00  0.52915730507E+03  0.52915730507E+03  0.00000000000E+00 0. -1.
         21   -1    0    0  502  503 -0.00000000000E+00 -0.00000000000E+00 -0.30509215061E+00  0.30509215061E+00  0.00000000000E+00 0. -1.
          5    1    1    2  501    0 -0.45706692260E+01 -0.15859701733E+01  0.48877504185E+03  0.48882158079E+03  0.47000000000E+01 0. -1.
         -5    1    1    2    0  503  0.45706692260E+01  0.15859701733E+01  0.40077171077E+02  0.40640816430E+02  0.47000000000E+01 0. -1.
<mgrwt>
<rscale>  2 0.67450959E+01</rscale>
<asrwt>0</asrwt>
<pdfrwt beam="1">  1       21 0.81408082E-01 0.67450959E+01</pdfrwt>
<pdfrwt beam="2">  1       21 0.46937677E-04 0.67450959E+01</pdfrwt>
<totfact> 0.21766665E+08</totfact>
</mgrwt>
</event>
<event>
 4    1  0.3989279E+006  0.5717680E+01  0.7546771E-02  0.2453683E+00
         21   -1    0    0  501  502  0.00000000000E+00  0.00000000000E+00  0.35220809020E+01  0.35220809020E+01  0.00000000000E+00 0. -1.
         21   -1    0    0  502  503 -0.00000000000E+00 -0.00000000000E+00 -0.30635103677E+02  0.30635103677E+02  0.00000000000E+00 0. -1.
          5    1    1    2  501    0 -0.32250180168E+01 -0.44847258968E+00  0.70196584656E+00  0.57606097700E+01  0.47000000000E+01 0. -1.
         -5    1    1    2    0  503  0.32250180168E+01  0.44847258968E+00 -0.27814988622E+02  0.28396574810E+02  0.47000000000E+01 0. -1.
<mgrwt>
<rscale>  2 0.57176804E+01</rscale>
<asrwt>0</asrwt>
<pdfrwt beam="1">  1       21 0.54185858E-03 0.57176804E+01</pdfrwt>
<pdfrwt beam="2">  1       21 0.47130931E-02 0.57176804E+01</pdfrwt>
<totfact> 0.76692733E+08</totfact>
</mgrwt>
</event>
<event>
 4    1  0.3989279E+006  0.6125564E+01  0.7546771E-02  0.2399362E+00
         21   -1    0    0  503  502  0.00000000000E+00  0.00000000000E+00  0.36922434492E+01  0.36922434492E+01  0.00000000000E+00 0.  1.
         21   -1    0    0  501  503 -0.00000000000E+00 -0.00000000000E+00 -0.29911832309E+02  0.29911832309E+02  0.00000000000E+00 0.  1.
          5    1    1    2  501    0  0.18244796718E+01 -0.34790524949E+01 -0.26762424948E+02  0.27454506395E+02  0.47000000000E+01 0.  1.
         -5    1    1    2    0  502 -0.18244796718E+01  0.34790524949E+01  0.54283608755E+00  0.61495693632E+01  0.47000000000E+01 0.  1.
<mgrwt>
<rscale>  2 0.61255638E+01</rscale>
<asrwt>0</asrwt>
<pdfrwt beam="1">  1       21 0.56803747E-03 0.61255638E+01</pdfrwt>
<pdfrwt beam="2">  1       21 0.46018202E-02 0.61255638E+01</pdfrwt>
<totfact> 0.78616241E+08</totfact>
</mgrwt>
</event>
<event>
 4    1  0.3989279E+006  0.6078525E+01  0.7546771E-02  0.2405314E+00
         21   -1    0    0  503  502  0.00000000000E+00  0.00000000000E+00  0.15046278355E+01  0.15046278355E+01  0.00000000000E+00 0.  1.
         21   -1    0    0  501  503 -0.00000000000E+00 -0.00000000000E+00 -0.27257701121E+02  0.27257701121E+02  0.00000000000E+00 0.  1.
          5    1    1    2  501    0 -0.14123745427E+01 -0.35865956694E+01 -0.17403675262E+02  0.18434651691E+02  0.47000000000E+01 0.  1.
         -5    1    1    2    0  502  0.14123745427E+01  0.35865956694E+01 -0.83493980239E+01  0.10327677266E+02  0.47000000000E+01 0.  1.
<mgrwt>
<rscale>  2 0.60785253E+01</rscale>
<asrwt>0</asrwt>
<pdfrwt beam="1">  1       21 0.23148122E-03 0.60785253E+01</pdfrwt>
<pdfrwt beam="2">  1       21 0.41934923E-02 0.60785253E+01</pdfrwt>
<totfact> 0.30944080E+09</totfact>
</mgrwt>
</event>
<event>
 4    1  0.3989279E+006  0.6140982E+01  0.7546771E-02  0.2397428E+00
         21   -1    0    0  503  502  0.00000000000E+00  0.00000000000E+00  0.48861374953E+02  0.48861374953E+02  0.00000000000E+00 0. -1.
         21   -1    0    0  501  503 -0.00000000000E+00 -0.00000000000E+00 -0.33515824679E+01  0.33515824679E+01  0.00000000000E+00 0. -1.
          5    1    1    2  501    0  0.39400762253E+01 -0.31217552851E+00 -0.14925059122E+00  0.61427949633E+01  0.47000000000E+01 0. -1.
         -5    1    1    2    0  502 -0.39400762253E+01  0.31217552851E+00  0.45659043077E+02  0.46070162458E+02  0.47000000000E+01 0. -1.
<mgrwt>
<rscale>  2 0.61409815E+01</rscale>
<asrwt>0</asrwt>
<pdfrwt beam="1">  1       21 0.75171341E-02 0.61409815E+01</pdfrwt>
<pdfrwt beam="2">  1       21 0.51562811E-03 0.61409815E+01</pdfrwt>
<totfact> 0.43267850E+08</totfact>
</mgrwt>
</event>
<event>
 4    1  0.3989279E+006  0.5929633E+01  0.7546771E-02  0.2424673E+00
         21   -1    0    0  501  502  0.00000000000E+00  0.00000000000E+00  0.14290960074E+01  0.14290960074E+01  0.00000000000E+00 0.  1.
         21   -1    0    0  502  503 -0.00000000000E+00 -0.00000000000E+00 -0.62313792550E+02  0.62313792550E+02  0.00000000000E+00 0.  1.
          5    1    1    2  501    0 -0.22709777737E+01 -0.28130431106E+01 -0.56486987749E+01  0.81895268142E+01  0.47000000000E+01 0.  1.
         -5    1    1    2    0  503  0.22709777737E+01  0.28130431106E+01 -0.55235997767E+02  0.55553361743E+02  0.47000000000E+01 0.  1.
<mgrwt>
<rscale>  2 0.59296333E+01</rscale>
<asrwt>0</asrwt>
<pdfrwt beam="1">  1       21 0.21986093E-03 0.59296333E+01</pdfrwt>
<pdfrwt beam="2">  1       21 0.95867372E-02 0.59296333E+01</pdfrwt>
<totfact> 0.94129743E+08</totfact>
</mgrwt>
</event>
<event>
 4    1  0.3989279E+006  0.4921365E+01  0.7546771E-02  0.2581295E+00
         21   -1    0    0  501  502  0.00000000000E+00  0.00000000000E+00  0.19631809496E+01  0.19631809496E+01  0.00000000000E+00 0. -1.
         21   -1    0    0  502  503 -0.00000000000E+00 -0.00000000000E+00 -0.21927453427E+02  0.21927453427E+02  0.00000000000E+00 0. -1.
          5    1    1    2  501    0 -0.48911992957E+00 -0.13749907087E+01 -0.20822233923E+01  0.53437339015E+01  0.47000000000E+01 0. -1.
         -5    1    1    2    0  503  0.48911992957E+00  0.13749907087E+01 -0.17882049085E+02  0.18546900475E+02  0.47000000000E+01 0. -1.
<mgrwt>
<rscale>  2 0.49213654E+01</rscale>
<asrwt>0</asrwt>
<pdfrwt beam="1">  1       21 0.30202782E-03 0.49213654E+01</pdfrwt>
<pdfrwt beam="2">  1       21 0.33734546E-02 0.49213654E+01</pdfrwt>
<totfact> 0.24245746E+09</totfact>
</mgrwt>
</event>
<event>
 4    1  0.3989279E+006  0.6881669E+01  0.7546771E-02  0.2313091E+00
         21   -1    0    0  501  502  0.00000000000E+00  0.00000000000E+00  0.18691599228E+02  0.18691599228E+02  0.00000000000E+00 0.  1.
         21   -1    0    0  502  503 -0.00000000000E+00 -0.00000000000E+00 -0.26871854109E+01  0.26871854109E+01  0.00000000000E+00 0.  1.
          5    1    1    2  501    0 -0.66413997608E+00  0.49825985897E+01  0.10557577282E+02  0.12602373137E+02  0.47000000000E+01 0.  1.
         -5    1    1    2    0  503  0.66413997608E+00 -0.49825985897E+01  0.54468365349E+01  0.87764115020E+01  0.47000000000E+01 0.  1.
<mgrwt>
<rscale>  2 0.68816692E+01</rscale>
<asrwt>0</asrwt>
<pdfrwt beam="1">  1       21 0.28756306E-02 0.68816692E+01</pdfrwt>
<pdfrwt beam="2">  1       21 0.41341315E-03 0.68816692E+01</pdfrwt>
<totfact> 0.26825004E+09</totfact>
</mgrwt>
</event>
<event>
 4    1  0.3989279E+006  0.6383692E+01  0.7546771E-02  0.2368009E+00
         21   -1    0    0  503  502  0.00000000000E+00  0.00000000000E+00  0.14076912995E+00  0.14076912995E+00  0.00000000000E+00 0. -1.
         21   -1    0    0  501  503 -0.00000000000E+00 -0.00000000000E+00 -0.34855046437E+03  0.34855046437E+03  0.00000000000E+00 0.  1.
          5    1    1    2  501    0  0.43189207177E+01  0.91905382979E-01 -0.24597099729E+03  0.24605382141E+03  0.47000000000E+01 0.  1.
         -5    1    1    2    0  502 -0.43189207177E+01 -0.91905382979E-01 -0.10243869795E+03  0.10263741209E+03  0.47000000000E+01 0. -1.
<mgrwt>
<rscale>  2 0.63836919E+01</rscale>
<asrwt>0</asrwt>
<pdfrwt beam="1">  1       21 0.21656748E-04 0.63836919E+01</pdfrwt>
<pdfrwt beam="2">  1       21 0.53623250E-01 0.63836919E+01</pdfrwt>
<totfact> 0.13071336E+09</totfact>
</mgrwt>
</event>
<event>
 4    1  0.3989279E+006  0.7371348E+01  0.7546771E-02  0.2265109E+00
         21   -1    0    0  503  502  0.00000000000E+00  0.00000000000E+00  0.20405586081E+03  0.20405586081E+03  0.00000000000E+00 0. -1.
         21   -1    0    0  501  503 -0.00000000000E+00 -0.00000000000E+00 -0.31043175380E+00  0.31043175380E+00  0.00000000000E+00 0.  1.
          5    1    1    2  501    0 -0.51366017603E+01 -0.24211749892E+01  0.63338049423E+02  0.63765549246E+02  0.47000000000E+01 0.  1.
         -5    1    1    2    0  502  0.51366017603E+01  0.24211749892E+01  0.14040737963E+03  0.14060074332E+03  0.47000000000E+01 0. -1.
<mgrwt>
<rscale>  2 0.73713476E+01</rscale>
<asrwt>0</asrwt>
<pdfrwt beam="1">  1       21 0.31393102E-01 0.73713476E+01</pdfrwt>
<pdfrwt beam="2">  1       21 0.47758895E-04 0.73713476E+01</pdfrwt>
<totfact> 0.12869107E+09</totfact>
</mgrwt>
</event>
<event>
 4    1  0.3989279E+006  0.4878386E+01  0.7546771E-02  0.2589191E+00
         21   -1    0    0  501  502  0.00000000000E+00  0.00000000000E+00  0.10931708505E+00  0.10931708505E+00  0.00000000000E+00 0. -1.
         21   -1    0    0  502  503 -0.00000000000E+00 -0.00000000000E+00 -0.21913082649E+03  0.21913082649E+03  0.00000000000E+00 0. -1.
          5    1    1    2  501    0  0.39433431072E-01 -0.13065569189E+01 -0.11835970805E+03  0.11846020064E+03  0.47000000000E+01 0.  1.
         -5    1    1    2    0  503 -0.39433431072E-01  0.13065569189E+01 -0.10066180136E+03  0.10077994294E+03  0.47000000000E+01 0.  1.
<mgrwt>
<rscale>  2 0.48783856E+01</rscale>
<asrwt>0</asrwt>
<pdfrwt beam="1">  1       21 0.16818175E-04 0.48783856E+01</pdfrwt>
<pdfrwt beam="2">  1       21 0.33712110E-01 0.48783856E+01</pdfrwt>
<totfact> 0.33099152E+09</totfact>
</mgrwt>
</event>
<event>
 4    1  0.3989279E+006  0.5402571E+01  0.7546771E-02  0.2500338E+00
         21   -1    0    0  501  502  0.00000000000E+00  0.00000000000E+00  0.32170983062E+02  0.32170983062E+02  0.00000000000E+00 0. -1.
         21   -1    0    0  502  503 -0.00000000000E+00 -0.00000000000E+00 -0.16937919479E+01  0.16937919479E+01  0.00000000000E+00 0. -1.
          5    1    1    2  501    0  0.18230941363E+01 -0.19427048701E+01  0.26776940894E+02  0.27316521339E+02  0.47000000000E+01 0. -1.
         -5    1    1    2    0  503 -0.18230941363E+01  0.19427048701E+01  0.37002502202E+01  0.65482536706E+01  0.47000000000E+01 0. -1.
<mgrwt>
<rscale>  2 0.54025711E+01</rscale>
<asrwt>0</asrwt>
<pdfrwt beam="1">  1       21 0.49493815E-02 0.54025711E+01</pdfrwt>
<pdfrwt beam="2">  1       21 0.26058340E-03 0.54025711E+01</pdfrwt>
<totfact> 0.18586791E+09</totfact>
</mgrwt>
</event>
<event>
 4    1  0.3989279E+006  0.6057585E+01  0.7546771E-02  0.2407989E+00
         21   -1    0    0  503  502  0.00000000000E+00  0.00000000000E+00  0.96417391721E+03  0.96417391721E+03  0.00000000000E+00 0. -1.
         21   -1    0    0  501  503 -0.00000000000E+00 -0.00000000000E+00 -0.38491200288E-01  0.38491200288E-01  0.00000000000E+00 0.  1.
          5    1    1    2  501    0 -0.11788742017E+01  0.36351885053E+01  0.53322478552E+03  0.53325919236E+03  0.47000000000E+01 0. -1.
         -5    1    1    2    0  502  0.11788742017E+01 -0.36351885053E+01  0.43091064048E+03  0.43095321605E+03  0.47000000000E+01 0.  1.
<mgrwt>
<rscale>  2 0.60575853E+01</rscale>
<asrwt>0</asrwt>
<pdfrwt beam="1">  1       21 0.14831511E+00 0.60575853E+01</pdfrwt>
<pdfrwt beam="2">  1       21 0.59224953E-05 0.60575853E+01</pdfrwt>
<totfact> 0.94300921E+08</totfact>
</mgrwt>
</event>
<event>
 4    1  0.3989279E+006  0.8270393E+01  0.7546771E-02  0.2189252E+00
         21   -1    0    0  503  502  0.00000000000E+00  0.00000000000E+00  0.27532035587E+00  0.27532035587E+00  0.00000000000E+00 0. -1.
         21   -1    0    0  501  503 -0.00000000000E+00 -0.00000000000E+00 -0.44768619956E+03  0.44768619956E+03  0.00000000000E+00 0.  1.
          5    1    1    2  501    0 -0.35226852356E+01 -0.58223788698E+01 -0.37313054243E+03  0.37322218731E+03  0.47000000000E+01 0.  1.
         -5    1    1    2    0  502  0.35226852356E+01  0.58223788698E+01 -0.74280336779E+02  0.74739332610E+02  0.47000000000E+01 0. -1.
<mgrwt>
<rscale>  2 0.82703934E+01</rscale>
<asrwt>0</asrwt>
<pdfrwt beam="1">  1       21 0.42357062E-04 0.82703934E+01</pdfrwt>
<pdfrwt beam="2">  1       21 0.68874663E-01 0.82703934E+01</pdfrwt>
<totfact> 0.38836149E+08</totfact>
</mgrwt>
</event>
<event>
 4    1  0.3989279E+006  0.5470846E+01  0.7546771E-02  0.2489843E+00
         21   -1    0    0  503  502  0.00000000000E+00  0.00000000000E+00  0.10695274678E+03  0.10695274678E+03  0.00000000000E+00 0. -1.
         21   -1    0    0  501  503 -0.00000000000E+00 -0.00000000000E+00 -0.85581255277E+00  0.85581255277E+00  0.00000000000E+00 0.  1.
          5    1    1    2  501    0  0.27979761917E+01  0.10717676067E+00  0.88270099770E+01  0.10384905525E+02  0.47000000000E+01 0.  1.
         -5    1    1    2    0  502 -0.27979761917E+01 -0.10717676067E+00  0.97269924254E+02  0.97423653812E+02  0.47000000000E+01 0. -1.
<mgrwt>
<rscale>  2 0.54708462E+01</rscale>
<asrwt>0</asrwt>
<pdfrwt beam="1">  1       21 0.16454258E-01 0.54708462E+01</pdfrwt>
<pdfrwt beam="2">  1       21 0.13166355E-03 0.54708462E+01</pdfrwt>
<totfact> 0.76330641E+08</totfact>
</mgrwt>
</event>
<event>
 4    1  0.3989279E+006  0.5652464E+01  0.7546771E-02  0.2462977E+00
         21   -1    0    0  501  502  0.00000000000E+00  0.00000000000E+00  0.44980121412E+03  0.44980121412E+03  0.00000000000E+00 0. -1.
         21   -1    0    0  502  503 -0.00000000000E+00 -0.00000000000E+00 -0.92625295459E+00  0.92625295459E+00  0.00000000000E+00 0.  1.
          5    1    1    2  501    0  0.29990207519E+01  0.93071362864E+00  0.44098756179E+03  0.44102378621E+03  0.47000000000E+01 0. -1.
         -5    1    1    2    0  503 -0.29990207519E+01 -0.93071362864E+00  0.78873993749E+01  0.97036808598E+01  0.47000000000E+01 0.  1.
<mgrwt>
<rscale>  2 0.56524644E+01</rscale>
<asrwt>0</asrwt>
<pdfrwt beam="1">  1       21 0.69200012E-01 0.56524644E+01</pdfrwt>
<pdfrwt beam="2">  1       21 0.14250081E-03 0.56524644E+01</pdfrwt>
<totfact> 0.60291613E+07</totfact>
</mgrwt>
</event>
<event>
 4    1  0.3989279E+006  0.5125343E+01  0.7546771E-02  0.2545387E+00
         21   -1    0    0  503  502  0.00000000000E+00  0.00000000000E+00  0.22268672700E+01  0.22268672700E+01  0.00000000000E+00 0. -1.
         21   -1    0    0  501  503 -0.00000000000E+00 -0.00000000000E+00 -0.12231764742E+02  0.12231764742E+02  0.00000000000E+00 0. -1.
          5    1    1    2  501    0  0.17706182628E+01 -0.10217875186E+01 -0.63662529140E+01  0.81730236101E+01  0.47000000000E+01 0. -1.
         -5    1    1    2    0  502 -0.17706182628E+01  0.10217875186E+01 -0.36386445583E+01  0.62856084024E+01  0.47000000000E+01 0. -1.
<mgrwt>
<rscale>  2 0.51253428E+01</rscale>
<asrwt>0</asrwt>
<pdfrwt beam="1">  1       21 0.34259497E-03 0.51253428E+01</pdfrwt>
<pdfrwt beam="2">  1       21 0.18818099E-02 0.51253428E+01</pdfrwt>
<totfact> 0.49019154E+09</totfact>
</mgrwt>
</event>
<event>
 4    1  0.3989279E+006  0.8400002E+01  0.7546771E-02  0.2179406E+00
         21   -1    0    0  501  502  0.00000000000E+00  0.00000000000E+00  0.46617649671E+01  0.46617649671E+01  0.00000000000E+00 0.  1.
         21   -1    0    0  502  503 -0.00000000000E+00 -0.00000000000E+00 -0.64633622839E+02  0.64633622839E+02  0.00000000000E+00 0. -1.
          5    1    1    2  501    0  0.69404167971E+01 -0.54831611332E+00  0.33466246915E+00  0.84066660958E+01  0.47000000000E+01 0.  1.
         -5    1    1    2    0  503 -0.69404167971E+01  0.54831611332E+00 -0.60306520341E+02  0.60888721711E+02  0.47000000000E+01 0. -1.
<mgrwt>
<rscale>  2 0.84000021E+01</rscale>
<asrwt>0</asrwt>
<pdfrwt beam="1">  1       21 0.71719463E-03 0.84000021E+01</pdfrwt>
<pdfrwt beam="2">  1       21 0.99436340E-02 0.84000021E+01</pdfrwt>
<totfact> 0.21586103E+08</totfact>
</mgrwt>
</event>
<event>
 4    1  0.3989279E+006  0.4988282E+01  0.7546771E-02  0.2569237E+00
         21   -1    0    0  503  502  0.00000000000E+00  0.00000000000E+00  0.17007172648E+01  0.17007172648E+01  0.00000000000E+00 0.  1.
         21   -1    0    0  501  503 -0.00000000000E+00 -0.00000000000E+00 -0.15396557912E+02  0.15396557912E+02  0.00000000000E+00 0. -1.
          5    1    1    2  501    0  0.16425413264E+01  0.30825203246E+00 -0.87543156438E+01  0.10075763183E+02  0.47000000000E+01 0. -1.
         -5    1    1    2    0  502 -0.16425413264E+01 -0.30825203246E+00 -0.49415250039E+01  0.70215119945E+01  0.47000000000E+01 0.  1.
<mgrwt>
<rscale>  2 0.49882824E+01</rscale>
<asrwt>0</asrwt>
<pdfrwt beam="1">  1       21 0.26164881E-03 0.49882824E+01</pdfrwt>
<pdfrwt beam="2">  1       21 0.23687013E-02 0.49882824E+01</pdfrwt>
<totfact> 0.49545852E+09</totfact>
</mgrwt>
</event>
<event>
 4    1  0.3989279E+006  0.9898959E+01  0.7546771E-02  0.2080784E+00
         21   -1    0    0  501  502  0.00000000000E+00  0.00000000000E+00  0.70542705880E-01  0.70542705880E-01  0.00000000000E+00 0. -1.
         21   -1    0    0  502  503 -0.00000000000E+00 -0.00000000000E+00 -0.14672615627E+04  0.14672615627E+04  0.00000000000E+00 0.  1.
          5    1    1    2  501    0  0.69060845204E+01 -0.53108735407E+01 -0.56423973696E+03  0.56432656339E+03  0.47000000000E+01 0.  1.
         -5    1    1    2    0  503 -0.69060845204E+01  0.53108735407E+01 -0.90295128308E+03  0.90300554206E+03  0.47000000000E+01 0. -1.
<mgrwt>
<rscale>  2 0.98989586E+01</rscale>
<asrwt>0</asrwt>
<pdfrwt beam="1">  1       21 0.10852762E-04 0.98989586E+01</pdfrwt>
<pdfrwt beam="2">  1       21 0.22573175E+00 0.98989586E+01</pdfrwt>
<totfact> 0.20382350E+08</totfact>
</mgrwt>
</event>
<event>
 4    1  0.3989279E+006  0.5956531E+01  0.7546771E-02  0.2421116E+00
         21   -1    0    0  503  502  0.00000000000E+00  0.00000000000E+00  0.14495762961E+02  0.14495762961E+02  0.00000000000E+00 0.  1.
         21   -1    0    0  501  503 -0.00000000000E+00 -0.00000000000E+00 -0.64789021103E+01  0.64789021103E+01  0.00000000000E+00 0.  1.
          5    1    1    2  501    0  0.36499302275E+01  0.26129634889E+00 -0.42640429645E+01  0.73254575864E+01  0.47000000000E+01 0.  1.
         -5    1    1    2    0  502 -0.36499302275E+01 -0.26129634889E+00  0.12280903816E+02  0.13649207485E+02  0.47000000000E+01 0.  1.
<mgrwt>
<rscale>  2 0.59565314E+01</rscale>
<asrwt>0</asrwt>
<pdfrwt beam="1">  1       21 0.22301174E-02 0.59565314E+01</pdfrwt>
<pdfrwt beam="2">  1       21 0.99675417E-03 0.59565314E+01</pdfrwt>
<totfact> 0.10047935E+09</totfact>
</mgrwt>
</event>
<event>
 4    1  0.3989279E+006  0.6116405E+01  0.7546771E-02  0.2400515E+00
         21   -1    0    0  503  502  0.00000000000E+00  0.00000000000E+00  0.30128455456E+02  0.30128455456E+02  0.00000000000E+00 0.  1.
         21   -1    0    0  501  503 -0.00000000000E+00 -0.00000000000E+00 -0.19697530929E+01  0.19697530929E+01  0.00000000000E+00 0.  1.
          5    1    1    2  501    0 -0.35974417444E+01  0.15423421793E+01  0.43221022407E+01  0.74893907818E+01  0.47000000000E+01 0.  1.
         -5    1    1    2    0  502  0.35974417444E+01 -0.15423421793E+01  0.23836600122E+02  0.24608817767E+02  0.47000000000E+01 0.  1.
<mgrwt>
<rscale>  2 0.61164047E+01</rscale>
<asrwt>0</asrwt>
<pdfrwt beam="1">  1       21 0.46351467E-02 0.61164047E+01</pdfrwt>
<pdfrwt beam="2">  1       21 0.30303896E-03 0.61164047E+01</pdfrwt>
<totfact> 0.18547987E+09</totfact>
</mgrwt>
</event>
<event>
 4    1  0.3989279E+006  0.4723370E+01  0.7546771E-02  0.2618699E+00
         21   -1    0    0  503  502  0.00000000000E+00  0.00000000000E+00  0.49861309676E+02  0.49861309676E+02  0.00000000000E+00 0.  1.
         21   -1    0    0  501  503 -0.00000000000E+00 -0.00000000000E+00 -0.25715511777E+01  0.25715511777E+01  0.00000000000E+00 0.  1.
          5    1    1    2  501    0  0.46541173550E+00  0.60126580333E-01 -0.18182769235E+00  0.47268683712E+01  0.47000000000E+01 0.  1.
         -5    1    1    2    0  502 -0.46541173550E+00 -0.60126580333E-01  0.47471586191E+02  0.47705992483E+02  0.47000000000E+01 0.  1.
<mgrwt>
<rscale>  2 0.47233699E+01</rscale>
<asrwt>0</asrwt>
<pdfrwt beam="1">  1       21 0.76709700E-02 0.47233699E+01</pdfrwt>
<pdfrwt beam="2">  1       21 0.39562330E-03 0.47233699E+01</pdfrwt>
<totfact> 0.48686564E+08</totfact>
</mgrwt>
</event>
<event>
 4    1  0.3989279E+006  0.7361696E+01  0.7546771E-02  0.2266004E+00
         21   -1    0    0  501  502  0.00000000000E+00  0.00000000000E+00  0.30282973811E+02  0.30282973811E+02  0.00000000000E+00 0. -1.
         21   -1    0    0  502  503 -0.00000000000E+00 -0.00000000000E+00 -0.18051439121E+01  0.18051439121E+01  0.00000000000E+00 0.  1.
          5    1    1    2  501    0 -0.34686472543E+01  0.44802964809E+01  0.12750361304E+02  0.14722984878E+02  0.47000000000E+01 0.  1.
         -5    1    1    2    0  503  0.34686472543E+01 -0.44802964809E+01  0.15727468595E+02  0.17365132845E+02  0.47000000000E+01 0. -1.
<mgrwt>
<rscale>  2 0.73616962E+01</rscale>
<asrwt>0</asrwt>
<pdfrwt beam="1">  1       21 0.46589187E-02 0.73616962E+01</pdfrwt>
<pdfrwt beam="2">  1       21 0.27771447E-03 0.73616962E+01</pdfrwt>
<totfact> 0.24042826E+09</totfact>
</mgrwt>
</event>
<event>
 4    1  0.3989279E+006  0.4919262E+01  0.7546771E-02  0.2581679E+00
         21   -1    0    0  501  502  0.00000000000E+00  0.00000000000E+00  0.19403512802E+02  0.19403512802E+02  0.00000000000E+00 0.  1.
         21   -1    0    0  502  503 -0.00000000000E+00 -0.00000000000E+00 -0.16591389375E+01  0.16591389375E+01  0.00000000000E+00 0.  1.
          5    1    1    2  501    0 -0.13544772627E+01 -0.52395946038E+00  0.14120056840E+02  0.14952429480E+02  0.47000000000E+01 0.  1.
         -5    1    1    2    0  503  0.13544772627E+01  0.52395946038E+00  0.36243170239E+01  0.61102222595E+01  0.47000000000E+01 0.  1.
<mgrwt>
<rscale>  2 0.49192624E+01</rscale>
<asrwt>0</asrwt>
<pdfrwt beam="1">  1       21 0.29851557E-02 0.49192624E+01</pdfrwt>
<pdfrwt beam="2">  1       21 0.25525216E-03 0.49192624E+01</pdfrwt>
<totfact> 0.36279372E+09</totfact>
</mgrwt>
</event>
<event>
 4    1  0.3989279E+006  0.5977323E+01  0.7546771E-02  0.2418384E+00
         21   -1    0    0  503  502  0.00000000000E+00  0.00000000000E+00  0.33704281011E+01  0.33704281011E+01  0.00000000000E+00 0.  1.
         21   -1    0    0  501  503 -0.00000000000E+00 -0.00000000000E+00 -0.10784043924E+02  0.10784043924E+02  0.00000000000E+00 0.  1.
          5    1    1    2  501    0 -0.29709397143E+01  0.21936063934E+01 -0.27836337663E+01  0.65937097859E+01  0.47000000000E+01 0.  1.
         -5    1    1    2    0  502  0.29709397143E+01 -0.21936063934E+01 -0.46299820569E+01  0.75607622395E+01  0.47000000000E+01 0.  1.
<mgrwt>
<rscale>  2 0.59773231E+01</rscale>
<asrwt>0</asrwt>
<pdfrwt beam="1">  1       21 0.51852740E-03 0.59773231E+01</pdfrwt>
<pdfrwt beam="2">  1       21 0.16590837E-02 0.59773231E+01</pdfrwt>
<totfact> 0.38458449E+09</totfact>
</mgrwt>
</event>
<event>
 4    1  0.3989279E+006  0.5385250E+01  0.7546771E-02  0.2503036E+00
         21   -1    0    0  503  502  0.00000000000E+00  0.00000000000E+00  0.20565303884E+03  0.20565303884E+03  0.00000000000E+00 0. -1.
         21   -1    0    0  501  503 -0.00000000000E+00 -0.00000000000E+00 -0.19516239510E+00  0.19516239510E+00  0.00000000000E+00 0.  1.
          5    1    1    2  501    0  0.13221073402E+01  0.22722118723E+01  0.48517223598E+02  0.48815181043E+02  0.47000000000E+01 0.  1.
         -5    1    1    2    0  502 -0.13221073402E+01 -0.22722118723E+01  0.15694065285E+03  0.15703302019E+03  0.47000000000E+01 0. -1.
<mgrwt>
<rscale>  2 0.53852497E+01</rscale>
<asrwt>0</asrwt>
<pdfrwt beam="1">  1       21 0.31638756E-01 0.53852497E+01</pdfrwt>
<pdfrwt beam="2">  1       21 0.30025148E-04 0.53852497E+01</pdfrwt>
<totfact> 0.18667914E+09</totfact>
</mgrwt>
</event>
<event>
 4    1  0.3989279E+006  0.9920342E+01  0.7546771E-02  0.2079550E+00
         21   -1    0    0  501  502  0.00000000000E+00  0.00000000000E+00  0.13456794514E+03  0.13456794514E+03  0.00000000000E+00 0. -1.
         21   -1    0    0  502  503 -0.00000000000E+00 -0.00000000000E+00 -0.81575353384E+00  0.81575353384E+00  0.00000000000E+00 0.  1.
          5    1    1    2  501    0 -0.60200470834E+00 -0.87155481125E+01  0.88652995614E+02  0.89206316032E+02  0.47000000000E+01 0. -1.
         -5    1    1    2    0  503  0.60200470834E+00  0.87155481125E+01  0.45099195996E+02  0.46177382647E+02  0.47000000000E+01 0.  1.
<mgrwt>
<rscale>  2 0.99203422E+01</rscale>
<asrwt>0</asrwt>
<pdfrwt beam="1">  1       21 0.20702743E-01 0.99203422E+01</pdfrwt>
<pdfrwt beam="2">  1       21 0.12550065E-03 0.99203422E+01</pdfrwt>
<totfact> 0.83451133E+08</totfact>
</mgrwt>
</event>
<event>
 4    1  0.3989279E+006  0.9096013E+01  0.7546771E-02  0.2130407E+00
         21   -1    0    0  503  502  0.00000000000E+00  0.00000000000E+00  0.67495014757E+02  0.67495014757E+02  0.00000000000E+00 0.  1.
         21   -1    0    0  501  503 -0.00000000000E+00 -0.00000000000E+00 -0.12406103676E+01  0.12406103676E+01  0.00000000000E+00 0.  1.
          5    1    1    2  501    0 -0.26779122521E+00 -0.77830421715E+01  0.29376027368E+02  0.30752047761E+02  0.47000000000E+01 0.  1.
         -5    1    1    2    0  502  0.26779122521E+00  0.77830421715E+01  0.36878377021E+02  0.37983577363E+02  0.47000000000E+01 0.  1.
<mgrwt>
<rscale>  2 0.90960133E+01</rscale>
<asrwt>0</asrwt>
<pdfrwt beam="1">  1       21 0.10383846E-01 0.90960133E+01</pdfrwt>
<pdfrwt beam="2">  1       21 0.19086319E-03 0.90960133E+01</pdfrwt>
<totfact> 0.13627438E+09</totfact>
</mgrwt>
</event>
<event>
 4    1  0.3989279E+006  0.1250068E+02  0.7546771E-02  0.1955545E+00
         21   -1    0    0  501  502  0.00000000000E+00  0.00000000000E+00  0.37097702023E+03  0.37097702023E+03  0.00000000000E+00 0.  1.
         21   -1    0    0  502  503 -0.00000000000E+00 -0.00000000000E+00 -0.64081762427E+00  0.64081762427E+00  0.00000000000E+00 0. -1.
          5    1    1    2  501    0 -0.11498279795E+02  0.14023702687E+01  0.29393634491E+03  0.29420204272E+03  0.47000000000E+01 0. -1.
         -5    1    1    2    0  503  0.11498279795E+02 -0.14023702687E+01  0.76399857698E+02  0.77415795139E+02  0.47000000000E+01 0. -1.
<mgrwt>
<rscale>  2 0.12500683E+02</rscale>
<asrwt>0</asrwt>
<pdfrwt beam="1">  1       21 0.57073216E-01 0.12500683E+02</pdfrwt>
<pdfrwt beam="2">  1       21 0.98587623E-04 0.12500683E+02</pdfrwt>
<totfact> 0.21198888E+08</totfact>
</mgrwt>
</event>
<event>
 4    1  0.3989279E+006  0.8290940E+01  0.7546771E-02  0.2187675E+00
         21   -1    0    0  501  502  0.00000000000E+00  0.00000000000E+00  0.20338706411E+02  0.20338706411E+02  0.00000000000E+00 0. -1.
         21   -1    0    0  502  503 -0.00000000000E+00 -0.00000000000E+00 -0.42135492044E+01  0.42135492044E+01  0.00000000000E+00 0.  1.
          5    1    1    2  501    0 -0.45849995891E+01 -0.50623582847E+01  0.13523535508E+02  0.15862714310E+02  0.47000000000E+01 0. -1.
         -5    1    1    2    0  503  0.45849995891E+01  0.50623582847E+01  0.26016216979E+01  0.86895413051E+01  0.47000000000E+01 0.  1.
<mgrwt>
<rscale>  2 0.82909404E+01</rscale>
<asrwt>0</asrwt>
<pdfrwt beam="1">  1       21 0.31290317E-02 0.82909404E+01</pdfrwt>
<pdfrwt beam="2">  1       21 0.64823835E-03 0.82909404E+01</pdfrwt>
<totfact> 0.14412117E+09</totfact>
</mgrwt>
</event>
<event>
 4    1  0.3989279E+006  0.5035766E+01  0.7546771E-02  0.2560848E+00
         21   -1    0    0  501  502  0.00000000000E+00  0.00000000000E+00  0.33040436765E+02  0.33040436765E+02  0.00000000000E+00 0.  1.
         21   -1    0    0  502  503 -0.00000000000E+00 -0.00000000000E+00 -0.80649268288E+00  0.80649268288E+00  0.00000000000E+00 0. -1.
          5    1    1    2  501    0 -0.27799303854E+00  0.17865206148E+01  0.19837572673E+02  0.20466759039E+02  0.47000000000E+01 0. -1.
         -5    1    1    2    0  503  0.27799303854E+00 -0.17865206148E+01  0.12396371409E+02  0.13380170408E+02  0.47000000000E+01 0.  1.
<mgrwt>
<rscale>  2 0.50357657E+01</rscale>
<asrwt>0</asrwt>
<pdfrwt beam="1">  1       21 0.50831431E-02 0.50357657E+01</pdfrwt>
<pdfrwt beam="2">  1       21 0.12407582E-03 0.50357657E+01</pdfrwt>
<totfact> 0.45288035E+09</totfact>
</mgrwt>
</event>
<event>
 4    1  0.3989279E+006  0.7789721E+01  0.7546771E-02  0.2228049E+00
         21   -1    0    0  503  502  0.00000000000E+00  0.00000000000E+00  0.46018114991E+01  0.46018114991E+01  0.00000000000E+00 0. -1.
         21   -1    0    0  501  503 -0.00000000000E+00 -0.00000000000E+00 -0.15357778678E+02  0.15357778678E+02  0.00000000000E+00 0.  1.
          5    1    1    2  501    0  0.58545730261E+01 -0.20769525912E+01 -0.91308172650E+01  0.12002149029E+02  0.47000000000E+01 0.  1.
         -5    1    1    2    0  502 -0.58545730261E+01  0.20769525912E+01 -0.16251499137E+01  0.79574411481E+01  0.47000000000E+01 0. -1.
<mgrwt>
<rscale>  2 0.77897213E+01</rscale>
<asrwt>0</asrwt>
<pdfrwt beam="1">  1       21 0.70797099E-03 0.77897213E+01</pdfrwt>
<pdfrwt beam="2">  1       21 0.23627352E-02 0.77897213E+01</pdfrwt>
<totfact> 0.18438158E+09</totfact>
</mgrwt>
</event>
<event>
 4    1  0.3989279E+006  0.8249421E+01  0.7546771E-02  0.2190869E+00
         21   -1    0    0  501  502  0.00000000000E+00  0.00000000000E+00  0.75651420729E+00  0.75651420729E+00  0.00000000000E+00 0. -1.
         21   -1    0    0  502  503 -0.00000000000E+00 -0.00000000000E+00 -0.10107134210E+03  0.10107134210E+03  0.00000000000E+00 0. -1.
          5    1    1    2  501    0 -0.42539027938E+01 -0.52789451271E+01 -0.33273035617E+02  0.34280429545E+02  0.47000000000E+01 0. -1.
         -5    1    1    2    0  503  0.42539027938E+01  0.52789451271E+01 -0.67041792271E+02  0.67547426758E+02  0.47000000000E+01 0. -1.
<mgrwt>
<rscale>  2 0.82494212E+01</rscale>
<asrwt>0</asrwt>
<pdfrwt beam="1">  1       21 0.11638679E-03 0.82494212E+01</pdfrwt>
<pdfrwt beam="2">  1       21 0.15549439E-01 0.82494212E+01</pdfrwt>
<totfact> 0.13294903E+09</totfact>
</mgrwt>
</event>
<event>
 4    1  0.3989279E+006  0.4734207E+01  0.7546771E-02  0.2616581E+00
         21   -1    0    0  501  502  0.00000000000E+00  0.00000000000E+00  0.58048883190E+02  0.58048883190E+02  0.00000000000E+00 0.  1.
         21   -1    0    0  502  503 -0.00000000000E+00 -0.00000000000E+00 -0.11229256096E+01  0.11229256096E+01  0.00000000000E+00 0.  1.
          5    1    1    2  501    0 -0.30544955987E+00 -0.47897129072E+00  0.52428755778E+02  0.52642066310E+02  0.47000000000E+01 0.  1.
         -5    1    1    2    0  503  0.30544955987E+00  0.47897129072E+00  0.44972018021E+01  0.65297424895E+01  0.47000000000E+01 0.  1.
<mgrwt>
<rscale>  2 0.47342067E+01</rscale>
<asrwt>0</asrwt>
<pdfrwt beam="1">  1       21 0.89305951E-02 0.47342067E+01</pdfrwt>
<pdfrwt beam="2">  1       21 0.17275783E-03 0.47342067E+01</pdfrwt>
<totfact> 0.11891426E+09</totfact>
</mgrwt>
</event>
<event>
 4    1  0.3989279E+006  0.5178844E+01  0.7546771E-02  0.2536373E+00
         21   -1    0    0  503  502  0.00000000000E+00  0.00000000000E+00  0.21583969898E+03  0.21583969898E+03  0.00000000000E+00 0. -1.
         21   -1    0    0  501  503 -0.00000000000E+00 -0.00000000000E+00 -0.22563341355E+00  0.22563341355E+00  0.00000000000E+00 0. -1.
          5    1    1    2  501    0 -0.14827486769E+01 -0.15911871068E+01  0.35394515373E+02  0.35771387149E+02  0.47000000000E+01 0. -1.
         -5    1    1    2    0  502  0.14827486769E+01  0.15911871068E+01  0.18021955019E+03  0.18029394524E+03  0.47000000000E+01 0. -1.
<mgrwt>
<rscale>  2 0.51788435E+01</rscale>
<asrwt>0</asrwt>
<pdfrwt beam="1">  1       21 0.33205942E-01 0.51788435E+01</pdfrwt>
<pdfrwt beam="2">  1       21 0.34713006E-04 0.51788435E+01</pdfrwt>
<totfact> 0.13724953E+09</totfact>
</mgrwt>
</event>
<event>
 4    1  0.3989279E+006  0.1195911E+02  0.7546771E-02  0.1978100E+00
         21   -1    0    0  501  502  0.00000000000E+00  0.00000000000E+00  0.30064979847E+02  0.30064979847E+02  0.00000000000E+00 0. -1.
         21   -1    0    0  502  503 -0.00000000000E+00 -0.00000000000E+00 -0.63177933878E+01  0.63177933878E+01  0.00000000000E+00 0. -1.
          5    1    1    2  501    0  0.92844789809E+01 -0.58931078418E+01  0.20915300257E+02  0.24092946164E+02  0.47000000000E+01 0. -1.
         -5    1    1    2    0  503 -0.92844789809E+01  0.58931078418E+01  0.28318862016E+01  0.12289827071E+02  0.47000000000E+01 0. -1.
<mgrwt>
<rscale>  2 0.11959108E+02</rscale>
<asrwt>0</asrwt>
<pdfrwt beam="1">  1       21 0.46253814E-02 0.11959108E+02</pdfrwt>
<pdfrwt beam="2">  1       21 0.97196823E-03 0.11959108E+02</pdfrwt>
<totfact> 0.55039455E+08</totfact>
</mgrwt>
</event>
<event>
 4    1  0.3989279E+006  0.6047411E+01  0.7546771E-02  0.2409294E+00
         21   -1    0    0  503  502  0.00000000000E+00  0.00000000000E+00  0.53405027328E+00  0.53405027328E+00  0.00000000000E+00 0. -1.
         21   -1    0    0  501  503 -0.00000000000E+00 -0.00000000000E+00 -0.75718060106E+02  0.75718060106E+02  0.00000000000E+00 0. -1.
          5    1    1    2  501    0  0.34676059907E+01 -0.15674477856E+01 -0.49380700148E+02  0.49749620410E+02  0.47000000000E+01 0. -1.
         -5    1    1    2    0  502 -0.34676059907E+01  0.15674477856E+01 -0.25803309685E+02  0.26502489969E+02  0.47000000000E+01 0. -1.
<mgrwt>
<rscale>  2 0.60474113E+01</rscale>
<asrwt>0</asrwt>
<pdfrwt beam="1">  1       21 0.82161572E-04 0.60474113E+01</pdfrwt>
<pdfrwt beam="2">  1       21 0.11648934E-01 0.60474113E+01</pdfrwt>
<totfact> 0.26782414E+09</totfact>
</mgrwt>
</event>
<event>
 4    1  0.3989279E+006  0.5397630E+01  0.7546771E-02  0.2501106E+00
         21   -1    0    0  503  502  0.00000000000E+00  0.00000000000E+00  0.82043680460E+01  0.82043680460E+01  0.00000000000E+00 0. -1.
         21   -1    0    0  501  503 -0.00000000000E+00 -0.00000000000E+00 -0.43173172340E+01  0.43173172340E+01  0.00000000000E+00 0. -1.
          5    1    1    2  501    0  0.42788427023E+00  0.26194123390E+01 -0.69405736841E+00  0.54420696046E+01  0.47000000000E+01 0. -1.
         -5    1    1    2    0  502 -0.42788427023E+00 -0.26194123390E+01  0.45811081805E+01  0.70796156754E+01  0.47000000000E+01 0. -1.
<mgrwt>
<rscale>  2 0.53976297E+01</rscale>
<asrwt>0</asrwt>
<pdfrwt beam="1">  1       21 0.12622105E-02 0.53976297E+01</pdfrwt>
<pdfrwt beam="2">  1       21 0.66420265E-03 0.53976297E+01</pdfrwt>
<totfact> 0.36541308E+09</totfact>
</mgrwt>
</event>
<event>
 4    1  0.3989279E+006  0.5155146E+01  0.7546771E-02  0.2540346E+00
         21   -1    0    0  503  502  0.00000000000E+00  0.00000000000E+00  0.18288984716E+03  0.18288984716E+03  0.00000000000E+00 0. -1.
         21   -1    0    0  501  503 -0.00000000000E+00 -0.00000000000E+00 -0.63159572935E+00  0.63159572935E+00  0.00000000000E+00 0. -1.
          5    1    1    2  501    0  0.20548096897E+01  0.51311419617E+00  0.10612889608E+02  0.11798684455E+02  0.47000000000E+01 0. -1.
         -5    1    1    2    0  502 -0.20548096897E+01 -0.51311419617E+00  0.17164536182E+03  0.17172275844E+03  0.47000000000E+01 0. -1.
<mgrwt>
<rscale>  2 0.51551459E+01</rscale>
<asrwt>0</asrwt>
<pdfrwt beam="1">  1       21 0.28136857E-01 0.51551459E+01</pdfrwt>
<pdfrwt beam="2">  1       21 0.97168719E-04 0.51551459E+01</pdfrwt>
<totfact> 0.45941680E+08</totfact>
</mgrwt>
</event>
<event>
 4    1  0.3989279E+006  0.7699930E+01  0.7546771E-02  0.2235727E+00
         21   -1    0    0  503  502  0.00000000000E+00  0.00000000000E+00  0.23532542675E+01  0.23532542675E+01  0.00000000000E+00 0.  1.
         21   -1    0    0  501  503 -0.00000000000E+00 -0.00000000000E+00 -0.37236946767E+02  0.37236946767E+02  0.00000000000E+00 0. -1.
          5    1    1    2  501    0  0.60651284170E+01 -0.64275471869E+00 -0.28699015180E+02  0.29714009973E+02  0.47000000000E+01 0. -1.
         -5    1    1    2    0  502 -0.60651284170E+01  0.64275471869E+00 -0.61846773188E+01  0.98761910614E+01  0.47000000000E+01 0.  1.
<mgrwt>
<rscale>  2 0.76999296E+01</rscale>
<asrwt>0</asrwt>
<pdfrwt beam="1">  1       21 0.36203915E-03 0.76999296E+01</pdfrwt>
<pdfrwt beam="2">  1       21 0.57287605E-02 0.76999296E+01</pdfrwt>
<totfact> 0.12573624E+09</totfact>
</mgrwt>
</event>
<event>
 4    1  0.3989279E+006  0.6138975E+01  0.7546771E-02  0.2397679E+00
         21   -1    0    0  503  502  0.00000000000E+00  0.00000000000E+00  0.10018622177E+03  0.10018622177E+03  0.00000000000E+00 0.  1.
         21   -1    0    0  501  503 -0.00000000000E+00 -0.00000000000E+00 -0.37782921579E+00  0.37782921579E+00  0.00000000000E+00 0. -1.
          5    1    1    2  501    0 -0.12552557819E+01  0.37445089195E+01  0.46571738545E+02  0.46974608516E+02  0.47000000000E+01 0.  1.
         -5    1    1    2    0  502  0.12552557819E+01 -0.37445089195E+01  0.53236654007E+02  0.53589442467E+02  0.47000000000E+01 0. -1.
<mgrwt>
<rscale>  2 0.61389750E+01</rscale>
<asrwt>0</asrwt>
<pdfrwt beam="1">  1       21 0.15413244E-01 0.61389750E+01</pdfrwt>
<pdfrwt beam="2">  1       21 0.58127651E-04 0.61389750E+01</pdfrwt>
<totfact> 0.27810905E+09</totfact>
</mgrwt>
</event>
<event>
 4    1  0.3989279E+006  0.5714619E+01  0.7546771E-02  0.2454115E+00
         21   -1    0    0  503  502  0.00000000000E+00  0.00000000000E+00  0.93174572992E+03  0.93174572992E+03  0.00000000000E+00 0.  1.
         21   -1    0    0  501  503 -0.00000000000E+00 -0.00000000000E+00 -0.85700879222E-01  0.85700879222E-01  0.00000000000E+00 0. -1.
          5    1    1    2  501    0  0.13728105719E+01 -0.29465684619E+01  0.10764125168E+03  0.10779283807E+03  0.47000000000E+01 0. -1.
         -5    1    1    2    0  502 -0.13728105719E+01  0.29465684619E+01  0.82401877736E+03  0.82403859273E+03  0.47000000000E+01 0.  1.
<mgrwt>
<rscale>  2 0.57146194E+01</rscale>
<asrwt>0</asrwt>
<pdfrwt beam="1">  1       21 0.14333738E+00 0.57146194E+01</pdfrwt>
<pdfrwt beam="2">  1       21 0.13185497E-04 0.57146194E+01</pdfrwt>
<totfact> 0.33574300E+08</totfact>
</mgrwt>
</event>
<event>
 4    1  0.3989279E+006  0.6321518E+01  0.7546771E-02  0.2375366E+00
         21   -1    0    0  501  502  0.00000000000E+00  0.00000000000E+00  0.45313309373E+00  0.45313309373E+00  0.00000000000E+00 0. -1.
         21   -1    0    0  502  503 -0.00000000000E+00 -0.00000000000E+00 -0.17125730771E+03  0.17125730771E+03  0.00000000000E+00 0. -1.
          5    1    1    2  501    0  0.15216551959E+00  0.42247402723E+01 -0.25607963803E+02  0.26376682787E+02  0.47000000000E+01 0. -1.
         -5    1    1    2    0  503 -0.15216551959E+00 -0.42247402723E+01 -0.14519621081E+03  0.14533375802E+03  0.47000000000E+01 0. -1.
<mgrwt>
<rscale>  2 0.63215176E+01</rscale>
<asrwt>0</asrwt>
<pdfrwt beam="1">  1       21 0.69712682E-04 0.63215176E+01</pdfrwt>
<pdfrwt beam="2">  1       21 0.26347316E-01 0.63215176E+01</pdfrwt>
<totfact> 0.93447875E+08</totfact>
</mgrwt>
</event>
<event>
 4    1  0.3989279E+006  0.5339808E+01  0.7546771E-02  0.2510186E+00
         21   -1    0    0  503  502  0.00000000000E+00  0.00000000000E+00  0.34813522706E+02  0.34813522706E+02  0.00000000000E+00 0.  1.
         21   -1    0    0  501  503 -0.00000000000E+00 -0.00000000000E+00 -0.82725450340E+00  0.82725450340E+00  0.00000000000E+00 0.  1.
          5    1    1    2  501    0  0.44029398865E+00 -0.24959358112E+01  0.18769262040E+02  0.19514065489E+02  0.47000000000E+01 0. -1.
         -5    1    1    2    0  502 -0.44029398865E+00  0.24959358112E+01  0.15217006162E+02  0.16126711720E+02  0.47000000000E+01 0. -1.
<mgrwt>
<rscale>  2 0.53398085E+01</rscale>
<asrwt>0</asrwt>
<pdfrwt beam="1">  1       21 0.53559254E-02 0.53398085E+01</pdfrwt>
<pdfrwt beam="2">  1       21 0.12726995E-03 0.53398085E+01</pdfrwt>
<totfact> 0.43022534E+09</totfact>
</mgrwt>
</event>
<event>
 4    1  0.3989279E+006  0.6459815E+01  0.7546771E-02  0.2359162E+00
         21   -1    0    0  501  502  0.00000000000E+00  0.00000000000E+00  0.42936739725E+01  0.42936739725E+01  0.00000000000E+00 0. -1.
         21   -1    0    0  502  503 -0.00000000000E+00 -0.00000000000E+00 -0.10303937547E+02  0.10303937547E+02  0.00000000000E+00 0. -1.
          5    1    1    2  501    0  0.44315879555E+01 -0.15222812268E-01 -0.12657593555E+01  0.65826552612E+01  0.47000000000E+01 0. -1.
         -5    1    1    2    0  503 -0.44315879555E+01  0.15222812268E-01 -0.47445042192E+01  0.80149562586E+01  0.47000000000E+01 0. -1.
<mgrwt>
<rscale>  2 0.64598145E+01</rscale>
<asrwt>0</asrwt>
<pdfrwt beam="1">  1       21 0.66056522E-03 0.64598145E+01</pdfrwt>
<pdfrwt beam="2">  1       21 0.15852212E-02 0.64598145E+01</pdfrwt>
<totfact> 0.31343499E+09</totfact>
</mgrwt>
</event>
<event>
 4    1  0.3989279E+006  0.6170935E+01  0.7546771E-02  0.2393693E+00
         21   -1    0    0  501  502  0.00000000000E+00  0.00000000000E+00  0.10143569690E+02  0.10143569690E+02  0.00000000000E+00 0. -1.
         21   -1    0    0  502  503 -0.00000000000E+00 -0.00000000000E+00 -0.13107757565E+02  0.13107757565E+02  0.00000000000E+00 0. -1.
          5    1    1    2  501    0  0.39017302606E+01 -0.87574784743E+00  0.83386239860E+01  0.10373672604E+02  0.47000000000E+01 0. -1.
         -5    1    1    2    0  503 -0.39017302606E+01  0.87574784743E+00 -0.11302811862E+02  0.12877654651E+02  0.47000000000E+01 0. -1.
<mgrwt>
<rscale>  2 0.61709346E+01</rscale>
<asrwt>0</asrwt>
<pdfrwt beam="1">  1       21 0.15605492E-02 0.61709346E+01</pdfrwt>
<pdfrwt beam="2">  1       21 0.20165781E-02 0.61709346E+01</pdfrwt>
<totfact> 0.63231243E+08</totfact>
</mgrwt>
</event>
<event>
 4    1  0.3989279E+006  0.1381953E+02  0.7546771E-02  0.1906384E+00
         21   -1    0    0  501  502  0.00000000000E+00  0.00000000000E+00  0.65374455291E+01  0.65374455291E+01  0.00000000000E+00 0.  1.
         21   -1    0    0  502  503 -0.00000000000E+00 -0.00000000000E+00 -0.10643066973E+03  0.10643066973E+03  0.00000000000E+00 0. -1.
          5    1    1    2  501    0  0.53770874520E+01 -0.11831163284E+02 -0.98058274505E+02  0.99027292667E+02  0.47000000000E+01 0. -1.
         -5    1    1    2    0  503 -0.53770874520E+01  0.11831163284E+02 -0.18349496948E+01  0.13940822591E+02  0.47000000000E+01 0.  1.
<mgrwt>
<rscale>  2 0.13819533E+02</rscale>
<asrwt>0</asrwt>
<pdfrwt beam="1">  1       21 0.10057610E-02 0.13819533E+02</pdfrwt>
<pdfrwt beam="2">  1       21 0.16373947E-01 0.13819533E+02</pdfrwt>
<totfact> 0.73685898E+07</totfact>
</mgrwt>
</event>
<event>
 4    1  0.3989279E+006  0.5848753E+01  0.7546771E-02  0.2435534E+00
         21   -1    0    0  503  502  0.00000000000E+00  0.00000000000E+00  0.17815387917E+00  0.17815387917E+00  0.00000000000E+00 0. -1.
         21   -1    0    0  501  503 -0.00000000000E+00 -0.00000000000E+00 -0.22269647250E+04  0.22269647250E+04  0.00000000000E+00 0. -1.
          5    1    1    2  501    0  0.59378344171E+00  0.34300622869E+01 -0.21778755824E+04  0.21778834358E+04  0.47000000000E+01 0. -1.
         -5    1    1    2    0  502 -0.59378344171E+00 -0.34300622869E+01 -0.48910988758E+02  0.49259443028E+02  0.47000000000E+01 0. -1.
<mgrwt>
<rscale>  2 0.58487525E+01</rscale>
<asrwt>0</asrwt>
<pdfrwt beam="1">  1       21 0.27407491E-04 0.58487525E+01</pdfrwt>
<pdfrwt beam="2">  1       21 0.34261993E+00 0.58487525E+01</pdfrwt>
<totfact> 0.16350532E+07</totfact>
</mgrwt>
</event>
<event>
 4    1  0.3989279E+006  0.4702801E+01  0.7546771E-02  0.2622741E+00
         21   -1    0    0  501  502  0.00000000000E+00  0.00000000000E+00  0.52992195790E+03  0.52992195790E+03  0.00000000000E+00 0. -1.
         21   -1    0    0  502  503 -0.00000000000E+00 -0.00000000000E+00 -0.35549228226E+00  0.35549228226E+00  0.00000000000E+00 0. -1.
          5    1    1    2  501    0  0.85331419663E-01  0.13803917144E+00  0.51387244896E+03  0.51389396780E+03  0.47000000000E+01 0. -1.
         -5    1    1    2    0  503 -0.85331419663E-01 -0.13803917144E+00  0.15694016654E+02  0.16383482383E+02  0.47000000000E+01 0. -1.
<mgrwt>
<rscale>  2 0.47028009E+01</rscale>
<asrwt>0</asrwt>
<pdfrwt beam="1">  1       21 0.81525823E-01 0.47028009E+01</pdfrwt>
<pdfrwt beam="2">  1       21 0.54691545E-04 0.47028009E+01</pdfrwt>
<totfact> 0.13932592E+08</totfact>
</mgrwt>
</event>
<event>
 4    1  0.3989279E+006  0.8655733E+01  0.7546771E-02  0.2160673E+00
         21   -1    0    0  503  502  0.00000000000E+00  0.00000000000E+00  0.41815317228E+01  0.41815317228E+01  0.00000000000E+00 0.  1.
         21   -1    0    0  501  503 -0.00000000000E+00 -0.00000000000E+00 -0.40157467160E+02  0.40157467160E+02  0.00000000000E+00 0.  1.
          5    1    1    2  501    0  0.69010359539E+01  0.22819753314E+01 -0.34486369307E+02  0.35556031508E+02  0.47000000000E+01 0.  1.
         -5    1    1    2    0  502 -0.69010359539E+01 -0.22819753314E+01 -0.14895661307E+01  0.87829673749E+01  0.47000000000E+01 0.  1.
<mgrwt>
<rscale>  2 0.86557327E+01</rscale>
<asrwt>0</asrwt>
<pdfrwt beam="1">  1       21 0.64331257E-03 0.86557327E+01</pdfrwt>
<pdfrwt beam="2">  1       21 0.61780719E-02 0.86557327E+01</pdfrwt>
<totfact> 0.53651574E+08</totfact>
</mgrwt>
</event>
<event>
 4    1  0.3989279E+006  0.5114067E+01  0.7546771E-02  0.2547308E+00
         21   -1    0    0  501  502  0.00000000000E+00  0.00000000000E+00  0.22358848219E+01  0.22358848219E+01  0.00000000000E+00 0.  1.
         21   -1    0    0  502  503 -0.00000000000E+00 -0.00000000000E+00 -0.17331297006E+02  0.17331297006E+02  0.00000000000E+00 0. -1.
          5    1    1    2  501    0 -0.19982400882E+01 -0.26593717783E+00 -0.19695162461E+01  0.54802080504E+01  0.47000000000E+01 0.  1.
         -5    1    1    2    0  503  0.19982400882E+01  0.26593717783E+00 -0.13125895938E+02  0.14086973777E+02  0.47000000000E+01 0. -1.
<mgrwt>
<rscale>  2 0.51140675E+01</rscale>
<asrwt>0</asrwt>
<pdfrwt beam="1">  1       21 0.34398229E-03 0.51140675E+01</pdfrwt>
<pdfrwt beam="2">  1       21 0.26663533E-02 0.51140675E+01</pdfrwt>
<totfact> 0.29601444E+09</totfact>
</mgrwt>
</event>
<event>
 4    1  0.3989279E+006  0.9329980E+01  0.7546771E-02  0.2115253E+00
         21   -1    0    0  501  502  0.00000000000E+00  0.00000000000E+00  0.95701551221E+00  0.95701551221E+00  0.00000000000E+00 0.  1.
         21   -1    0    0  502  503 -0.00000000000E+00 -0.00000000000E+00 -0.18964498851E+03  0.18964498851E+03  0.00000000000E+00 0. -1.
          5    1    1    2  501    0  0.70312010021E+01  0.39396361019E+01 -0.25596625324E+02  0.27244003893E+02  0.47000000000E+01 0.  1.
         -5    1    1    2    0  503 -0.70312010021E+01 -0.39396361019E+01 -0.16309134767E+03  0.16335800012E+03  0.47000000000E+01 0. -1.
<mgrwt>
<rscale>  2 0.93299796E+01</rscale>
<asrwt>0</asrwt>
<pdfrwt beam="1">  1       21 0.14723301E-03 0.93299796E+01</pdfrwt>
<pdfrwt beam="2">  1       21 0.29176182E-01 0.93299796E+01</pdfrwt>
<totfact> 0.36105178E+08</totfact>
</mgrwt>
</event>
<event>
 4    1  0.3989279E+006  0.5583163E+01  0.7546771E-02  0.2473053E+00
         21   -1    0    0  501  502  0.00000000000E+00  0.00000000000E+00  0.62860552605E+02  0.62860552605E+02  0.00000000000E+00 0.  1.
         21   -1    0    0  502  503 -0.00000000000E+00 -0.00000000000E+00 -0.12185948167E+01  0.12185948167E+01  0.00000000000E+00 0. -1.
          5    1    1    2  501    0 -0.55628678480E+00  0.29617989682E+01  0.55494921520E+02  0.55775066317E+02  0.47000000000E+01 0.  1.
         -5    1    1    2    0  503  0.55628678480E+00 -0.29617989682E+01  0.61470362681E+01  0.83040811048E+01  0.47000000000E+01 0. -1.
<mgrwt>
<rscale>  2 0.55831629E+01</rscale>
<asrwt>0</asrwt>
<pdfrwt beam="1">  1       21 0.96708517E-02 0.55831629E+01</pdfrwt>
<pdfrwt beam="2">  1       21 0.18747617E-03 0.55831629E+01</pdfrwt>
<totfact> 0.10980718E+09</totfact>
</mgrwt>
</event>
<event>
 4    1  0.3989279E+006  0.5451928E+01  0.7546771E-02  0.2492728E+00
         21   -1    0    0  501  502  0.00000000000E+00  0.00000000000E+00  0.32040676865E+01  0.32040676865E+01  0.00000000000E+00 0.  1.
         21   -1    0    0  502  503 -0.00000000000E+00 -0.00000000000E+00 -0.97067836154E+01  0.97067836154E+01  0.00000000000E+00 0.  1.
          5    1    1    2  501    0  0.60423724003E+00 -0.26960010010E+01 -0.18927048028E+01  0.57711225520E+01  0.47000000000E+01 0.  1.
         -5    1    1    2    0  503 -0.60423724003E+00  0.26960010010E+01 -0.46100111261E+01  0.71397287499E+01  0.47000000000E+01 0.  1.
<mgrwt>
<rscale>  2 0.54519285E+01</rscale>
<asrwt>0</asrwt>
<pdfrwt beam="1">  1       21 0.49293349E-03 0.54519285E+01</pdfrwt>
<pdfrwt beam="2">  1       21 0.14933513E-02 0.54519285E+01</pdfrwt>
<totfact> 0.43975871E+09</totfact>
</mgrwt>
</event>
<event>
 4    1  0.3989279E+006  0.7008592E+01  0.7546771E-02  0.2300128E+00
         21   -1    0    0  503  502  0.00000000000E+00  0.00000000000E+00  0.59621808229E+02  0.59621808229E+02  0.00000000000E+00 0.  1.
         21   -1    0    0  501  503 -0.00000000000E+00 -0.00000000000E+00 -0.88388591339E+00  0.88388591339E+00  0.00000000000E+00 0. -1.
          5    1    1    2  501    0  0.50610833424E+01  0.11898753847E+01  0.21485506134E+02  0.22599719951E+02  0.47000000000E+01 0. -1.
         -5    1    1    2    0  502 -0.50610833424E+01 -0.11898753847E+01  0.37252416181E+02  0.37905974191E+02  0.47000000000E+01 0.  1.
<mgrwt>
<rscale>  2 0.70085924E+01</rscale>
<asrwt>0</asrwt>
<pdfrwt beam="1">  1       21 0.91725828E-02 0.70085924E+01</pdfrwt>
<pdfrwt beam="2">  1       21 0.13598249E-03 0.70085924E+01</pdfrwt>
<totfact> 0.22074047E+09</totfact>
</mgrwt>
</event>
<event>
 4    1  0.3989279E+006  0.5977823E+01  0.7546771E-02  0.2418319E+00
         21   -1    0    0  503  502  0.00000000000E+00  0.00000000000E+00  0.34891455289E+00  0.34891455289E+00  0.00000000000E+00 0.  1.
         21   -1    0    0  501  503 -0.00000000000E+00 -0.00000000000E+00 -0.11845582000E+03  0.11845582000E+03  0.00000000000E+00 0.  1.
          5    1    1    2  501    0 -0.33659602193E+01  0.15214075335E+01 -0.80912325891E+02  0.81132846925E+02  0.47000000000E+01 0.  1.
         -5    1    1    2    0  502  0.33659602193E+01 -0.15214075335E+01 -0.37194579552E+02  0.37671887624E+02  0.47000000000E+01 0.  1.
<mgrwt>
<rscale>  2 0.59778231E+01</rscale>
<asrwt>0</asrwt>
<pdfrwt beam="1">  1       21 0.53679244E-04 0.59778231E+01</pdfrwt>
<pdfrwt beam="2">  1       21 0.18223944E-01 0.59778231E+01</pdfrwt>
<totfact> 0.23179824E+09</totfact>
</mgrwt>
</event>
<event>
 4    1  0.3989279E+006  0.6019774E+01  0.7546771E-02  0.2412857E+00
         21   -1    0    0  501  502  0.00000000000E+00  0.00000000000E+00  0.15072562978E+03  0.15072562978E+03  0.00000000000E+00 0.  1.
         21   -1    0    0  502  503 -0.00000000000E+00 -0.00000000000E+00 -0.74908695046E+00  0.74908695046E+00  0.00000000000E+00 0. -1.
          5    1    1    2  501    0 -0.25536830978E+01 -0.27615909993E+01  0.13739913001E+03  0.13753093692E+03  0.47000000000E+01 0.  1.
         -5    1    1    2    0  503  0.25536830978E+01  0.27615909993E+01  0.12577412821E+02  0.13943779813E+02  0.47000000000E+01 0. -1.
<mgrwt>
<rscale>  2 0.60197743E+01</rscale>
<asrwt>0</asrwt>
<pdfrwt beam="1">  1       21 0.23188534E-01 0.60197743E+01</pdfrwt>
<pdfrwt beam="2">  1       21 0.11524427E-03 0.60197743E+01</pdfrwt>
<totfact> 0.56631833E+08</totfact>
</mgrwt>
</event>
<event>
 4    1  0.3989279E+006  0.5938300E+01  0.7546771E-02  0.2423524E+00
         21   -1    0    0  503  502  0.00000000000E+00  0.00000000000E+00  0.81998782541E+01  0.81998782541E+01  0.00000000000E+00 0. -1.
         21   -1    0    0  501  503 -0.00000000000E+00 -0.00000000000E+00 -0.57369257931E+01  0.57369257931E+01  0.00000000000E+00 0. -1.
          5    1    1    2  501    0  0.70824455147E+00 -0.35597465713E+01 -0.22554143682E+01  0.63521885967E+01  0.47000000000E+01 0. -1.
         -5    1    1    2    0  502 -0.70824455147E+00  0.35597465713E+01  0.47183668292E+01  0.75846154505E+01  0.47000000000E+01 0. -1.
<mgrwt>
<rscale>  2 0.59382999E+01</rscale>
<asrwt>0</asrwt>
<pdfrwt beam="1">  1       21 0.12615197E-02 0.59382999E+01</pdfrwt>
<pdfrwt beam="2">  1       21 0.88260396E-03 0.59382999E+01</pdfrwt>
<totfact> 0.26843590E+09</totfact>
</mgrwt>
</event>
<event>
 4    1  0.3989279E+006  0.4727011E+01  0.7546771E-02  0.2617986E+00
         21   -1    0    0  501  502  0.00000000000E+00  0.00000000000E+00  0.21147900603E+00  0.21147900603E+00  0.00000000000E+00 0. -1.
         21   -1    0    0  502  503 -0.00000000000E+00 -0.00000000000E+00 -0.14214660614E+03  0.14214660614E+03  0.00000000000E+00 0. -1.
          5    1    1    2  501    0 -0.20555821195E+00 -0.46084697910E+00 -0.34904940136E+02  0.35223564272E+02  0.47000000000E+01 0. -1.
         -5    1    1    2    0  503  0.20555821195E+00  0.46084697910E+00 -0.10703018700E+03  0.10713452088E+03  0.47000000000E+01 0. -1.
<mgrwt>
<rscale>  2 0.47270111E+01</rscale>
<asrwt>0</asrwt>
<pdfrwt beam="1">  1       21 0.32535304E-04 0.47270111E+01</pdfrwt>
<pdfrwt beam="2">  1       21 0.21868660E-01 0.47270111E+01</pdfrwt>
<totfact> 0.27237318E+09</totfact>
</mgrwt>
</event>
<event>
 4    1  0.3989279E+006  0.6196147E+01  0.7546771E-02  0.2390573E+00
         21   -1    0    0  501  502  0.00000000000E+00  0.00000000000E+00  0.19600162379E+02  0.19600162379E+02  0.00000000000E+00 0. -1.
         21   -1    0    0  502  503 -0.00000000000E+00 -0.00000000000E+00 -0.29460213293E+01  0.29460213293E+01  0.00000000000E+00 0. -1.
          5    1    1    2  501    0 -0.28538266485E+01 -0.28562059959E+01  0.14852943837E+02  0.16093544664E+02  0.47000000000E+01 0. -1.
         -5    1    1    2    0  503  0.28538266485E+01  0.28562059959E+01  0.18011972123E+01  0.64526390437E+01  0.47000000000E+01 0. -1.
<mgrwt>
<rscale>  2 0.61961471E+01</rscale>
<asrwt>0</asrwt>
<pdfrwt beam="1">  1       21 0.30154095E-02 0.61961471E+01</pdfrwt>
<pdfrwt beam="2">  1       21 0.45323406E-03 0.61961471E+01</pdfrwt>
<totfact> 0.20209854E+09</totfact>
</mgrwt>
</event>
<event>
 4    1  0.3989279E+006  0.5160262E+01  0.7546771E-02  0.2539485E+00
         21   -1    0    0  501  502  0.00000000000E+00  0.00000000000E+00  0.36606441792E+01  0.36606441792E+01  0.00000000000E+00 0.  1.
         21   -1    0    0  502  503 -0.00000000000E+00 -0.00000000000E+00 -0.13616556813E+02  0.13616556813E+02  0.00000000000E+00 0. -1.
          5    1    1    2  501    0  0.18070199794E+01  0.11282656539E+01  0.91773365077E+00  0.52412345536E+01  0.47000000000E+01 0.  1.
         -5    1    1    2    0  503 -0.18070199794E+01 -0.11282656539E+01 -0.10873646285E+02  0.12035966439E+02  0.47000000000E+01 0. -1.
<mgrwt>
<rscale>  2 0.51602621E+01</rscale>
<asrwt>0</asrwt>
<pdfrwt beam="1">  1       21 0.56317603E-03 0.51602621E+01</pdfrwt>
<pdfrwt beam="2">  1       21 0.20948549E-02 0.51602621E+01</pdfrwt>
<totfact> 0.21430105E+09</totfact>
</mgrwt>
</event>
<event>
 4    1  0.3989279E+006  0.6999697E+01  0.7546771E-02  0.2301024E+00
         21   -1    0    0  503  502  0.00000000000E+00  0.00000000000E+00  0.21522479183E+03  0.21522479183E+03  0.00000000000E+00 0. -1.
         21   -1    0    0  501  503 -0.00000000000E+00 -0.00000000000E+00 -0.23791519866E+00  0.23791519866E+00  0.00000000000E+00 0.  1.
          5    1    1    2  501    0  0.63795858981E+00 -0.51476947004E+01  0.85114905809E+02  0.85402242024E+02  0.47000000000E+01 0.  1.
         -5    1    1    2    0  502 -0.63795858981E+00  0.51476947004E+01  0.12987197083E+03  0.13006046501E+03  0.47000000000E+01 0. -1.
<mgrwt>
<rscale>  2 0.69996966E+01</rscale>
<asrwt>0</asrwt>
<pdfrwt beam="1">  1       21 0.33111351E-01 0.69996966E+01</pdfrwt>
<pdfrwt beam="2">  1       21 0.36602511E-04 0.69996966E+01</pdfrwt>
<totfact> 0.16220873E+09</totfact>
</mgrwt>
</event>
<event>
 4    1  0.3989279E+006  0.6011497E+01  0.7546771E-02  0.2413930E+00
         21   -1    0    0  503  502  0.00000000000E+00  0.00000000000E+00  0.78210850492E+03  0.78210850492E+03  0.00000000000E+00 0.  1.
         21   -1    0    0  501  503 -0.00000000000E+00 -0.00000000000E+00 -0.50842409782E-01  0.50842409782E-01  0.00000000000E+00 0.  1.
          5    1    1    2  501    0  0.33547818654E+01 -0.16713872168E+01  0.27293053683E+03  0.27299673264E+03  0.47000000000E+01 0.  1.
         -5    1    1    2    0  502 -0.33547818654E+01  0.16713872168E+01  0.50912712568E+03  0.50916261469E+03  0.47000000000E+01 0.  1.
<mgrwt>
<rscale>  2 0.60114970E+01</rscale>
<asrwt>0</asrwt>
<pdfrwt beam="1">  1       21 0.12031475E+00 0.60114970E+01</pdfrwt>
<pdfrwt beam="2">  1       21 0.78225356E-05 0.60114970E+01</pdfrwt>
<totfact> 0.10069141E+09</totfact>
</mgrwt>
</event>
<event>
 4    1  0.3989279E+006  0.7849219E+01  0.7546771E-02  0.2223039E+00
         21   -1    0    0  503  502  0.00000000000E+00  0.00000000000E+00  0.38450734189E+03  0.38450734189E+03  0.00000000000E+00 0. -1.
         21   -1    0    0  501  503 -0.00000000000E+00 -0.00000000000E+00 -0.16242968435E+00  0.16242968435E+00  0.00000000000E+00 0.  1.
          5    1    1    2  501    0 -0.26612159425E+01 -0.56954514817E+01  0.16979840401E+03  0.16997972891E+03  0.47000000000E+01 0.  1.
         -5    1    1    2    0  502  0.26612159425E+01  0.56954514817E+01  0.21454650820E+03  0.21469004266E+03  0.47000000000E+01 0. -1.
<mgrwt>
<rscale>  2 0.78492189E+01</rscale>
<asrwt>0</asrwt>
<pdfrwt beam="1">  1       21 0.59154247E-01 0.78492189E+01</pdfrwt>
<pdfrwt beam="2">  1       21 0.24989490E-04 0.78492189E+01</pdfrwt>
<totfact> 0.10287206E+09</totfact>
</mgrwt>
</event>
<event>
 4    1  0.3989279E+006  0.1417618E+02  0.7546771E-02  0.1894300E+00
         21   -1    0    0  501  502  0.00000000000E+00  0.00000000000E+00  0.74845457334E+02  0.74845457334E+02  0.00000000000E+00 0. -1.
         21   -1    0    0  502  503 -0.00000000000E+00 -0.00000000000E+00 -0.52422963054E+01  0.52422963054E+01  0.00000000000E+00 0.  1.
          5    1    1    2  501    0  0.98418264505E+01 -0.90560733883E+01  0.62769577698E+02  0.64350477057E+02  0.47000000000E+01 0. -1.
         -5    1    1    2    0  503 -0.98418264505E+01  0.90560733883E+01  0.68335833309E+01  0.15737276583E+02  0.47000000000E+01 0.  1.
<mgrwt>
<rscale>  2 0.14176178E+02</rscale>
<asrwt>0</asrwt>
<pdfrwt beam="1">  1       21 0.11514685E-01 0.14176178E+02</pdfrwt>
<pdfrwt beam="2">  1       21 0.80650718E-03 0.14176178E+02</pdfrwt>
<totfact> 0.18410815E+08</totfact>
</mgrwt>
</event>
<event>
 4    1  0.3989279E+006  0.4975773E+01  0.7546771E-02  0.2571470E+00
         21   -1    0    0  501  502  0.00000000000E+00  0.00000000000E+00  0.61852921738E+02  0.61852921738E+02  0.00000000000E+00 0. -1.
         21   -1    0    0  502  503 -0.00000000000E+00 -0.00000000000E+00 -0.15070196936E+01  0.15070196936E+01  0.00000000000E+00 0. -1.
          5    1    1    2  501    0 -0.10357061314E+00  0.16302101929E+01  0.57321624055E+02  0.57537178385E+02  0.47000000000E+01 0. -1.
         -5    1    1    2    0  503  0.10357061314E+00 -0.16302101929E+01  0.30242779894E+01  0.58227630471E+01  0.47000000000E+01 0. -1.
<mgrwt>
<rscale>  2 0.49757725E+01</rscale>
<asrwt>0</asrwt>
<pdfrwt beam="1">  1       21 0.95158322E-02 0.49757725E+01</pdfrwt>
<pdfrwt beam="2">  1       21 0.23184923E-03 0.49757725E+01</pdfrwt>
<totfact> 0.76311026E+08</totfact>
</mgrwt>
</event>
<event>
 4    1  0.3989279E+006  0.5829072E+01  0.7546771E-02  0.2438215E+00
         21   -1    0    0  503  502  0.00000000000E+00  0.00000000000E+00  0.45947996832E+02  0.45947996832E+02  0.00000000000E+00 0.  1.
         21   -1    0    0  501  503 -0.00000000000E+00 -0.00000000000E+00 -0.43695140037E+01  0.43695140037E+01  0.00000000000E+00 0.  1.
          5    1    1    2  501    0  0.10919032731E+01 -0.32704484530E+01 -0.21419875979E+01  0.62101688150E+01  0.47000000000E+01 0.  1.
         -5    1    1    2    0  502 -0.10919032731E+01  0.32704484530E+01  0.43720470426E+02  0.44107342020E+02  0.47000000000E+01 0.  1.
<mgrwt>
<rscale>  2 0.58290725E+01</rscale>
<asrwt>0</asrwt>
<pdfrwt beam="1">  1       21 0.70689223E-02 0.58290725E+01</pdfrwt>
<pdfrwt beam="2">  1       21 0.67223295E-03 0.58290725E+01</pdfrwt>
<totfact> 0.31554350E+08</totfact>
</mgrwt>
</event>
<event>
 4    1  0.3989279E+006  0.5916516E+01  0.7546771E-02  0.2426417E+00
         21   -1    0    0  501  502  0.00000000000E+00  0.00000000000E+00  0.65480320796E+01  0.65480320796E+01  0.00000000000E+00 0. -1.
         21   -1    0    0  502  503 -0.00000000000E+00 -0.00000000000E+00 -0.53685837072E+01  0.53685837072E+01  0.00000000000E+00 0.  1.
          5    1    1    2  501    0 -0.35491679853E+01 -0.56441350839E+00  0.20246268322E+00  0.59199786431E+01  0.47000000000E+01 0.  1.
         -5    1    1    2    0  503  0.35491679853E+01  0.56441350839E+00  0.97698568916E+00  0.59966371437E+01  0.47000000000E+01 0. -1.
<mgrwt>
<rscale>  2 0.59165155E+01</rscale>
<asrwt>0</asrwt>
<pdfrwt beam="1">  1       21 0.10073895E-02 0.59165155E+01</pdfrwt>
<pdfrwt beam="2">  1       21 0.82593596E-03 0.59165155E+01</pdfrwt>
<totfact> 0.40368844E+09</totfact>
</mgrwt>
</event>
<event>
 4    1  0.3989279E+006  0.6613490E+01  0.7546771E-02  0.2341818E+00
         21   -1    0    0  501  502  0.00000000000E+00  0.00000000000E+00  0.70925416411E+03  0.70925416411E+03  0.00000000000E+00 0.  1.
         21   -1    0    0  502  503 -0.00000000000E+00 -0.00000000000E+00 -0.19890615107E+00  0.19890615107E+00  0.00000000000E+00 0.  1.
          5    1    1    2  501    0  0.46524429255E+01  0.55001745797E-01  0.64917805833E+03  0.64921174486E+03  0.47000000000E+01 0.  1.
         -5    1    1    2    0  503 -0.46524429255E+01 -0.55001745797E-01  0.59877199628E+02  0.60241325398E+02  0.47000000000E+01 0.  1.
<mgrwt>
<rscale>  2 0.66134900E+01</rscale>
<asrwt>0</asrwt>
<pdfrwt beam="1">  1       21 0.10911400E+00 0.66134900E+01</pdfrwt>
<pdfrwt beam="2">  1       21 0.30601514E-04 0.66134900E+01</pdfrwt>
<totfact> 0.21162107E+08</totfact>
</mgrwt>
</event>
<event>
 4    1  0.3989279E+006  0.5649376E+01  0.7546771E-02  0.2463421E+00
         21   -1    0    0  503  502  0.00000000000E+00  0.00000000000E+00  0.16191868733E+00  0.16191868733E+00  0.00000000000E+00 0.  1.
         21   -1    0    0  501  503 -0.00000000000E+00 -0.00000000000E+00 -0.21101252963E+03  0.21101252963E+03  0.00000000000E+00 0.  1.
          5    1    1    2  501    0 -0.43763054403E+00  0.31038563274E+01 -0.78321035209E+02  0.78524518469E+02  0.47000000000E+01 0.  1.
         -5    1    1    2    0  502  0.43763054403E+00 -0.31038563274E+01 -0.13252957573E+03  0.13264992985E+03  0.47000000000E+01 0.  1.
<mgrwt>
<rscale>  2 0.56493756E+01</rscale>
<asrwt>0</asrwt>
<pdfrwt beam="1">  1       21 0.24910486E-04 0.56493756E+01</pdfrwt>
<pdfrwt beam="2">  1       21 0.32463572E-01 0.56493756E+01</pdfrwt>
<totfact> 0.23853529E+09</totfact>
</mgrwt>
</event>
<event>
 4    1  0.3989279E+006  0.6862092E+01  0.7546771E-02  0.2315126E+00
         21   -1    0    0  503  502  0.00000000000E+00  0.00000000000E+00  0.33900157626E+01  0.33900157626E+01  0.00000000000E+00 0. -1.
         21   -1    0    0  501  503 -0.00000000000E+00 -0.00000000000E+00 -0.20819953047E+02  0.20819953047E+02  0.00000000000E+00 0.  1.
          5    1    1    2  501    0  0.12262900711E+00 -0.49983265963E+01 -0.15698585068E+02  0.17132830466E+02  0.47000000000E+01 0.  1.
         -5    1    1    2    0  502 -0.12262900711E+00  0.49983265963E+01 -0.17313522162E+01  0.70771383436E+01  0.47000000000E+01 0. -1.
<mgrwt>
<rscale>  2 0.68620920E+01</rscale>
<asrwt>0</asrwt>
<pdfrwt beam="1">  1       21 0.52154088E-03 0.68620920E+01</pdfrwt>
<pdfrwt beam="2">  1       21 0.32030698E-02 0.68620920E+01</pdfrwt>
<totfact> 0.16512091E+09</totfact>
</mgrwt>
</event>
<event>
 4    1  0.3989279E+006  0.4803108E+01  0.7546771E-02  0.2603314E+00
         21   -1    0    0  501  502  0.00000000000E+00  0.00000000000E+00  0.30720767819E+02  0.30720767819E+02  0.00000000000E+00 0. -1.
         21   -1    0    0  502  503 -0.00000000000E+00 -0.00000000000E+00 -0.24369076981E+01  0.24369076981E+01  0.00000000000E+00 0. -1.
          5    1    1    2  501    0  0.34252779907E+00 -0.92871799948E+00  0.27931716342E+02  0.28341676383E+02  0.47000000000E+01 0. -1.
         -5    1    1    2    0  503 -0.34252779907E+00  0.92871799948E+00  0.35214377915E+00  0.48159991338E+01  0.47000000000E+01 0. -1.
<mgrwt>
<rscale>  2 0.48031076E+01</rscale>
<asrwt>0</asrwt>
<pdfrwt beam="1">  1       21 0.47262717E-02 0.48031076E+01</pdfrwt>
<pdfrwt beam="2">  1       21 0.37490890E-03 0.48031076E+01</pdfrwt>
<totfact> 0.10834668E+09</totfact>
</mgrwt>
</event>
<event>
 4    1  0.3989279E+006  0.6520843E+01  0.7546771E-02  0.2352194E+00
         21   -1    0    0  501  502  0.00000000000E+00  0.00000000000E+00  0.11317379929E+00  0.11317379929E+00  0.00000000000E+00 0. -1.
         21   -1    0    0  502  503 -0.00000000000E+00 -0.00000000000E+00 -0.37800526443E+03  0.37800526443E+03  0.00000000000E+00 0. -1.
          5    1    1    2  501    0  0.31180627528E+00  0.45093428238E+01 -0.17423855005E+03  0.17436052799E+03  0.47000000000E+01 0. -1.
         -5    1    1    2    0  503 -0.31180627528E+00 -0.45093428238E+01 -0.20365354058E+03  0.20375791024E+03  0.47000000000E+01 0. -1.
<mgrwt>
<rscale>  2 0.65208432E+01</rscale>
<asrwt>0</asrwt>
<pdfrwt beam="1">  1       21 0.17411414E-04 0.65208432E+01</pdfrwt>
<pdfrwt beam="2">  1       21 0.58154455E-01 0.65208432E+01</pdfrwt>
<totfact> 0.15293975E+09</totfact>
</mgrwt>
</event>
<event>
 4    1  0.3989279E+006  0.6117173E+01  0.7546771E-02  0.2400418E+00
         21   -1    0    0  501  502  0.00000000000E+00  0.00000000000E+00  0.34415525215E+01  0.34415525215E+01  0.00000000000E+00 0. -1.
         21   -1    0    0  502  503 -0.00000000000E+00 -0.00000000000E+00 -0.11659606381E+02  0.11659606381E+02  0.00000000000E+00 0. -1.
          5    1    1    2  501    0  0.17884857062E+01  0.34829764835E+01 -0.21477783086E+01  0.64832675380E+01  0.47000000000E+01 0. -1.
         -5    1    1    2    0  503 -0.17884857062E+01 -0.34829764835E+01 -0.60702755509E+01  0.86178913645E+01  0.47000000000E+01 0. -1.
<mgrwt>
<rscale>  2 0.61171731E+01</rscale>
<asrwt>0</asrwt>
<pdfrwt beam="1">  1       21 0.52946962E-03 0.61171731E+01</pdfrwt>
<pdfrwt beam="2">  1       21 0.17937856E-02 0.61171731E+01</pdfrwt>
<totfact> 0.34107672E+09</totfact>
</mgrwt>
</event>
<event>
 4    1  0.3989279E+006  0.7059236E+01  0.7546771E-02  0.2295063E+00
         21   -1    0    0  501  502  0.00000000000E+00  0.00000000000E+00  0.92877702969E+02  0.92877702969E+02  0.00000000000E+00 0.  1.
         21   -1    0    0  502  503 -0.00000000000E+00 -0.00000000000E+00 -0.68929306712E+00  0.68929306712E+00  0.00000000000E+00 0. -1.
          5    1    1    2  501    0  0.18374511609E+01 -0.49362522518E+01  0.68117509600E+02  0.68482318354E+02  0.47000000000E+01 0.  1.
         -5    1    1    2    0  503 -0.18374511609E+01  0.49362522518E+01  0.24070900302E+02  0.25084677682E+02  0.47000000000E+01 0. -1.
<mgrwt>
<rscale>  2 0.70592360E+01</rscale>
<asrwt>0</asrwt>
<pdfrwt beam="1">  1       21 0.14288867E-01 0.70592360E+01</pdfrwt>
<pdfrwt beam="2">  1       21 0.10604516E-03 0.70592360E+01</pdfrwt>
<totfact> 0.15541015E+09</totfact>
</mgrwt>
</event>
<event>
 4    1  0.3989279E+006  0.6206538E+01  0.7546771E-02  0.2389293E+00
         21   -1    0    0  503  502  0.00000000000E+00  0.00000000000E+00  0.82488381297E+01  0.82488381297E+01  0.00000000000E+00 0. -1.
         21   -1    0    0  501  503 -0.00000000000E+00 -0.00000000000E+00 -0.46706636737E+01  0.46706636737E+01  0.00000000000E+00 0. -1.
          5    1    1    2  501    0  0.92206426014E+00  0.39472664437E+01  0.17056112799E+01  0.64366314727E+01  0.47000000000E+01 0. -1.
         -5    1    1    2    0  502 -0.92206426014E+00 -0.39472664437E+01  0.18725631762E+01  0.64828703308E+01  0.47000000000E+01 0. -1.
<mgrwt>
<rscale>  2 0.62065381E+01</rscale>
<asrwt>0</asrwt>
<pdfrwt beam="1">  1       21 0.12690520E-02 0.62065381E+01</pdfrwt>
<pdfrwt beam="2">  1       21 0.71856364E-03 0.62065381E+01</pdfrwt>
<totfact> 0.36952305E+09</totfact>
</mgrwt>
</event>
<event>
 4    1  0.3989279E+006  0.7969614E+01  0.7546771E-02  0.2213088E+00
         21   -1    0    0  501  502  0.00000000000E+00  0.00000000000E+00  0.20392207465E+00  0.20392207465E+00  0.00000000000E+00 0.  1.
         21   -1    0    0  502  503 -0.00000000000E+00 -0.00000000000E+00 -0.34350860582E+03  0.34350860582E+03  0.00000000000E+00 0. -1.
          5    1    1    2  501    0 -0.10851477864E+01  0.63440685048E+01 -0.11916411953E+03  0.11943032335E+03  0.47000000000E+01 0.  1.
         -5    1    1    2    0  503  0.10851477864E+01 -0.63440685048E+01 -0.22414056421E+03  0.22428220454E+03  0.47000000000E+01 0. -1.
<mgrwt>
<rscale>  2 0.79696142E+01</rscale>
<asrwt>0</asrwt>
<pdfrwt beam="1">  1       21 0.31372741E-04 0.79696142E+01</pdfrwt>
<pdfrwt beam="2">  1       21 0.52847286E-01 0.79696142E+01</pdfrwt>
<totfact> 0.94276489E+08</totfact>
</mgrwt>
</event>
<event>
 4    1  0.3989279E+006  0.5134466E+01  0.7546771E-02  0.2543839E+00
         21   -1    0    0  501  502  0.00000000000E+00  0.00000000000E+00  0.47611934284E+03  0.47611934284E+03  0.00000000000E+00 0.  1.
         21   -1    0    0  502  503 -0.00000000000E+00 -0.00000000000E+00 -0.59926923240E-01  0.59926923240E-01  0.00000000000E+00 0.  1.
          5    1    1    2  501    0  0.18216571423E+01  0.97688384134E+00  0.30368420480E+03  0.30372760655E+03  0.47000000000E+01 0.  1.
         -5    1    1    2    0  503 -0.18216571423E+01 -0.97688384134E+00  0.17237521111E+03  0.17245166321E+03  0.47000000000E+01 0.  1.
<mgrwt>
<rscale>  2 0.51344656E+01</rscale>
<asrwt>0</asrwt>
<pdfrwt beam="1">  1       21 0.73246101E-01 0.51344656E+01</pdfrwt>
<pdfrwt beam="2">  1       21 0.92199079E-05 0.51344656E+01</pdfrwt>
<totfact> 0.19313355E+09</totfact>
</mgrwt>
</event>
<event>
 4    1  0.3989279E+006  0.4768358E+01  0.7546771E-02  0.2609964E+00
         21   -1    0    0  503  502  0.00000000000E+00  0.00000000000E+00  0.24703711118E+03  0.24703711118E+03  0.00000000000E+00 0. -1.
         21   -1    0    0  501  503 -0.00000000000E+00 -0.00000000000E+00 -0.11733890586E+00  0.11733890586E+00  0.00000000000E+00 0. -1.
          5    1    1    2  501    0  0.10092360981E+00 -0.79815706232E+00  0.66078608029E+02  0.66250431541E+02  0.47000000000E+01 0. -1.
         -5    1    1    2    0  502 -0.10092360981E+00  0.79815706232E+00  0.18084116425E+03  0.18090401855E+03  0.47000000000E+01 0. -1.
<mgrwt>
<rscale>  2 0.47683582E+01</rscale>
<asrwt>0</asrwt>
<pdfrwt beam="1">  1       21 0.38005293E-01 0.47683582E+01</pdfrwt>
<pdfrwt beam="2">  1       21 0.18052337E-04 0.47683582E+01</pdfrwt>
<totfact> 0.24094519E+09</totfact>
</mgrwt>
</event>
<event>
 4    1  0.3989279E+006  0.6621382E+01  0.7546771E-02  0.2340945E+00
         21   -1    0    0  501  502  0.00000000000E+00  0.00000000000E+00  0.91859669868E-01  0.91859669868E-01  0.00000000000E+00 0.  1.
         21   -1    0    0  502  503 -0.00000000000E+00 -0.00000000000E+00 -0.50159734713E+03  0.50159734713E+03  0.00000000000E+00 0. -1.
          5    1    1    2  501    0  0.21677380885E+01  0.41296022249E+01 -0.19552045403E+03  0.19563253985E+03  0.47000000000E+01 0.  1.
         -5    1    1    2    0  503 -0.21677380885E+01 -0.41296022249E+01 -0.30598503343E+03  0.30605666695E+03  0.47000000000E+01 0. -1.
<mgrwt>
<rscale>  2 0.66213823E+01</rscale>
<asrwt>0</asrwt>
<pdfrwt beam="1">  1       21 0.14132318E-04 0.66213823E+01</pdfrwt>
<pdfrwt beam="2">  1       21 0.77168490E-01 0.66213823E+01</pdfrwt>
<totfact> 0.11932372E+09</totfact>
</mgrwt>
</event>
<event>
 4    1  0.3989279E+006  0.7181045E+01  0.7546771E-02  0.2283120E+00
         21   -1    0    0  501  502  0.00000000000E+00  0.00000000000E+00  0.21342726176E+03  0.21342726176E+03  0.00000000000E+00 0.  1.
         21   -1    0    0  502  503 -0.00000000000E+00 -0.00000000000E+00 -0.29717978469E+00  0.29717978469E+00  0.00000000000E+00 0. -1.
          5    1    1    2  501    0 -0.27130081450E+01 -0.47028715494E+01  0.15277238145E+03  0.15294106038E+03  0.47000000000E+01 0. -1.
         -5    1    1    2    0  503  0.27130081450E+01  0.47028715494E+01  0.60357700525E+02  0.60783381172E+02  0.47000000000E+01 0.  1.
<mgrwt>
<rscale>  2 0.71810455E+01</rscale>
<asrwt>0</asrwt>
<pdfrwt beam="1">  1       21 0.32834841E-01 0.71810455E+01</pdfrwt>
<pdfrwt beam="2">  1       21 0.45720138E-04 0.71810455E+01</pdfrwt>
<totfact> 0.12414106E+09</totfact>
</mgrwt>
</event>
<event>
 4    1  0.3989279E+006  0.5053799E+01  0.7546771E-02  0.2557697E+00
         21   -1    0    0  501  502  0.00000000000E+00  0.00000000000E+00  0.60360962410E+01  0.60360962410E+01  0.00000000000E+00 0.  1.
         21   -1    0    0  502  503 -0.00000000000E+00 -0.00000000000E+00 -0.43391426434E+01  0.43391426434E+01  0.00000000000E+00 0. -1.
          5    1    1    2  501    0 -0.18539804836E+01  0.11681048342E+00  0.16660811366E+01  0.53213451943E+01  0.47000000000E+01 0.  1.
         -5    1    1    2    0  503  0.18539804836E+01 -0.11681048342E+00  0.30872461003E-01  0.50538936902E+01  0.47000000000E+01 0. -1.
<mgrwt>
<rscale>  2 0.50537994E+01</rscale>
<asrwt>0</asrwt>
<pdfrwt beam="1">  1       21 0.92863020E-03 0.50537994E+01</pdfrwt>
<pdfrwt beam="2">  1       21 0.66756040E-03 0.50537994E+01</pdfrwt>
<totfact> 0.52127041E+09</totfact>
</mgrwt>
</event>
<event>
 4    1  0.3989279E+006  0.8306133E+01  0.7546771E-02  0.2186512E+00
         21   -1    0    0  501  502  0.00000000000E+00  0.00000000000E+00  0.65812223991E+02  0.65812223991E+02  0.00000000000E+00 0. -1.
         21   -1    0    0  502  503 -0.00000000000E+00 -0.00000000000E+00 -0.10483500710E+01  0.10483500710E+01  0.00000000000E+00 0.  1.
          5    1    1    2  501    0  0.65216106518E+01 -0.20905592441E+01  0.32184511246E+02  0.33239052447E+02  0.47000000000E+01 0. -1.
         -5    1    1    2    0  503 -0.65216106518E+01  0.20905592441E+01  0.32579362674E+02  0.33621521615E+02  0.47000000000E+01 0.  1.
<mgrwt>
<rscale>  2 0.83061329E+01</rscale>
<asrwt>0</asrwt>
<pdfrwt beam="1">  1       21 0.10124954E-01 0.83061329E+01</pdfrwt>
<pdfrwt beam="2">  1       21 0.16128468E-03 0.83061329E+01</pdfrwt>
<totfact> 0.16894988E+09</totfact>
</mgrwt>
</event>
<event>
 4    1  0.3989279E+006  0.5297244E+01  0.7546771E-02  0.2516979E+00
         21   -1    0    0  503  502  0.00000000000E+00  0.00000000000E+00  0.77898841916E+03  0.77898841916E+03  0.00000000000E+00 0. -1.
         21   -1    0    0  501  503 -0.00000000000E+00 -0.00000000000E+00 -0.96312929421E-01  0.96312929421E-01  0.00000000000E+00 0. -1.
          5    1    1    2  501    0  0.24184761503E+01  0.34894593933E+00  0.81242195323E+02  0.81414710532E+02  0.47000000000E+01 0. -1.
         -5    1    1    2    0  502 -0.24184761503E+01 -0.34894593933E+00  0.69764991090E+03  0.69767002155E+03  0.47000000000E+01 0. -1.
<mgrwt>
<rscale>  2 0.52972436E+01</rscale>
<asrwt>0</asrwt>
<pdfrwt beam="1">  1       21 0.11983933E+00 0.52972436E+01</pdfrwt>
<pdfrwt beam="2">  1       21 0.14817998E-04 0.52972436E+01</pdfrwt>
<totfact> 0.39791008E+08</totfact>
</mgrwt>
</event>
<event>
 4    1  0.3989279E+006  0.5756509E+01  0.7546771E-02  0.2448234E+00
         21   -1    0    0  501  502  0.00000000000E+00  0.00000000000E+00  0.19351277981E+03  0.19351277981E+03  0.00000000000E+00 0.  1.
         21   -1    0    0  502  503 -0.00000000000E+00 -0.00000000000E+00 -0.17578913915E+00  0.17578913915E+00  0.00000000000E+00 0. -1.
          5    1    1    2  501    0  0.24251381115E+01  0.22729049423E+01  0.81091717613E+02  0.81295781300E+02  0.47000000000E+01 0.  1.
         -5    1    1    2    0  503 -0.24251381115E+01 -0.22729049423E+01  0.11224527306E+03  0.11239278765E+03  0.47000000000E+01 0.  1.
<mgrwt>
<rscale>  2 0.57565086E+01</rscale>
<asrwt>0</asrwt>
<pdfrwt beam="1">  1       21 0.29771027E-01 0.57565086E+01</pdfrwt>
<pdfrwt beam="2">  1       21 0.27044638E-04 0.57565086E+01</pdfrwt>
<totfact> 0.25122786E+09</totfact>
</mgrwt>
</event>
<event>
 4    1  0.3989279E+006  0.5169954E+01  0.7546771E-02  0.2537859E+00
         21   -1    0    0  501  502  0.00000000000E+00  0.00000000000E+00  0.75134828529E+02  0.75134828529E+02  0.00000000000E+00 0. -1.
         21   -1    0    0  502  503 -0.00000000000E+00 -0.00000000000E+00 -0.41526023219E+00  0.41526023219E+00  0.00000000000E+00 0.  1.
          5    1    1    2  501    0  0.93674930211E+00 -0.19393117601E+01  0.51661192182E+02  0.51919237350E+02  0.47000000000E+01 0. -1.
         -5    1    1    2    0  503 -0.93674930211E+00  0.19393117601E+01  0.23058376115E+02  0.23630851411E+02  0.47000000000E+01 0.  1.
<mgrwt>
<rscale>  2 0.51699545E+01</rscale>
<asrwt>0</asrwt>
<pdfrwt beam="1">  1       21 0.11559194E-01 0.51699545E+01</pdfrwt>
<pdfrwt beam="2">  1       21 0.63886249E-04 0.51699545E+01</pdfrwt>
<totfact> 0.32924164E+09</totfact>
</mgrwt>
</event>
<event>
 4    1  0.3989279E+006  0.7412655E+01  0.7546771E-02  0.2261299E+00
         21   -1    0    0  503  502  0.00000000000E+00  0.00000000000E+00  0.38457063063E+01  0.38457063063E+01  0.00000000000E+00 0. -1.
         21   -1    0    0  501  503 -0.00000000000E+00 -0.00000000000E+00 -0.14839259325E+02  0.14839259325E+02  0.00000000000E+00 0. -1.
          5    1    1    2  501    0 -0.32681682239E+01 -0.47091962553E+01 -0.36961068518E+01  0.82830343939E+01  0.47000000000E+01 0. -1.
         -5    1    1    2    0  502  0.32681682239E+01  0.47091962553E+01 -0.72974461673E+01  0.10401931238E+02  0.47000000000E+01 0. -1.
<mgrwt>
<rscale>  2 0.74126549E+01</rscale>
<asrwt>0</asrwt>
<pdfrwt beam="1">  1       21 0.59164713E-03 0.74126549E+01</pdfrwt>
<pdfrwt beam="2">  1       21 0.22829629E-02 0.74126549E+01</pdfrwt>
<totfact> 0.24091832E+09</totfact>
</mgrwt>
</event>
<event>
 4    1  0.3989279E+006  0.5570992E+01  0.7546771E-02  0.2474845E+00
         21   -1    0    0  503  502  0.00000000000E+00  0.00000000000E+00  0.94297282227E+02  0.94297282227E+02  0.00000000000E+00 0.  1.
         21   -1    0    0  501  503 -0.00000000000E+00 -0.00000000000E+00 -0.56000532336E+00  0.56000532336E+00  0.00000000000E+00 0. -1.
          5    1    1    2  501    0 -0.19054886933E+01 -0.23054420421E+01  0.16415326788E+02  0.17334904203E+02  0.47000000000E+01 0. -1.
         -5    1    1    2    0  502  0.19054886933E+01  0.23054420421E+01  0.77321950115E+02  0.77522383347E+02  0.47000000000E+01 0.  1.
<mgrwt>
<rscale>  2 0.55709918E+01</rscale>
<asrwt>0</asrwt>
<pdfrwt beam="1">  1       21 0.14507262E-01 0.55709918E+01</pdfrwt>
<pdfrwt beam="2">  1       21 0.86154740E-04 0.55709918E+01</pdfrwt>
<totfact> 0.16659958E+09</totfact>
</mgrwt>
</event>
<event>
 4    1  0.3989279E+006  0.6036624E+01  0.7546771E-02  0.2410681E+00
         21   -1    0    0  503  502  0.00000000000E+00  0.00000000000E+00  0.41423814226E+02  0.41423814226E+02  0.00000000000E+00 0. -1.
         21   -1    0    0  501  503 -0.00000000000E+00 -0.00000000000E+00 -0.92142578747E+00  0.92142578747E+00  0.00000000000E+00 0. -1.
          5    1    1    2  501    0 -0.54963951550E+00 -0.37481627193E+01  0.15746044254E+02  0.16863532756E+02  0.47000000000E+01 0. -1.
         -5    1    1    2    0  502  0.54963951550E+00  0.37481627193E+01  0.24756344185E+02  0.25481707258E+02  0.47000000000E+01 0. -1.
<mgrwt>
<rscale>  2 0.60366238E+01</rscale>
<asrwt>0</asrwt>
<pdfrwt beam="1">  1       21 0.63728930E-02 0.60366238E+01</pdfrwt>
<pdfrwt beam="2">  1       21 0.14175785E-03 0.60366238E+01</pdfrwt>
<totfact> 0.32161822E+09</totfact>
</mgrwt>
</event>
<event>
 4    1  0.3989279E+006  0.5029141E+01  0.7546771E-02  0.2562010E+00
         21   -1    0    0  501  502  0.00000000000E+00  0.00000000000E+00  0.65871032868E+00  0.65871032868E+00  0.00000000000E+00 0. -1.
         21   -1    0    0  502  503 -0.00000000000E+00 -0.00000000000E+00 -0.57127299464E+02  0.57127299464E+02  0.00000000000E+00 0. -1.
          5    1    1    2  501    0 -0.16997205610E+01 -0.55964894051E+00 -0.11690028296E+02  0.12725919160E+02  0.47000000000E+01 0. -1.
         -5    1    1    2    0  503  0.16997205610E+01  0.55964894051E+00 -0.44778560840E+02  0.45060090633E+02  0.47000000000E+01 0. -1.
<mgrwt>
<rscale>  2 0.50291408E+01</rscale>
<asrwt>0</asrwt>
<pdfrwt beam="1">  1       21 0.10134000E-03 0.50291408E+01</pdfrwt>
<pdfrwt beam="2">  1       21 0.87888197E-02 0.50291408E+01</pdfrwt>
<totfact> 0.26305954E+09</totfact>
</mgrwt>
</event>
<event>
 4    1  0.3989279E+006  0.8776804E+01  0.7546771E-02  0.2152110E+00
         21   -1    0    0  501  502  0.00000000000E+00  0.00000000000E+00  0.85679190457E+01  0.85679190457E+01  0.00000000000E+00 0.  1.
         21   -1    0    0  502  503 -0.00000000000E+00 -0.00000000000E+00 -0.10881527269E+02  0.10881527269E+02  0.00000000000E+00 0. -1.
          5    1    1    2  501    0  0.74050797434E+01  0.32723585526E+00  0.28968703703E+01  0.92425184476E+01  0.47000000000E+01 0.  1.
         -5    1    1    2    0  503 -0.74050797434E+01 -0.32723585526E+00 -0.52104785937E+01  0.10206927867E+02  0.47000000000E+01 0. -1.
<mgrwt>
<rscale>  2 0.87768040E+01</rscale>
<asrwt>0</asrwt>
<pdfrwt beam="1">  1       21 0.13181414E-02 0.87768040E+01</pdfrwt>
<pdfrwt beam="2">  1       21 0.16740811E-02 0.87768040E+01</pdfrwt>
<totfact> 0.13565386E+09</totfact>
</mgrwt>
</event>
<event>
 4    1  0.3989279E+006  0.5346550E+01  0.7546771E-02  0.2509119E+00
         21   -1    0    0  503  502  0.00000000000E+00  0.00000000000E+00  0.15242011643E+00  0.15242011643E+00  0.00000000000E+00 0. -1.
         21   -1    0    0  501  503 -0.00000000000E+00 -0.00000000000E+00 -0.20043423842E+03  0.20043423842E+03  0.00000000000E+00 0.  1.
          5    1    1    2  501    0 -0.19688154963E+01  0.16184434280E+01 -0.12557427435E+03  0.12568804228E+03  0.47000000000E+01 0.  1.
         -5    1    1    2    0  502  0.19688154963E+01 -0.16184434280E+01 -0.74707543949E+02  0.74898616252E+02  0.47000000000E+01 0. -1.
<mgrwt>
<rscale>  2 0.53465497E+01</rscale>
<asrwt>0</asrwt>
<pdfrwt beam="1">  1       21 0.23449145E-04 0.53465497E+01</pdfrwt>
<pdfrwt beam="2">  1       21 0.30836174E-01 0.53465497E+01</pdfrwt>
<totfact> 0.26894502E+09</totfact>
</mgrwt>
</event>
<event>
 4    1  0.3989279E+006  0.8891988E+01  0.7546771E-02  0.2144136E+00
         21   -1    0    0  501  502  0.00000000000E+00  0.00000000000E+00  0.14621795746E+04  0.14621795746E+04  0.00000000000E+00 0.  1.
         21   -1    0    0  502  503 -0.00000000000E+00 -0.00000000000E+00 -0.26699723172E+00  0.26699723172E+00  0.00000000000E+00 0. -1.
          5    1    1    2  501    0  0.69592657932E+01  0.29233674206E+01  0.13839471014E+04  0.13839756670E+04  0.47000000000E+01 0.  1.
         -5    1    1    2    0  503 -0.69592657932E+01 -0.29233674206E+01  0.77965475971E+02  0.78470904804E+02  0.47000000000E+01 0. -1.
<mgrwt>
<rscale>  2 0.88919884E+01</rscale>
<asrwt>0</asrwt>
<pdfrwt beam="1">  1       21 0.22494429E+00 0.88919884E+01</pdfrwt>
<pdfrwt beam="2">  1       21 0.41077668E-04 0.88919884E+01</pdfrwt>
<totfact> 0.32643550E+07</totfact>
</mgrwt>
</event>
<event>
 4    1  0.3989279E+006  0.6611553E+01  0.7546771E-02  0.2342032E+00
         21   -1    0    0  501  502  0.00000000000E+00  0.00000000000E+00  0.71930303565E+01  0.71930303565E+01  0.00000000000E+00 0. -1.
         21   -1    0    0  502  503 -0.00000000000E+00 -0.00000000000E+00 -0.25173103710E+02  0.25173103710E+02  0.00000000000E+00 0.  1.
          5    1    1    2  501    0  0.41482601867E+01  0.21010884221E+01  0.51049250416E+01  0.83530171085E+01  0.47000000000E+01 0. -1.
         -5    1    1    2    0  503 -0.41482601867E+01 -0.21010884221E+01 -0.23084998395E+02  0.24013116958E+02  0.47000000000E+01 0.  1.
<mgrwt>
<rscale>  2 0.66115532E+01</rscale>
<asrwt>0</asrwt>
<pdfrwt beam="1">  1       21 0.11066201E-02 0.66115532E+01</pdfrwt>
<pdfrwt beam="2">  1       21 0.38727852E-02 0.66115532E+01</pdfrwt>
<totfact> 0.42001310E+08</totfact>
</mgrwt>
</event>
<event>
 4    1  0.3989279E+006  0.6999555E+01  0.7546771E-02  0.2301039E+00
         21   -1    0    0  501  502  0.00000000000E+00  0.00000000000E+00  0.10007105770E+04  0.10007105770E+04  0.00000000000E+00 0.  1.
         21   -1    0    0  502  503 -0.00000000000E+00 -0.00000000000E+00 -0.32073034851E+00  0.32073034851E+00  0.00000000000E+00 0.  1.
          5    1    1    2  501    0  0.39665282362E+00  0.51716961487E+01  0.96092809646E+03  0.96095358906E+03  0.47000000000E+01 0.  1.
         -5    1    1    2    0  503 -0.39665282362E+00 -0.51716961487E+01  0.39461750225E+02  0.40077718315E+02  0.47000000000E+01 0.  1.
<mgrwt>
<rscale>  2 0.69995553E+01</rscale>
<asrwt>0</asrwt>
<pdfrwt beam="1">  1       21 0.15395297E+00 0.69995553E+01</pdfrwt>
<pdfrwt beam="2">  1       21 0.49343932E-04 0.69995553E+01</pdfrwt>
<totfact> 0.55162474E+07</totfact>
</mgrwt>
</event>
<event>
 4    1  0.3989279E+006  0.4994302E+01  0.7546771E-02  0.2568166E+00
         21   -1    0    0  501  502  0.00000000000E+00  0.00000000000E+00  0.28884223102E+04  0.28884223102E+04  0.00000000000E+00 0. -1.
         21   -1    0    0  502  503 -0.00000000000E+00 -0.00000000000E+00 -0.17520688133E-01  0.17520688133E-01  0.00000000000E+00 0. -1.
          5    1    1    2  501    0 -0.14398216074E+01  0.88315853525E+00  0.24726693675E+04  0.24726744112E+04  0.47000000000E+01 0. -1.
         -5    1    1    2    0  503  0.14398216074E+01 -0.88315853525E+00  0.41573542203E+03  0.41576541966E+03  0.47000000000E+01 0. -1.
<mgrwt>
<rscale>  2 0.49943023E+01</rscale>
<asrwt>0</asrwt>
<pdfrwt beam="1">  1       21 0.44399160E+00 0.49943023E+01</pdfrwt>
<pdfrwt beam="2">  1       21 0.26978039E-05 0.49943023E+01</pdfrwt>
<totfact> 0.12877106E+08</totfact>
</mgrwt>
</event>
<event>
 4    1  0.3989279E+006  0.8152141E+01  0.7546771E-02  0.2198454E+00
         21   -1    0    0  501  502  0.00000000000E+00  0.00000000000E+00  0.27379374429E+00  0.27379374429E+00  0.00000000000E+00 0. -1.
         21   -1    0    0  502  503 -0.00000000000E+00 -0.00000000000E+00 -0.55411335619E+03  0.55411335619E+03  0.00000000000E+00 0.  1.
          5    1    1    2  501    0  0.10013538247E+00 -0.66601333758E+01 -0.69125804939E+02  0.69604844027E+02  0.47000000000E+01 0. -1.
         -5    1    1    2    0  503 -0.10013538247E+00  0.66601333758E+01 -0.48471375750E+03  0.48478230590E+03  0.47000000000E+01 0.  1.
<mgrwt>
<rscale>  2 0.81521410E+01</rscale>
<asrwt>0</asrwt>
<pdfrwt beam="1">  1       21 0.42122117E-04 0.81521410E+01</pdfrwt>
<pdfrwt beam="2">  1       21 0.85248203E-01 0.81521410E+01</pdfrwt>
<totfact> 0.25503293E+08</totfact>
</mgrwt>
</event>
<event>
 4    1  0.3989279E+006  0.7092431E+01  0.7546771E-02  0.2291775E+00
         21   -1    0    0  501  502  0.00000000000E+00  0.00000000000E+00  0.11699312177E+03  0.11699312177E+03  0.00000000000E+00 0.  1.
         21   -1    0    0  502  503 -0.00000000000E+00 -0.00000000000E+00 -0.49149970464E+00  0.49149970464E+00  0.00000000000E+00 0.  1.
          5    1    1    2  501    0 -0.23165317039E+01  0.47797758438E+01  0.79036319676E+02  0.79353906042E+02  0.47000000000E+01 0.  1.
         -5    1    1    2    0  503  0.23165317039E+01 -0.47797758438E+01  0.37465302389E+02  0.38130715432E+02  0.47000000000E+01 0.  1.
<mgrwt>
<rscale>  2 0.70924309E+01</rscale>
<asrwt>0</asrwt>
<pdfrwt beam="1">  1       21 0.17998920E-01 0.70924309E+01</pdfrwt>
<pdfrwt beam="2">  1       21 0.75615432E-04 0.70924309E+01</pdfrwt>
<totfact> 0.17020323E+09</totfact>
</mgrwt>
</event>
<event>
 4    1  0.3989279E+006  0.6281351E+01  0.7546771E-02  0.2380183E+00
         21   -1    0    0  503  502  0.00000000000E+00  0.00000000000E+00  0.65696094567E+01  0.65696094567E+01  0.00000000000E+00 0. -1.
         21   -1    0    0  501  503 -0.00000000000E+00 -0.00000000000E+00 -0.85025067416E+02  0.85025067416E+02  0.00000000000E+00 0.  1.
          5    1    1    2  501    0  0.86461386264E+00  0.40764945169E+01 -0.83378003858E+02  0.83614274451E+02  0.47000000000E+01 0.  1.
         -5    1    1    2    0  502 -0.86461386264E+00 -0.40764945169E+01  0.49225458988E+01  0.79804024212E+01  0.47000000000E+01 0. -1.
<mgrwt>
<rscale>  2 0.62813505E+01</rscale>
<asrwt>0</asrwt>
<pdfrwt beam="1">  1       21 0.10107092E-02 0.62813505E+01</pdfrwt>
<pdfrwt beam="2">  1       21 0.13080779E-01 0.62813505E+01</pdfrwt>
<totfact> 0.72838307E+07</totfact>
</mgrwt>
</event>
<event>
 4    1  0.3989279E+006  0.7440853E+01  0.7546771E-02  0.2258718E+00
         21   -1    0    0  503  502  0.00000000000E+00  0.00000000000E+00  0.42722181938E+02  0.42722181938E+02  0.00000000000E+00 0. -1.
         21   -1    0    0  501  503 -0.00000000000E+00 -0.00000000000E+00 -0.13525370525E+01  0.13525370525E+01  0.00000000000E+00 0. -1.
          5    1    1    2  501    0  0.56862682396E+01 -0.97089669018E+00  0.16177684809E+02  0.17806846230E+02  0.47000000000E+01 0. -1.
         -5    1    1    2    0  502 -0.56862682396E+01  0.97089669018E+00  0.25191960077E+02  0.26267872761E+02  0.47000000000E+01 0. -1.
<mgrwt>
<rscale>  2 0.74408526E+01</rscale>
<asrwt>0</asrwt>
<pdfrwt beam="1">  1       21 0.65726423E-02 0.74408526E+01</pdfrwt>
<pdfrwt beam="2">  1       21 0.20808266E-03 0.74408526E+01</pdfrwt>
<totfact> 0.21480414E+09</totfact>
</mgrwt>
</event>
<event>
 4    1  0.3989279E+006  0.6208420E+01  0.7546771E-02  0.2389062E+00
         21   -1    0    0  501  502  0.00000000000E+00  0.00000000000E+00  0.13188546078E+03  0.13188546078E+03  0.00000000000E+00 0.  1.
         21   -1    0    0  502  503 -0.00000000000E+00 -0.00000000000E+00 -0.43815909614E+00  0.43815909614E+00  0.00000000000E+00 0.  1.
          5    1    1    2  501    0  0.35162801640E+01 -0.20224375639E+01  0.10390241618E+03  0.10408773496E+03  0.47000000000E+01 0.  1.
         -5    1    1    2    0  503 -0.35162801640E+01  0.20224375639E+01  0.27544885502E+02  0.28235884920E+02  0.47000000000E+01 0.  1.
<mgrwt>
<rscale>  2 0.62084201E+01</rscale>
<asrwt>0</asrwt>
<pdfrwt beam="1">  1       21 0.20290039E-01 0.62084201E+01</pdfrwt>
<pdfrwt beam="2">  1       21 0.67409197E-04 0.62084201E+01</pdfrwt>
<totfact> 0.14813282E+09</totfact>
</mgrwt>
</event>
<event>
 4    1  0.3989279E+006  0.5533257E+01  0.7546771E-02  0.2480442E+00
         21   -1    0    0  503  502  0.00000000000E+00  0.00000000000E+00  0.16673483349E+00  0.16673483349E+00  0.00000000000E+00 0. -1.
         21   -1    0    0  501  503 -0.00000000000E+00 -0.00000000000E+00 -0.19045754310E+03  0.19045754310E+03  0.00000000000E+00 0. -1.
          5    1    1    2  501    0  0.15258916701E+01 -0.24896958790E+01 -0.77094739347E+02  0.77293051214E+02  0.47000000000E+01 0. -1.
         -5    1    1    2    0  502 -0.15258916701E+01  0.24896958790E+01 -0.11319606892E+03  0.11333122672E+03  0.47000000000E+01 0. -1.
<mgrwt>
<rscale>  2 0.55332568E+01</rscale>
<asrwt>0</asrwt>
<pdfrwt beam="1">  1       21 0.25651324E-04 0.55332568E+01</pdfrwt>
<pdfrwt beam="2">  1       21 0.29301376E-01 0.55332568E+01</pdfrwt>
<totfact> 0.26779890E+09</totfact>
</mgrwt>
</event>
<event>
 4    1  0.3989279E+006  0.9656035E+01  0.7546771E-02  0.2095108E+00
         21   -1    0    0  503  502  0.00000000000E+00  0.00000000000E+00  0.89576885500E+00  0.89576885500E+00  0.00000000000E+00 0.  1.
         21   -1    0    0  501  503 -0.00000000000E+00 -0.00000000000E+00 -0.12093321494E+03  0.12093321494E+03  0.00000000000E+00 0. -1.
          5    1    1    2  501    0 -0.82441151310E+01  0.17842596916E+01 -0.82753087543E+02  0.83314539637E+02  0.47000000000E+01 0. -1.
         -5    1    1    2    0  502  0.82441151310E+01 -0.17842596916E+01 -0.37284358537E+02  0.38514444154E+02  0.47000000000E+01 0.  1.
<mgrwt>
<rscale>  2 0.96560353E+01</rscale>
<asrwt>0</asrwt>
<pdfrwt beam="1">  1       21 0.13781060E-03 0.96560353E+01</pdfrwt>
<pdfrwt beam="2">  1       21 0.18605109E-01 0.96560353E+01</pdfrwt>
<totfact> 0.86324416E+08</totfact>
</mgrwt>
</event>
<event>
 4    1  0.3989279E+006  0.4814755E+01  0.7546771E-02  0.2601104E+00
         21   -1    0    0  501  502  0.00000000000E+00  0.00000000000E+00  0.13156748187E+01  0.13156748187E+01  0.00000000000E+00 0. -1.
         21   -1    0    0  502  503 -0.00000000000E+00 -0.00000000000E+00 -0.19990724341E+02  0.19990724341E+02  0.00000000000E+00 0. -1.
          5    1    1    2  501    0  0.67754892779E+00  0.79548417728E+00 -0.13006364916E+02  0.13868936367E+02  0.47000000000E+01 0. -1.
         -5    1    1    2    0  503 -0.67754892779E+00 -0.79548417728E+00 -0.56686846066E+01  0.74374627929E+01  0.47000000000E+01 0. -1.
<mgrwt>
<rscale>  2 0.48147552E+01</rscale>
<asrwt>0</asrwt>
<pdfrwt beam="1">  1       21 0.20241153E-03 0.48147552E+01</pdfrwt>
<pdfrwt beam="2">  1       21 0.30754958E-02 0.48147552E+01</pdfrwt>
<totfact> 0.46441220E+09</totfact>
</mgrwt>
</event>
<event>
 4    1  0.3989279E+006  0.5264381E+01  0.7546771E-02  0.2522287E+00
         21   -1    0    0  503  502  0.00000000000E+00  0.00000000000E+00  0.20919322461E+02  0.20919322461E+02  0.00000000000E+00 0. -1.
         21   -1    0    0  501  503 -0.00000000000E+00 -0.00000000000E+00 -0.11003692467E+02  0.11003692467E+02  0.00000000000E+00 0. -1.
          5    1    1    2  501    0 -0.15271217078E+01  0.18142784947E+01 -0.10012045121E+02  0.11311708742E+02  0.47000000000E+01 0. -1.
         -5    1    1    2    0  502  0.15271217078E+01 -0.18142784947E+01  0.19927675115E+02  0.20611306185E+02  0.47000000000E+01 0. -1.
<mgrwt>
<rscale>  2 0.52643810E+01</rscale>
<asrwt>0</asrwt>
<pdfrwt beam="1">  1       21 0.32183573E-02 0.52643810E+01</pdfrwt>
<pdfrwt beam="2">  1       21 0.16928758E-02 0.52643810E+01</pdfrwt>
<totfact> 0.25321563E+08</totfact>
</mgrwt>
</event>
<event>
 4    1  0.3989279E+006  0.5214779E+01  0.7546771E-02  0.2530407E+00
         21   -1    0    0  501  502  0.00000000000E+00  0.00000000000E+00  0.49148206954E+00  0.49148206954E+00  0.00000000000E+00 0. -1.
         21   -1    0    0  502  503 -0.00000000000E+00 -0.00000000000E+00 -0.20209595650E+03  0.20209595650E+03  0.00000000000E+00 0. -1.
          5    1    1    2  501    0 -0.21760247325E+01  0.60732096771E+00 -0.14481386949E+02  0.15391701997E+02  0.47000000000E+01 0. -1.
         -5    1    1    2    0  503  0.21760247325E+01 -0.60732096771E+00 -0.18712308748E+03  0.18719573657E+03  0.47000000000E+01 0. -1.
<mgrwt>
<rscale>  2 0.52147792E+01</rscale>
<asrwt>0</asrwt>
<pdfrwt beam="1">  1       21 0.75612461E-04 0.52147792E+01</pdfrwt>
<pdfrwt beam="2">  1       21 0.31091753E-01 0.52147792E+01</pdfrwt>
<totfact> 0.54845308E+08</totfact>
</mgrwt>
</event>
<event>
 4    1  0.3989279E+006  0.5252574E+01  0.7546771E-02  0.2524208E+00
         21   -1    0    0  501  502  0.00000000000E+00  0.00000000000E+00  0.10283178337E+03  0.10283178337E+03  0.00000000000E+00 0.  1.
         21   -1    0    0  502  503 -0.00000000000E+00 -0.00000000000E+00 -0.31507502659E+00  0.31507502659E+00  0.00000000000E+00 0.  1.
          5    1    1    2  501    0  0.95486682421E+00 -0.21419060459E+01  0.71130129258E+02  0.71323802622E+02  0.47000000000E+01 0.  1.
         -5    1    1    2    0  503 -0.95486682421E+00  0.21419060459E+01  0.31386579081E+02  0.31823055770E+02  0.47000000000E+01 0.  1.
<mgrwt>
<rscale>  2 0.52525739E+01</rscale>
<asrwt>0</asrwt>
<pdfrwt beam="1">  1       21 0.15820248E-01 0.52525739E+01</pdfrwt>
<pdfrwt beam="2">  1       21 0.48473163E-04 0.52525739E+01</pdfrwt>
<totfact> 0.29667409E+09</totfact>
</mgrwt>
</event>
<event>
 4    1  0.3989279E+006  0.4902460E+01  0.7546771E-02  0.2584754E+00
         21   -1    0    0  503  502  0.00000000000E+00  0.00000000000E+00  0.24383837919E-01  0.24383837919E-01  0.00000000000E+00 0. -1.
         21   -1    0    0  501  503 -0.00000000000E+00 -0.00000000000E+00 -0.16676528356E+04  0.16676528356E+04  0.00000000000E+00 0. -1.
          5    1    1    2  501    0 -0.13362976001E+01 -0.39802795279E+00 -0.13670506617E+04  0.13670594522E+04  0.47000000000E+01 0. -1.
         -5    1    1    2    0  502  0.13362976001E+01  0.39802795279E+00 -0.30057778997E+03  0.30061776718E+03  0.47000000000E+01 0. -1.
<mgrwt>
<rscale>  2 0.49024604E+01</rscale>
<asrwt>0</asrwt>
<pdfrwt beam="1">  1       21 0.37511457E-05 0.49024604E+01</pdfrwt>
<pdfrwt beam="2">  1       21 0.25657661E+00 0.49024604E+01</pdfrwt>
<totfact> 0.45990684E+08</totfact>
</mgrwt>
</event>
<event>
 4    1  0.3989279E+006  0.9428217E+01  0.7546771E-02  0.2109068E+00
         21   -1    0    0  503  502  0.00000000000E+00  0.00000000000E+00  0.16996988623E+01  0.16996988623E+01  0.00000000000E+00 0.  1.
         21   -1    0    0  501  503 -0.00000000000E+00 -0.00000000000E+00 -0.76918525374E+02  0.76918525374E+02  0.00000000000E+00 0. -1.
          5    1    1    2  501    0  0.22377971425E+01 -0.78608866738E+01 -0.59848872146E+02  0.60586952164E+02  0.47000000000E+01 0. -1.
         -5    1    1    2    0  502 -0.22377971425E+01  0.78608866738E+01 -0.15369954366E+02  0.18031272073E+02  0.47000000000E+01 0.  1.
<mgrwt>
<rscale>  2 0.94282170E+01</rscale>
<asrwt>0</asrwt>
<pdfrwt beam="1">  1       21 0.26149219E-03 0.94282170E+01</pdfrwt>
<pdfrwt beam="2">  1       21 0.11833617E-01 0.94282170E+01</pdfrwt>
<totfact> 0.72870176E+08</totfact>
</mgrwt>
</event>
<event>
 4    1  0.3989279E+006  0.5278349E+01  0.7546771E-02  0.2520024E+00
         21   -1    0    0  501  502  0.00000000000E+00  0.00000000000E+00  0.10748769793E+02  0.10748769793E+02  0.00000000000E+00 0.  1.
         21   -1    0    0  502  503 -0.00000000000E+00 -0.00000000000E+00 -0.26634016239E+01  0.26634016239E+01  0.00000000000E+00 0.  1.
          5    1    1    2  501    0  0.10181610491E+01 -0.21758493395E+01  0.51405751876E+01  0.73679363142E+01  0.47000000000E+01 0.  1.
         -5    1    1    2    0  503 -0.10181610491E+01  0.21758493395E+01  0.29447929809E+01  0.60442351022E+01  0.47000000000E+01 0.  1.
<mgrwt>
<rscale>  2 0.52783494E+01</rscale>
<asrwt>0</asrwt>
<pdfrwt beam="1">  1       21 0.16536569E-02 0.52783494E+01</pdfrwt>
<pdfrwt beam="2">  1       21 0.40975410E-03 0.52783494E+01</pdfrwt>
<totfact> 0.47510366E+09</totfact>
</mgrwt>
</event>
<event>
 4    1  0.3989279E+006  0.5519429E+01  0.7546771E-02  0.2482509E+00
         21   -1    0    0  503  502  0.00000000000E+00  0.00000000000E+00  0.36609824099E+02  0.36609824099E+02  0.00000000000E+00 0. -1.
         21   -1    0    0  501  503 -0.00000000000E+00 -0.00000000000E+00 -0.21189987387E+01  0.21189987387E+01  0.00000000000E+00 0.  1.
          5    1    1    2  501    0  0.23377074618E+01 -0.17056429266E+01  0.21548213860E+01  0.59251454983E+01  0.47000000000E+01 0.  1.
         -5    1    1    2    0  502 -0.23377074618E+01  0.17056429266E+01  0.32336003974E+02  0.32803677339E+02  0.47000000000E+01 0. -1.
<mgrwt>
<rscale>  2 0.55194288E+01</rscale>
<asrwt>0</asrwt>
<pdfrwt beam="1">  1       21 0.56322801E-02 0.55194288E+01</pdfrwt>
<pdfrwt beam="2">  1       21 0.32599983E-03 0.55194288E+01</pdfrwt>
<totfact> 0.11530695E+09</totfact>
</mgrwt>
</event>
<event>
 4    1  0.3989279E+006  0.7298947E+01  0.7546771E-02  0.2271871E+00
         21   -1    0    0  503  502  0.00000000000E+00  0.00000000000E+00  0.10226677346E+03  0.10226677346E+03  0.00000000000E+00 0. -1.
         21   -1    0    0  501  503 -0.00000000000E+00 -0.00000000000E+00 -0.66761350232E+01  0.66761350232E+01  0.00000000000E+00 0.  1.
          5    1    1    2  501    0 -0.10265573859E+00  0.55833761129E+01 -0.45077772593E+01  0.85787343378E+01  0.47000000000E+01 0.  1.
         -5    1    1    2    0  502  0.10265573859E+00 -0.55833761129E+01  0.10009841570E+03  0.10036417415E+03  0.47000000000E+01 0. -1.
<mgrwt>
<rscale>  2 0.72989470E+01</rscale>
<asrwt>0</asrwt>
<pdfrwt beam="1">  1       21 0.15733349E-01 0.72989470E+01</pdfrwt>
<pdfrwt beam="2">  1       21 0.10270978E-02 0.72989470E+01</pdfrwt>
<totfact> 0.57816033E+07</totfact>
</mgrwt>
</event>
<event>
 4    1  0.3989279E+006  0.1474075E+02  0.7546771E-02  0.1876084E+00
         21   -1    0    0  501  502  0.00000000000E+00  0.00000000000E+00  0.20855618379E+02  0.20855618379E+02  0.00000000000E+00 0. -1.
         21   -1    0    0  502  503 -0.00000000000E+00 -0.00000000000E+00 -0.12599554241E+02  0.12599554241E+02  0.00000000000E+00 0.  1.
          5    1    1    2  501    0 -0.35427239916E+01 -0.13514763111E+02  0.11087289131E+02  0.18444991068E+02  0.47000000000E+01 0. -1.
         -5    1    1    2    0  503  0.35427239916E+01  0.13514763111E+02 -0.28312249931E+01  0.15010181551E+02  0.47000000000E+01 0.  1.
<mgrwt>
<rscale>  2 0.14740750E+02</rscale>
<asrwt>0</asrwt>
<pdfrwt beam="1">  1       21 0.32085567E-02 0.14740750E+02</pdfrwt>
<pdfrwt beam="2">  1       21 0.19383930E-02 0.14740750E+02</pdfrwt>
<totfact> 0.38182897E+08</totfact>
</mgrwt>
</event>
<event>
 4    1  0.3989279E+006  0.1395732E+02  0.7546771E-02  0.1901660E+00
         21   -1    0    0  501  502  0.00000000000E+00  0.00000000000E+00  0.11882155959E+02  0.11882155959E+02  0.00000000000E+00 0. -1.
         21   -1    0    0  502  503 -0.00000000000E+00 -0.00000000000E+00 -0.22199199089E+02  0.22199199089E+02  0.00000000000E+00 0.  1.
          5    1    1    2  501    0  0.65531038689E+01  0.11391827013E+02  0.35549792003E+01  0.14402943106E+02  0.47000000000E+01 0. -1.
         -5    1    1    2    0  503 -0.65531038689E+01 -0.11391827013E+02 -0.13872022330E+02  0.19678411941E+02  0.47000000000E+01 0.  1.
<mgrwt>
<rscale>  2 0.13957324E+02</rscale>
<asrwt>0</asrwt>
<pdfrwt beam="1">  1       21 0.18280240E-02 0.13957324E+02</pdfrwt>
<pdfrwt beam="2">  1       21 0.34152614E-02 0.13957324E+02</pdfrwt>
<totfact> 0.37023902E+08</totfact>
</mgrwt>
</event>
<event>
 4    1  0.3989279E+006  0.7472425E+01  0.7546771E-02  0.2255847E+00
         21   -1    0    0  501  502  0.00000000000E+00  0.00000000000E+00  0.93663702455E+00  0.93663702455E+00  0.00000000000E+00 0. -1.
         21   -1    0    0  502  503 -0.00000000000E+00 -0.00000000000E+00 -0.12846879697E+03  0.12846879697E+03  0.00000000000E+00 0.  1.
          5    1    1    2  501    0 -0.43699845520E+01 -0.38275803573E+01 -0.16397621421E+02  0.18019964613E+02  0.47000000000E+01 0. -1.
         -5    1    1    2    0  503  0.43699845520E+01  0.38275803573E+01 -0.11113453852E+03  0.11138546938E+03  0.47000000000E+01 0.  1.
<mgrwt>
<rscale>  2 0.74724251E+01</rscale>
<asrwt>0</asrwt>
<pdfrwt beam="1">  1       21 0.14409796E-03 0.74724251E+01</pdfrwt>
<pdfrwt beam="2">  1       21 0.19764436E-01 0.74724251E+01</pdfrwt>
<totfact> 0.63009345E+08</totfact>
</mgrwt>
</event>
<event>
 4    1  0.3989279E+006  0.5516301E+01  0.7546771E-02  0.2482978E+00
         21   -1    0    0  503  502  0.00000000000E+00  0.00000000000E+00  0.91531768881E+02  0.91531768881E+02  0.00000000000E+00 0.  1.
         21   -1    0    0  501  503 -0.00000000000E+00 -0.00000000000E+00 -0.13574942304E+01  0.13574942304E+01  0.00000000000E+00 0.  1.
          5    1    1    2  501    0 -0.28162591352E+01  0.63895657047E+00  0.47283425518E+01  0.72654527941E+01  0.47000000000E+01 0.  1.
         -5    1    1    2    0  502  0.28162591352E+01 -0.63895657047E+00  0.85445932099E+02  0.85623810318E+02  0.47000000000E+01 0.  1.
<mgrwt>
<rscale>  2 0.55163014E+01</rscale>
<asrwt>0</asrwt>
<pdfrwt beam="1">  1       21 0.14081806E-01 0.55163014E+01</pdfrwt>
<pdfrwt beam="2">  1       21 0.20884534E-03 0.55163014E+01</pdfrwt>
<totfact> 0.52660427E+08</totfact>
</mgrwt>
</event>
<event>
 4    1  0.3989279E+006  0.7305855E+01  0.7546771E-02  0.2271221E+00
         21   -1    0    0  501  502  0.00000000000E+00  0.00000000000E+00  0.34604231331E+01  0.34604231331E+01  0.00000000000E+00 0.  1.
         21   -1    0    0  502  503 -0.00000000000E+00 -0.00000000000E+00 -0.15565078920E+02  0.15565078920E+02  0.00000000000E+00 0. -1.
          5    1    1    2  501    0  0.53411822389E+01 -0.16605094172E+01 -0.51484886944E+01  0.89376985332E+01  0.47000000000E+01 0.  1.
         -5    1    1    2    0  503 -0.53411822389E+01  0.16605094172E+01 -0.69561670922E+01  0.10087803520E+02  0.47000000000E+01 0. -1.
<mgrwt>
<rscale>  2 0.73058551E+01</rscale>
<asrwt>0</asrwt>
<pdfrwt beam="1">  1       21 0.53237280E-03 0.73058551E+01</pdfrwt>
<pdfrwt beam="2">  1       21 0.23946275E-02 0.73058551E+01</pdfrwt>
<totfact> 0.25782919E+09</totfact>
</mgrwt>
</event>
<event>
 4    1  0.3989279E+006  0.5908989E+01  0.7546771E-02  0.2427421E+00
         21   -1    0    0  503  502  0.00000000000E+00  0.00000000000E+00  0.18145546362E+00  0.18145546362E+00  0.00000000000E+00 0.  1.
         21   -1    0    0  501  503 -0.00000000000E+00 -0.00000000000E+00 -0.38682377966E+03  0.38682377966E+03  0.00000000000E+00 0. -1.
          5    1    1    2  501    0  0.75187604884E+00 -0.35015467865E+01 -0.33049762973E+03  0.33055044911E+03  0.47000000000E+01 0. -1.
         -5    1    1    2    0  502 -0.75187604884E+00  0.35015467865E+01 -0.56144694464E+02  0.56454786014E+02  0.47000000000E+01 0.  1.
<mgrwt>
<rscale>  2 0.59089887E+01</rscale>
<asrwt>0</asrwt>
<pdfrwt beam="1">  1       21 0.27916258E-04 0.59089887E+01</pdfrwt>
<pdfrwt beam="2">  1       21 0.59511280E-01 0.59089887E+01</pdfrwt>
<totfact> 0.72800104E+08</totfact>
</mgrwt>
</event>
<event>
 4    1  0.3989279E+006  0.1213691E+02  0.7546771E-02  0.1970524E+00
         21   -1    0    0  501  502  0.00000000000E+00  0.00000000000E+00  0.73736748851E+00  0.73736748851E+00  0.00000000000E+00 0. -1.
         21   -1    0    0  502  503 -0.00000000000E+00 -0.00000000000E+00 -0.20361396623E+03  0.20361396623E+03  0.00000000000E+00 0.  1.
          5    1    1    2  501    0  0.99327541410E+01  0.51531609461E+01 -0.87401291944E+02  0.88239959803E+02  0.47000000000E+01 0. -1.
         -5    1    1    2    0  503 -0.99327541410E+01 -0.51531609461E+01 -0.11547530679E+03  0.11611137391E+03  0.47000000000E+01 0.  1.
<mgrwt>
<rscale>  2 0.12136914E+02</rscale>
<asrwt>0</asrwt>
<pdfrwt beam="1">  1       21 0.11344121E-03 0.12136914E+02</pdfrwt>
<pdfrwt beam="2">  1       21 0.31325210E-01 0.12136914E+02</pdfrwt>
<totfact> 0.52035369E+08</totfact>
</mgrwt>
</event>
<event>
 4    1  0.3989279E+006  0.5061385E+01  0.7546771E-02  0.2556378E+00
         21   -1    0    0  501  502  0.00000000000E+00  0.00000000000E+00  0.79354930451E+00  0.79354930451E+00  0.00000000000E+00 0.  1.
         21   -1    0    0  502  503 -0.00000000000E+00 -0.00000000000E+00 -0.37787862962E+02  0.37787862962E+02  0.00000000000E+00 0.  1.
          5    1    1    2  501    0 -0.16782431190E+01  0.84327856290E+00 -0.11133869745E+02  0.12230317829E+02  0.47000000000E+01 0.  1.
         -5    1    1    2    0  503  0.16782431190E+01 -0.84327856290E+00 -0.25860443912E+02  0.26351094437E+02  0.47000000000E+01 0.  1.
<mgrwt>
<rscale>  2 0.50613851E+01</rscale>
<asrwt>0</asrwt>
<pdfrwt beam="1">  1       21 0.12208451E-03 0.50613851E+01</pdfrwt>
<pdfrwt beam="2">  1       21 0.58135173E-02 0.50613851E+01</pdfrwt>
<totfact> 0.38195686E+09</totfact>
</mgrwt>
</event>
<event>
 4    1  0.3989279E+006  0.5628608E+01  0.7546771E-02  0.2466422E+00
         21   -1    0    0  501  502  0.00000000000E+00  0.00000000000E+00  0.12068465051E+00  0.12068465051E+00  0.00000000000E+00 0. -1.
         21   -1    0    0  502  503 -0.00000000000E+00 -0.00000000000E+00 -0.35130025010E+03  0.35130025010E+03  0.00000000000E+00 0. -1.
          5    1    1    2  501    0  0.15965827315E+01  0.26537049272E+01 -0.26392522584E+03  0.26398523834E+03  0.47000000000E+01 0. -1.
         -5    1    1    2    0  503 -0.15965827315E+01 -0.26537049272E+01 -0.87254339608E+02  0.87435696410E+02  0.47000000000E+01 0. -1.
<mgrwt>
<rscale>  2 0.56286078E+01</rscale>
<asrwt>0</asrwt>
<pdfrwt beam="1">  1       21 0.18567253E-04 0.56286078E+01</pdfrwt>
<pdfrwt beam="2">  1       21 0.54045076E-01 0.56286078E+01</pdfrwt>
<totfact> 0.14416106E+09</totfact>
</mgrwt>
</event>
<event>
 4    1  0.3989279E+006  0.8057094E+01  0.7546771E-02  0.2206008E+00
         21   -1    0    0  501  502  0.00000000000E+00  0.00000000000E+00  0.21013123573E+02  0.21013123573E+02  0.00000000000E+00 0. -1.
         21   -1    0    0  502  503 -0.00000000000E+00 -0.00000000000E+00 -0.36497090740E+02  0.36497090740E+02  0.00000000000E+00 0.  1.
          5    1    1    2  501    0  0.58670208239E+01 -0.28991099002E+01  0.19769211574E+02  0.21348032645E+02  0.47000000000E+01 0. -1.
         -5    1    1    2    0  503 -0.58670208239E+01  0.28991099002E+01 -0.35253178742E+02  0.36162181667E+02  0.47000000000E+01 0.  1.
<mgrwt>
<rscale>  2 0.80570945E+01</rscale>
<asrwt>0</asrwt>
<pdfrwt beam="1">  1       21 0.32327883E-02 0.80570945E+01</pdfrwt>
<pdfrwt beam="2">  1       21 0.56149370E-02 0.80570945E+01</pdfrwt>
<totfact> 0.57171535E+07</totfact>
</mgrwt>
</event>
<event>
 4    1  0.3989279E+006  0.9294780E+01  0.7546771E-02  0.2117494E+00
         21   -1    0    0  503  502  0.00000000000E+00  0.00000000000E+00  0.78741599607E+01  0.78741599607E+01  0.00000000000E+00 0.  1.
         21   -1    0    0  501  503 -0.00000000000E+00 -0.00000000000E+00 -0.16592652844E+02  0.16592652844E+02  0.00000000000E+00 0. -1.
          5    1    1    2  501    0 -0.65459180946E+00  0.79921486822E+01 -0.11479482813E+02  0.14770628174E+02  0.47000000000E+01 0. -1.
         -5    1    1    2    0  502  0.65459180946E+00 -0.79921486822E+01  0.27609899299E+01  0.96961846305E+01  0.47000000000E+01 0.  1.
<mgrwt>
<rscale>  2 0.92947798E+01</rscale>
<asrwt>0</asrwt>
<pdfrwt beam="1">  1       21 0.12114092E-02 0.92947798E+01</pdfrwt>
<pdfrwt beam="2">  1       21 0.25527158E-02 0.92947798E+01</pdfrwt>
<totfact> 0.85418343E+08</totfact>
</mgrwt>
</event>
<event>
 4    1  0.3989279E+006  0.5886487E+01  0.7546771E-02  0.2430436E+00
         21   -1    0    0  501  502  0.00000000000E+00  0.00000000000E+00  0.68608436114E+01  0.68608436114E+01  0.00000000000E+00 0.  1.
         21   -1    0    0  502  503 -0.00000000000E+00 -0.00000000000E+00 -0.28739196245E+02  0.28739196245E+02  0.00000000000E+00 0.  1.
          5    1    1    2  501    0  0.17861142394E+01  0.30611322859E+01  0.52212829881E+01  0.78684516260E+01  0.47000000000E+01 0.  1.
         -5    1    1    2    0  503 -0.17861142394E+01 -0.30611322859E+01 -0.27099635621E+02  0.27731588230E+02  0.47000000000E+01 0.  1.
<mgrwt>
<rscale>  2 0.58864875E+01</rscale>
<asrwt>0</asrwt>
<pdfrwt beam="1">  1       21 0.10555144E-02 0.58864875E+01</pdfrwt>
<pdfrwt beam="2">  1       21 0.44214147E-02 0.58864875E+01</pdfrwt>
<totfact> 0.33908583E+08</totfact>
</mgrwt>
</event>
<event>
 4    1  0.3989279E+006  0.5013127E+01  0.7546771E-02  0.2564830E+00
         21   -1    0    0  501  502  0.00000000000E+00  0.00000000000E+00  0.29295004813E+03  0.29295004813E+03  0.00000000000E+00 0. -1.
         21   -1    0    0  502  503 -0.00000000000E+00 -0.00000000000E+00 -0.16514084295E+00  0.16514084295E+00  0.00000000000E+00 0.  1.
          5    1    1    2  501    0 -0.16576386012E+01 -0.54192156781E+00  0.24798544861E+03  0.24803611465E+03  0.47000000000E+01 0. -1.
         -5    1    1    2    0  503  0.16576386012E+01  0.54192156781E+00  0.44799458674E+02  0.45079074327E+02  0.47000000000E+01 0.  1.
<mgrwt>
<rscale>  2 0.50131272E+01</rscale>
<asrwt>0</asrwt>
<pdfrwt beam="1">  1       21 0.45068822E-01 0.50131272E+01</pdfrwt>
<pdfrwt beam="2">  1       21 0.25406518E-04 0.50131272E+01</pdfrwt>
<totfact> 0.11952970E+09</totfact>
</mgrwt>
</event>
<event>
 4    1  0.3989279E+006  0.5868838E+01  0.7546771E-02  0.2432814E+00
         21   -1    0    0  501  502  0.00000000000E+00  0.00000000000E+00  0.27902409003E+02  0.27902409003E+02  0.00000000000E+00 0. -1.
         21   -1    0    0  502  503 -0.00000000000E+00 -0.00000000000E+00 -0.16326272571E+01  0.16326272571E+01  0.00000000000E+00 0. -1.
          5    1    1    2  501    0  0.31773849624E+01 -0.15024919046E+01  0.20428109840E+02  0.21254433155E+02  0.47000000000E+01 0. -1.
         -5    1    1    2    0  503 -0.31773849624E+01  0.15024919046E+01  0.58416719062E+01  0.82806031050E+01  0.47000000000E+01 0. -1.
<mgrwt>
<rscale>  2 0.58688378E+01</rscale>
<asrwt>0</asrwt>
<pdfrwt beam="1">  1       21 0.42926779E-02 0.58688378E+01</pdfrwt>
<pdfrwt beam="2">  1       21 0.25117345E-03 0.58688378E+01</pdfrwt>
<totfact> 0.25932234E+09</totfact>
</mgrwt>
</event>
<event>
 4    1  0.3989279E+006  0.5233571E+01  0.7546771E-02  0.2527315E+00
         21   -1    0    0  501  502  0.00000000000E+00  0.00000000000E+00  0.11671147395E+00  0.11671147395E+00  0.00000000000E+00 0. -1.
         21   -1    0    0  502  503 -0.00000000000E+00 -0.00000000000E+00 -0.32146655441E+03  0.32146655441E+03  0.00000000000E+00 0.  1.
          5    1    1    2  501    0  0.16483643946E+01 -0.16072228642E+01 -0.77131409436E+02  0.77308761419E+02  0.47000000000E+01 0. -1.
         -5    1    1    2    0  503 -0.16483643946E+01  0.16072228642E+01 -0.24421843350E+03  0.24427450446E+03  0.47000000000E+01 0.  1.
<mgrwt>
<rscale>  2 0.52335715E+01</rscale>
<asrwt>0</asrwt>
<pdfrwt beam="1">  1       21 0.17955624E-04 0.52335715E+01</pdfrwt>
<pdfrwt beam="2">  1       21 0.49456359E-01 0.52335715E+01</pdfrwt>
<totfact> 0.16668570E+09</totfact>
</mgrwt>
</event>
<event>
 4    1  0.3989279E+006  0.5337665E+01  0.7546771E-02  0.2510526E+00
         21   -1    0    0  501  502  0.00000000000E+00  0.00000000000E+00  0.27706309123E+02  0.27706309123E+02  0.00000000000E+00 0.  1.
         21   -1    0    0  502  503 -0.00000000000E+00 -0.00000000000E+00 -0.17159089661E+01  0.17159089661E+01  0.00000000000E+00 0.  1.
          5    1    1    2  501    0 -0.72586336129E+00  0.24235903202E+01  0.22307693544E+02  0.22937389976E+02  0.47000000000E+01 0.  1.
         -5    1    1    2    0  503  0.72586336129E+00 -0.24235903202E+01  0.36827066131E+01  0.64848281132E+01  0.47000000000E+01 0.  1.
<mgrwt>
<rscale>  2 0.53376650E+01</rscale>
<asrwt>0</asrwt>
<pdfrwt beam="1">  1       21 0.42625088E-02 0.53376650E+01</pdfrwt>
<pdfrwt beam="2">  1       21 0.26398601E-03 0.53376650E+01</pdfrwt>
<totfact> 0.22471183E+09</totfact>
</mgrwt>
</event>
<event>
 4    1  0.3989279E+006  0.5003403E+01  0.7546771E-02  0.2566550E+00
         21   -1    0    0  501  502  0.00000000000E+00  0.00000000000E+00  0.77611143536E-01  0.77611143536E-01  0.00000000000E+00 0.  1.
         21   -1    0    0  502  503 -0.00000000000E+00 -0.00000000000E+00 -0.48531821297E+03  0.48531821297E+03  0.00000000000E+00 0.  1.
          5    1    1    2  501    0 -0.41236439905E+00  0.16655313848E+01 -0.10207127716E+03  0.10219383377E+03  0.47000000000E+01 0.  1.
         -5    1    1    2    0  503  0.41236439905E+00 -0.16655313848E+01 -0.38316932466E+03  0.38320199034E+03  0.47000000000E+01 0.  1.
<mgrwt>
<rscale>  2 0.50034028E+01</rscale>
<asrwt>0</asrwt>
<pdfrwt beam="1">  1       21 0.11940042E-04 0.50034028E+01</pdfrwt>
<pdfrwt beam="2">  1       21 0.74665175E-01 0.50034028E+01</pdfrwt>
<totfact> 0.12942870E+09</totfact>
</mgrwt>
</event>
<event>
 4    1  0.3989279E+006  0.6092537E+01  0.7546771E-02  0.2403533E+00
         21   -1    0    0  501  502  0.00000000000E+00  0.00000000000E+00  0.56277542791E+01  0.56277542791E+01  0.00000000000E+00 0.  1.
         21   -1    0    0  502  503 -0.00000000000E+00 -0.00000000000E+00 -0.71818718957E+01  0.71818718957E+01  0.00000000000E+00 0.  1.
          5    1    1    2  501    0 -0.34675865804E+01  0.17334513203E+01  0.10527177964E+01  0.61828169091E+01  0.47000000000E+01 0.  1.
         -5    1    1    2    0  503  0.34675865804E+01 -0.17334513203E+01 -0.26068354131E+01  0.66268092657E+01  0.47000000000E+01 0.  1.
<mgrwt>
<rscale>  2 0.60925373E+01</rscale>
<asrwt>0</asrwt>
<pdfrwt beam="1">  1       21 0.86580835E-03 0.60925373E+01</pdfrwt>
<pdfrwt beam="2">  1       21 0.11049034E-02 0.60925373E+01</pdfrwt>
<totfact> 0.34045412E+09</totfact>
</mgrwt>
</event>
<event>
 4    1  0.3989279E+006  0.1094609E+02  0.7546771E-02  0.2024832E+00
         21   -1    0    0  503  502  0.00000000000E+00  0.00000000000E+00  0.34795968112E+02  0.34795968112E+02  0.00000000000E+00 0.  1.
         21   -1    0    0  501  503 -0.00000000000E+00 -0.00000000000E+00 -0.56022749210E+01  0.56022749210E+01  0.00000000000E+00 0. -1.
          5    1    1    2  501    0  0.49402613400E+01 -0.85627487953E+01  0.20578489249E+01  0.11137845000E+02  0.47000000000E+01 0. -1.
         -5    1    1    2    0  502 -0.49402613400E+01  0.85627487953E+01  0.27135844266E+02  0.29260398033E+02  0.47000000000E+01 0.  1.
<mgrwt>
<rscale>  2 0.10946088E+02</rscale>
<asrwt>0</asrwt>
<pdfrwt beam="1">  1       21 0.53532258E-02 0.10946088E+02</pdfrwt>
<pdfrwt beam="2">  1       21 0.86188846E-03 0.10946088E+02</pdfrwt>
<totfact> 0.50046028E+08</totfact>
</mgrwt>
</event>
<event>
 4    1  0.3989279E+006  0.5029484E+01  0.7546771E-02  0.2561950E+00
         21   -1    0    0  503  502  0.00000000000E+00  0.00000000000E+00  0.83201580063E+01  0.83201580063E+01  0.00000000000E+00 0.  1.
         21   -1    0    0  501  503 -0.00000000000E+00 -0.00000000000E+00 -0.30936683051E+01  0.30936683051E+01  0.00000000000E+00 0.  1.
          5    1    1    2  501    0 -0.54222630584E+00 -0.17063712328E+01  0.33628585350E+01  0.60501677396E+01  0.47000000000E+01 0.  1.
         -5    1    1    2    0  502  0.54222630584E+00  0.17063712328E+01  0.18636311662E+01  0.53636585718E+01  0.47000000000E+01 0.  1.
<mgrwt>
<rscale>  2 0.50294843E+01</rscale>
<asrwt>0</asrwt>
<pdfrwt beam="1">  1       21 0.12800243E-02 0.50294843E+01</pdfrwt>
<pdfrwt beam="2">  1       21 0.47594897E-03 0.50294843E+01</pdfrwt>
<totfact> 0.52773345E+09</totfact>
</mgrwt>
</event>
<event>
 4    1  0.3989279E+006  0.5561994E+01  0.7546771E-02  0.2476174E+00
         21   -1    0    0  501  502  0.00000000000E+00  0.00000000000E+00  0.40859465430E+02  0.40859465430E+02  0.00000000000E+00 0.  1.
         21   -1    0    0  502  503 -0.00000000000E+00 -0.00000000000E+00 -0.89817804488E+00  0.89817804488E+00  0.00000000000E+00 0.  1.
          5    1    1    2  501    0 -0.24164658490E+01 -0.17339169501E+01  0.28254615302E+02  0.28796858528E+02  0.47000000000E+01 0.  1.
         -5    1    1    2    0  503  0.24164658490E+01  0.17339169501E+01  0.11706672083E+02  0.12960784947E+02  0.47000000000E+01 0.  1.
<mgrwt>
<rscale>  2 0.55619938E+01</rscale>
<asrwt>0</asrwt>
<pdfrwt beam="1">  1       21 0.62860702E-02 0.55619938E+01</pdfrwt>
<pdfrwt beam="2">  1       21 0.13818127E-03 0.55619938E+01</pdfrwt>
<totfact> 0.31589747E+09</totfact>
</mgrwt>
</event>
<event>
 4    1  0.3989279E+006  0.1333457E+02  0.7546771E-02  0.1923597E+00
         21   -1    0    0  501  502  0.00000000000E+00  0.00000000000E+00  0.44977229746E+01  0.44977229746E+01  0.00000000000E+00 0. -1.
         21   -1    0    0  502  503 -0.00000000000E+00 -0.00000000000E+00 -0.46553857224E+03  0.46553857224E+03  0.00000000000E+00 0.  1.
          5    1    1    2  501    0 -0.11533523272E+02  0.47642911798E+01 -0.57024865957E+01  0.14502723292E+02  0.47000000000E+01 0. -1.
         -5    1    1    2    0  503  0.11533523272E+02 -0.47642911798E+01 -0.45533836267E+03  0.45553357193E+03  0.47000000000E+01 0.  1.
<mgrwt>
<rscale>  2 0.13334565E+02</rscale>
<asrwt>0</asrwt>
<pdfrwt beam="1">  1       21 0.69195743E-03 0.13334565E+02</pdfrwt>
<pdfrwt beam="2">  1       21 0.71621314E-01 0.13334565E+02</pdfrwt>
<totfact> 0.86652706E+06</totfact>
</mgrwt>
</event>
<event>
 4    1  0.3989279E+006  0.6477864E+01  0.7546771E-02  0.2357090E+00
         21   -1    0    0  503  502  0.00000000000E+00  0.00000000000E+00  0.19946561282E+02  0.19946561282E+02  0.00000000000E+00 0.  1.
         21   -1    0    0  501  503 -0.00000000000E+00 -0.00000000000E+00 -0.35786143652E+02  0.35786143652E+02  0.00000000000E+00 0.  1.
          5    1    1    2  501    0  0.87765405365E+00 -0.43706340397E+01 -0.34954649870E+02  0.35549827933E+02  0.47000000000E+01 0.  1.
         -5    1    1    2    0  502 -0.87765405365E+00  0.43706340397E+01  0.19115067499E+02  0.20182877001E+02  0.47000000000E+01 0.  1.
<mgrwt>
<rscale>  2 0.64778637E+01</rscale>
<asrwt>0</asrwt>
<pdfrwt beam="1">  1       21 0.30687018E-02 0.64778637E+01</pdfrwt>
<pdfrwt beam="2">  1       21 0.55055605E-02 0.64778637E+01</pdfrwt>
<totfact> 0.56472720E+07</totfact>
</mgrwt>
</event>
<event>
 4    1  0.3989279E+006  0.5103806E+01  0.7546771E-02  0.2549062E+00
         21   -1    0    0  503  502  0.00000000000E+00  0.00000000000E+00  0.31810995346E+00  0.31810995346E+00  0.00000000000E+00 0.  1.
         21   -1    0    0  501  503 -0.00000000000E+00 -0.00000000000E+00 -0.89968281297E+02  0.89968281297E+02  0.00000000000E+00 0.  1.
          5    1    1    2  501    0  0.15184224435E+01 -0.12857775516E+01 -0.58355400347E+02  0.58578166413E+02  0.47000000000E+01 0.  1.
         -5    1    1    2    0  502 -0.15184224435E+01  0.12857775516E+01 -0.31294770997E+02  0.31708224838E+02  0.47000000000E+01 0.  1.
<mgrwt>
<rscale>  2 0.51038055E+01</rscale>
<asrwt>0</asrwt>
<pdfrwt beam="1">  1       21 0.48939953E-04 0.51038055E+01</pdfrwt>
<pdfrwt beam="2">  1       21 0.13841285E-01 0.51038055E+01</pdfrwt>
<totfact> 0.35090833E+09</totfact>
</mgrwt>
</event>
<event>
 4    1  0.3989279E+006  0.6917650E+01  0.7546771E-02  0.2309377E+00
         21   -1    0    0  501  502  0.00000000000E+00  0.00000000000E+00  0.66943327969E+00  0.66943327969E+00  0.00000000000E+00 0. -1.
         21   -1    0    0  502  503 -0.00000000000E+00 -0.00000000000E+00 -0.94730371619E+02  0.94730371619E+02  0.00000000000E+00 0. -1.
          5    1    1    2  501    0  0.17152267620E+01  0.47772247054E+01 -0.23401274447E+02  0.24402326211E+02  0.47000000000E+01 0. -1.
         -5    1    1    2    0  503 -0.17152267620E+01 -0.47772247054E+01 -0.70659663892E+02  0.70997478688E+02  0.47000000000E+01 0. -1.
<mgrwt>
<rscale>  2 0.69176498E+01</rscale>
<asrwt>0</asrwt>
<pdfrwt beam="1">  1       21 0.10298972E-03 0.69176498E+01</pdfrwt>
<pdfrwt beam="2">  1       21 0.14573906E-01 0.69176498E+01</pdfrwt>
<totfact> 0.15441033E+09</totfact>
</mgrwt>
</event>
<event>
 4    1  0.3989279E+006  0.5675589E+01  0.7546771E-02  0.2459661E+00
         21   -1    0    0  501  502  0.00000000000E+00  0.00000000000E+00  0.43903388652E+02  0.43903388652E+02  0.00000000000E+00 0.  1.
         21   -1    0    0  502  503 -0.00000000000E+00 -0.00000000000E+00 -0.82419489666E+00  0.82419489666E+00  0.00000000000E+00 0.  1.
          5    1    1    2  501    0 -0.17047391023E+01 -0.26862942336E+01  0.28949642580E+02  0.29500747747E+02  0.47000000000E+01 0.  1.
         -5    1    1    2    0  503  0.17047391023E+01  0.26862942336E+01  0.14129551175E+02  0.15226835801E+02  0.47000000000E+01 0.  1.
<mgrwt>
<rscale>  2 0.56755891E+01</rscale>
<asrwt>0</asrwt>
<pdfrwt beam="1">  1       21 0.67543657E-02 0.56755891E+01</pdfrwt>
<pdfrwt beam="2">  1       21 0.12679925E-03 0.56755891E+01</pdfrwt>
<totfact> 0.32441881E+09</totfact>
</mgrwt>
</event>
<event>
 4    1  0.3989279E+006  0.6421007E+01  0.7546771E-02  0.2363651E+00
         21   -1    0    0  501  502  0.00000000000E+00  0.00000000000E+00  0.40790668824E+00  0.40790668824E+00  0.00000000000E+00 0.  1.
         21   -1    0    0  502  503 -0.00000000000E+00 -0.00000000000E+00 -0.15438132973E+03  0.15438132973E+03  0.00000000000E+00 0.  1.
          5    1    1    2  501    0  0.41786817381E+01 -0.12953580724E+01 -0.31508736844E+02  0.32156334230E+02  0.47000000000E+01 0.  1.
         -5    1    1    2    0  503 -0.41786817381E+01  0.12953580724E+01 -0.12246468620E+03  0.12263290219E+03  0.47000000000E+01 0.  1.
<mgrwt>
<rscale>  2 0.64210072E+01</rscale>
<asrwt>0</asrwt>
<pdfrwt beam="1">  1       21 0.62754817E-04 0.64210072E+01</pdfrwt>
<pdfrwt beam="2">  1       21 0.23750996E-01 0.64210072E+01</pdfrwt>
<totfact> 0.12930494E+09</totfact>
</mgrwt>
</event>
<event>
 4    1  0.3989279E+006  0.1425233E+02  0.7546771E-02  0.1891780E+00
         21   -1    0    0  503  502  0.00000000000E+00  0.00000000000E+00  0.56130909413E+02  0.56130909413E+02  0.00000000000E+00 0.  1.
         21   -1    0    0  501  503 -0.00000000000E+00 -0.00000000000E+00 -0.37403854447E+01  0.37403854447E+01  0.00000000000E+00 0. -1.
          5    1    1    2  501    0 -0.13235690845E+02 -0.24197720231E+01  0.20798926886E+02  0.25213571116E+02  0.47000000000E+01 0. -1.
         -5    1    1    2    0  502  0.13235690845E+02  0.24197720231E+01  0.31591597082E+02  0.34657723742E+02  0.47000000000E+01 0. -1.
<mgrwt>
<rscale>  2 0.14252326E+02</rscale>
<asrwt>0</asrwt>
<pdfrwt beam="1">  1       21 0.86355239E-02 0.14252326E+02</pdfrwt>
<pdfrwt beam="2">  1       21 0.57544396E-03 0.14252326E+02</pdfrwt>
<totfact> 0.48110785E+08</totfact>
</mgrwt>
</event>
<event>
 4    1  0.3989279E+006  0.4734005E+01  0.7546771E-02  0.2616621E+00
         21   -1    0    0  503  502  0.00000000000E+00  0.00000000000E+00  0.59915899521E+00  0.59915899521E+00  0.00000000000E+00 0. -1.
         21   -1    0    0  501  503 -0.00000000000E+00 -0.00000000000E+00 -0.48527806334E+02  0.48527806334E+02  0.00000000000E+00 0. -1.
          5    1    1    2  501    0  0.41648689043E+00 -0.38385086455E+00 -0.35724826501E+02  0.36037120187E+02  0.47000000000E+01 0. -1.
         -5    1    1    2    0  502 -0.41648689043E+00  0.38385086455E+00 -0.12203820837E+02  0.13089845142E+02  0.47000000000E+01 0. -1.
<mgrwt>
<rscale>  2 0.47340049E+01</rscale>
<asrwt>0</asrwt>
<pdfrwt beam="1">  1       21 0.92178247E-04 0.47340049E+01</pdfrwt>
<pdfrwt beam="2">  1       21 0.74658213E-02 0.47340049E+01</pdfrwt>
<totfact> 0.35775201E+09</totfact>
</mgrwt>
</event>
<event>
 4    1  0.3989279E+006  0.9227706E+01  0.7546771E-02  0.2121802E+00
         21   -1    0    0  501  502  0.00000000000E+00  0.00000000000E+00  0.41005507878E+03  0.41005507878E+03  0.00000000000E+00 0.  1.
         21   -1    0    0  502  503 -0.00000000000E+00 -0.00000000000E+00 -0.28150076287E+00  0.28150076287E+00  0.00000000000E+00 0. -1.
          5    1    1    2  501    0  0.79740161894E+00  0.79009304156E+01  0.30996899969E+03  0.31010632260E+03  0.47000000000E+01 0.  1.
         -5    1    1    2    0  503 -0.79740161894E+00 -0.79009304156E+01  0.99804578326E+02  0.10023025694E+03  0.47000000000E+01 0. -1.
<mgrwt>
<rscale>  2 0.92277056E+01</rscale>
<asrwt>0</asrwt>
<pdfrwt beam="1">  1       21 0.63084919E-01 0.92277056E+01</pdfrwt>
<pdfrwt beam="2">  1       21 0.43308138E-04 0.92277056E+01</pdfrwt>
<totfact> 0.47277882E+08</totfact>
</mgrwt>
</event>
<event>
 4    1  0.3989279E+006  0.5092790E+01  0.7546771E-02  0.2550952E+00
         21   -1    0    0  503  502  0.00000000000E+00  0.00000000000E+00  0.69131746401E+01  0.69131746401E+01  0.00000000000E+00 0.  1.
         21   -1    0    0  501  503 -0.00000000000E+00 -0.00000000000E+00 -0.39403719274E+01  0.39403719274E+01  0.00000000000E+00 0.  1.
          5    1    1    2  501    0  0.10608135317E+01  0.16496002730E+01  0.29907916710E+00  0.51015639522E+01  0.47000000000E+01 0. -1.
         -5    1    1    2    0  502 -0.10608135317E+01 -0.16496002730E+01  0.26737235456E+01  0.57519826154E+01  0.47000000000E+01 0. -1.
<mgrwt>
<rscale>  2 0.50927896E+01</rscale>
<asrwt>0</asrwt>
<pdfrwt beam="1">  1       21 0.10635653E-02 0.50927896E+01</pdfrwt>
<pdfrwt beam="2">  1       21 0.60621107E-03 0.50927896E+01</pdfrwt>
<totfact> 0.49683932E+09</totfact>
</mgrwt>
</event>
<event>
 4    1  0.3989279E+006  0.9569339E+01  0.7546771E-02  0.2100359E+00
         21   -1    0    0  501  502  0.00000000000E+00  0.00000000000E+00  0.89197923864E+01  0.89197923864E+01  0.00000000000E+00 0.  1.
         21   -1    0    0  502  503 -0.00000000000E+00 -0.00000000000E+00 -0.17722535950E+02  0.17722535950E+02  0.00000000000E+00 0.  1.
          5    1    1    2  501    0 -0.83332910278E+01  0.19623714286E+00  0.42391980951E+01  0.10466281520E+02  0.47000000000E+01 0.  1.
         -5    1    1    2    0  503  0.83332910278E+01 -0.19623714286E+00 -0.13041941659E+02  0.16176046817E+02  0.47000000000E+01 0.  1.
<mgrwt>
<rscale>  2 0.95693390E+01</rscale>
<asrwt>0</asrwt>
<pdfrwt beam="1">  1       21 0.13722758E-02 0.95693390E+01</pdfrwt>
<pdfrwt beam="2">  1       21 0.27265440E-02 0.95693390E+01</pdfrwt>
<totfact> 0.65722571E+08</totfact>
</mgrwt>
</event>
<event>
 4    1  0.3989279E+006  0.5200181E+01  0.7546771E-02  0.2532822E+00
         21   -1    0    0  503  502  0.00000000000E+00  0.00000000000E+00  0.44485000744E+02  0.44485000744E+02  0.00000000000E+00 0.  1.
         21   -1    0    0  501  503 -0.00000000000E+00 -0.00000000000E+00 -0.84114922374E+00  0.84114922374E+00  0.00000000000E+00 0.  1.
          5    1    1    2  501    0 -0.14731842833E+01  0.16678149430E+01  0.98874321930E+01  0.11171534988E+02  0.47000000000E+01 0.  1.
         -5    1    1    2    0  502  0.14731842833E+01 -0.16678149430E+01  0.33756419327E+02  0.34154614980E+02  0.47000000000E+01 0.  1.
<mgrwt>
<rscale>  2 0.52001806E+01</rscale>
<asrwt>0</asrwt>
<pdfrwt beam="1">  1       21 0.68438444E-02 0.52001806E+01</pdfrwt>
<pdfrwt beam="2">  1       21 0.12940761E-03 0.52001806E+01</pdfrwt>
<totfact> 0.28515113E+09</totfact>
</mgrwt>
</event>
<event>
 4    1  0.3989279E+006  0.5441408E+01  0.7546771E-02  0.2494340E+00
         21   -1    0    0  503  502  0.00000000000E+00  0.00000000000E+00  0.10683041188E+00  0.10683041188E+00  0.00000000000E+00 0.  1.
         21   -1    0    0  501  503 -0.00000000000E+00 -0.00000000000E+00 -0.27721726237E+03  0.27721726237E+03  0.00000000000E+00 0. -1.
          5    1    1    2  501    0 -0.11037671059E+01  0.25101025657E+01 -0.14058045466E+03  0.14068572475E+03  0.47000000000E+01 0. -1.
         -5    1    1    2    0  502  0.11037671059E+01 -0.25101025657E+01 -0.13652997730E+03  0.13663836803E+03  0.47000000000E+01 0.  1.
<mgrwt>
<rscale>  2 0.54414076E+01</rscale>
<asrwt>0</asrwt>
<pdfrwt beam="1">  1       21 0.16435466E-04 0.54414076E+01</pdfrwt>
<pdfrwt beam="2">  1       21 0.42648763E-01 0.54414076E+01</pdfrwt>
<totfact> 0.25141588E+09</totfact>
</mgrwt>
</event>
<event>
 4    1  0.3989279E+006  0.5560566E+01  0.7546771E-02  0.2476385E+00
         21   -1    0    0  503  502  0.00000000000E+00  0.00000000000E+00  0.14755232965E+00  0.14755232965E+00  0.00000000000E+00 0.  1.
         21   -1    0    0  501  503 -0.00000000000E+00 -0.00000000000E+00 -0.22980445439E+03  0.22980445439E+03  0.00000000000E+00 0.  1.
          5    1    1    2  501    0  0.16194218586E+01  0.24914596134E+01 -0.14896077970E+03  0.14906452894E+03  0.47000000000E+01 0.  1.
         -5    1    1    2    0  502 -0.16194218586E+01 -0.24914596134E+01 -0.80696122363E+02  0.80887477786E+02  0.47000000000E+01 0.  1.
<mgrwt>
<rscale>  2 0.55605664E+01</rscale>
<asrwt>0</asrwt>
<pdfrwt beam="1">  1       21 0.22700186E-04 0.55605664E+01</pdfrwt>
<pdfrwt beam="2">  1       21 0.35354800E-01 0.55605664E+01</pdfrwt>
<totfact> 0.23045145E+09</totfact>
</mgrwt>
</event>
<event>
 4    1  0.3989279E+006  0.7361398E+01  0.7546771E-02  0.2266031E+00
         21   -1    0    0  501  502  0.00000000000E+00  0.00000000000E+00  0.14435874423E+00  0.14435874423E+00  0.00000000000E+00 0. -1.
         21   -1    0    0  502  503 -0.00000000000E+00 -0.00000000000E+00 -0.47832941371E+03  0.47832941371E+03  0.00000000000E+00 0.  1.
          5    1    1    2  501    0 -0.13039918999E+01 -0.55136006097E+01 -0.12810738852E+03  0.12831871718E+03  0.47000000000E+01 0.  1.
         -5    1    1    2    0  503  0.13039918999E+01  0.55136006097E+01 -0.35007766645E+03  0.35015505527E+03  0.47000000000E+01 0.  1.
<mgrwt>
<rscale>  2 0.73613984E+01</rscale>
<asrwt>0</asrwt>
<pdfrwt beam="1">  1       21 0.22208926E-04 0.73613984E+01</pdfrwt>
<pdfrwt beam="2">  1       21 0.73589511E-01 0.73613984E+01</pdfrwt>
<totfact> 0.76392398E+08</totfact>
</mgrwt>
</event>
<event>
 4    1  0.3989279E+006  0.6040100E+01  0.7546771E-02  0.2410234E+00
         21   -1    0    0  501  502  0.00000000000E+00  0.00000000000E+00  0.37423733483E+00  0.37423733483E+00  0.00000000000E+00 0.  1.
         21   -1    0    0  502  503 -0.00000000000E+00 -0.00000000000E+00 -0.11421200361E+03  0.11421200361E+03  0.00000000000E+00 0.  1.
          5    1    1    2  501    0  0.22139237851E+01 -0.30808032345E+01 -0.34993562859E+02  0.35511015878E+02  0.47000000000E+01 0.  1.
         -5    1    1    2    0  503 -0.22139237851E+01  0.30808032345E+01 -0.78844203417E+02  0.79075225068E+02  0.47000000000E+01 0.  1.
<mgrwt>
<rscale>  2 0.60400999E+01</rscale>
<asrwt>0</asrwt>
<pdfrwt beam="1">  1       21 0.57574963E-04 0.60400999E+01</pdfrwt>
<pdfrwt beam="2">  1       21 0.17571081E-01 0.60400999E+01</pdfrwt>
<totfact> 0.22565992E+09</totfact>
</mgrwt>
</event>
<event>
 4    1  0.3989279E+006  0.5964452E+01  0.7546771E-02  0.2420073E+00
         21   -1    0    0  501  502  0.00000000000E+00  0.00000000000E+00  0.13456891505E+01  0.13456891505E+01  0.00000000000E+00 0.  1.
         21   -1    0    0  502  503 -0.00000000000E+00 -0.00000000000E+00 -0.30405964585E+02  0.30405964585E+02  0.00000000000E+00 0. -1.
          5    1    1    2  501    0 -0.35501651781E+01  0.93862258385E+00 -0.87936195020E+01  0.10625555472E+02  0.47000000000E+01 0. -1.
         -5    1    1    2    0  503  0.35501651781E+01 -0.93862258385E+00 -0.20266655933E+02  0.21126098264E+02  0.47000000000E+01 0. -1.
<mgrwt>
<rscale>  2 0.59644518E+01</rscale>
<asrwt>0</asrwt>
<pdfrwt beam="1">  1       21 0.20702911E-03 0.59644518E+01</pdfrwt>
<pdfrwt beam="2">  1       21 0.46778404E-02 0.59644518E+01</pdfrwt>
<totfact> 0.30163140E+09</totfact>
</mgrwt>
</event>
<event>
 4    1  0.3989279E+006  0.5344167E+01  0.7546771E-02  0.2509496E+00
         21   -1    0    0  503  502  0.00000000000E+00  0.00000000000E+00  0.22401151423E+04  0.22401151423E+04  0.00000000000E+00 0.  1.
         21   -1    0    0  501  503 -0.00000000000E+00 -0.00000000000E+00 -0.67084568003E-01  0.67084568003E-01  0.00000000000E+00 0.  1.
          5    1    1    2  501    0  0.21936063232E+01 -0.12877145009E+01  0.11197290787E+03  0.11210036670E+03  0.47000000000E+01 0.  1.
         -5    1    1    2    0  502 -0.21936063232E+01  0.12877145009E+01  0.21280751499E+04  0.21280818602E+04  0.47000000000E+01 0.  1.
<mgrwt>
<rscale>  2 0.53441667E+01</rscale>
<asrwt>0</asrwt>
<pdfrwt beam="1">  1       21 0.34457320E+00 0.53441667E+01</pdfrwt>
<pdfrwt beam="2">  1       21 0.10322497E-04 0.53441667E+01</pdfrwt>
<totfact> 0.57253948E+07</totfact>
</mgrwt>
</event>
<event>
 4    1  0.3989279E+006  0.5718430E+01  0.7546771E-02  0.2453577E+00
         21   -1    0    0  501  502  0.00000000000E+00  0.00000000000E+00  0.11557359950E+01  0.11557359950E+01  0.00000000000E+00 0. -1.
         21   -1    0    0  502  503 -0.00000000000E+00 -0.00000000000E+00 -0.29112741145E+02  0.29112741145E+02  0.00000000000E+00 0. -1.
          5    1    1    2  501    0 -0.30406595783E+01  0.11682604121E+01 -0.11440563859E+02  0.12790111198E+02  0.47000000000E+01 0. -1.
         -5    1    1    2    0  503  0.30406595783E+01 -0.11682604121E+01 -0.16516441291E+02  0.17478365942E+02  0.47000000000E+01 0. -1.
<mgrwt>
<rscale>  2 0.57184301E+01</rscale>
<asrwt>0</asrwt>
<pdfrwt beam="1">  1       21 0.17780554E-03 0.57184301E+01</pdfrwt>
<pdfrwt beam="2">  1       21 0.44788831E-02 0.57184301E+01</pdfrwt>
<totfact> 0.38073396E+09</totfact>
</mgrwt>
</event>
<event>
 4    1  0.3989279E+006  0.1030690E+02  0.7546771E-02  0.2057931E+00
         21   -1    0    0  503  502  0.00000000000E+00  0.00000000000E+00  0.27984506019E+02  0.27984506019E+02  0.00000000000E+00 0.  1.
         21   -1    0    0  501  503 -0.00000000000E+00 -0.00000000000E+00 -0.38603059391E+01  0.38603059391E+01  0.00000000000E+00 0. -1.
          5    1    1    2  501    0 -0.30429822413E+01  0.86534639494E+01  0.10008755869E+02  0.14366884606E+02  0.47000000000E+01 0. -1.
         -5    1    1    2    0  502  0.30429822413E+01 -0.86534639494E+01  0.14115444211E+02  0.17477927352E+02  0.47000000000E+01 0.  1.
<mgrwt>
<rscale>  2 0.10306900E+02</rscale>
<asrwt>0</asrwt>
<pdfrwt beam="1">  1       21 0.43053085E-02 0.10306900E+02</pdfrwt>
<pdfrwt beam="2">  1       21 0.59389324E-03 0.10306900E+02</pdfrwt>
<totfact> 0.11574946E+09</totfact>
</mgrwt>
</event>
<event>
 4    1  0.3989279E+006  0.4720216E+01  0.7546771E-02  0.2619317E+00
         21   -1    0    0  501  502  0.00000000000E+00  0.00000000000E+00  0.30929138804E+03  0.30929138804E+03  0.00000000000E+00 0.  1.
         21   -1    0    0  502  503 -0.00000000000E+00 -0.00000000000E+00 -0.18734684967E+00  0.18734684967E+00  0.00000000000E+00 0.  1.
          5    1    1    2  501    0  0.29196613243E+00 -0.32433606170E+00  0.27594979791E+03  0.27599016542E+03  0.47000000000E+01 0.  1.
         -5    1    1    2    0  503 -0.29196613243E+00  0.32433606170E+00  0.33154243277E+02  0.33488569473E+02  0.47000000000E+01 0.  1.
<mgrwt>
<rscale>  2 0.47202159E+01</rscale>
<asrwt>0</asrwt>
<pdfrwt beam="1">  1       21 0.47582882E-01 0.47202159E+01</pdfrwt>
<pdfrwt beam="2">  1       21 0.28822840E-04 0.47202159E+01</pdfrwt>
<totfact> 0.87276762E+08</totfact>
</mgrwt>
</event>
<event>
 4    1  0.3989279E+006  0.6962770E+01  0.7546771E-02  0.2304763E+00
         21   -1    0    0  501  502  0.00000000000E+00  0.00000000000E+00  0.15119680378E+02  0.15119680378E+02  0.00000000000E+00 0.  1.
         21   -1    0    0  502  503 -0.00000000000E+00 -0.00000000000E+00 -0.38802301779E+01  0.38802301779E+01  0.00000000000E+00 0. -1.
          5    1    1    2  501    0  0.19335741067E+01  0.47593554148E+01  0.95784824960E+01  0.11841769282E+02  0.47000000000E+01 0. -1.
         -5    1    1    2    0  503 -0.19335741067E+01 -0.47593554148E+01  0.16609677040E+01  0.71581412744E+01  0.47000000000E+01 0. -1.
<mgrwt>
<rscale>  2 0.69627705E+01</rscale>
<asrwt>0</asrwt>
<pdfrwt beam="1">  1       21 0.23261047E-02 0.69627705E+01</pdfrwt>
<pdfrwt beam="2">  1       21 0.59695849E-03 0.69627705E+01</pdfrwt>
<totfact> 0.22061243E+09</totfact>
</mgrwt>
</event>
<event>
 4    1  0.3989279E+006  0.8642550E+01  0.7546771E-02  0.2161617E+00
         21   -1    0    0  501  502  0.00000000000E+00  0.00000000000E+00  0.48238301753E+01  0.48238301753E+01  0.00000000000E+00 0.  1.
         21   -1    0    0  502  503 -0.00000000000E+00 -0.00000000000E+00 -0.19294753732E+02  0.19294753732E+02  0.00000000000E+00 0. -1.
          5    1    1    2  501    0 -0.30368053074E+01 -0.65864618535E+01 -0.18763828879E+01  0.88438950109E+01  0.47000000000E+01 0.  1.
         -5    1    1    2    0  503  0.30368053074E+01  0.65864618535E+01 -0.12594540669E+02  0.15274688896E+02  0.47000000000E+01 0. -1.
<mgrwt>
<rscale>  2 0.86425498E+01</rscale>
<asrwt>0</asrwt>
<pdfrwt beam="1">  1       21 0.74212771E-03 0.86425498E+01</pdfrwt>
<pdfrwt beam="2">  1       21 0.29684237E-02 0.86425498E+01</pdfrwt>
<totfact> 0.13209295E+09</totfact>
</mgrwt>
</event>
<event>
 4    1  0.3989279E+006  0.5070444E+01  0.7546771E-02  0.2554807E+00
         21   -1    0    0  501  502  0.00000000000E+00  0.00000000000E+00  0.29129678053E+01  0.29129678053E+01  0.00000000000E+00 0.  1.
         21   -1    0    0  502  503 -0.00000000000E+00 -0.00000000000E+00 -0.98293292277E+01  0.98293292277E+01  0.00000000000E+00 0. -1.
          5    1    1    2  501    0  0.16013824180E+01 -0.10271193906E+01 -0.14224925763E+01  0.52662021439E+01  0.47000000000E+01 0.  1.
         -5    1    1    2    0  503 -0.16013824180E+01  0.10271193906E+01 -0.54938688461E+01  0.74760948890E+01  0.47000000000E+01 0.  1.
<mgrwt>
<rscale>  2 0.50704438E+01</rscale>
<asrwt>0</asrwt>
<pdfrwt beam="1">  1       21 0.44814890E-03 0.50704438E+01</pdfrwt>
<pdfrwt beam="2">  1       21 0.15122045E-02 0.50704438E+01</pdfrwt>
<totfact> 0.45729520E+09</totfact>
</mgrwt>
</event>
<event>
 4    1  0.3989279E+006  0.1236519E+02  0.7546771E-02  0.1961045E+00
         21   -1    0    0  503  502  0.00000000000E+00  0.00000000000E+00  0.44821057896E+00  0.44821057896E+00  0.00000000000E+00 0. -1.
         21   -1    0    0  501  503 -0.00000000000E+00 -0.00000000000E+00 -0.67531303153E+03  0.67531303153E+03  0.00000000000E+00 0.  1.
          5    1    1    2  501    0  0.74465270087E+01 -0.86808504127E+01 -0.57511815109E+03  0.57525106314E+03  0.47000000000E+01 0.  1.
         -5    1    1    2    0  502 -0.74465270087E+01  0.86808504127E+01 -0.99746669862E+02  0.10051017897E+03  0.47000000000E+01 0. -1.
<mgrwt>
<rscale>  2 0.12365190E+02</rscale>
<asrwt>0</asrwt>
<pdfrwt beam="1">  1       21 0.68955703E-04 0.12365190E+02</pdfrwt>
<pdfrwt beam="2">  1       21 0.10389397E+00 0.12365190E+02</pdfrwt>
<totfact> 0.10315538E+08</totfact>
</mgrwt>
</event>
<event>
 4    1  0.3989279E+006  0.4875050E+01  0.7546771E-02  0.2589809E+00
         21   -1    0    0  503  502  0.00000000000E+00  0.00000000000E+00  0.81067192090E+02  0.81067192090E+02  0.00000000000E+00 0.  1.
         21   -1    0    0  501  503 -0.00000000000E+00 -0.00000000000E+00 -0.33474785873E+00  0.33474785873E+00  0.00000000000E+00 0.  1.
          5    1    1    2  501    0 -0.12623173610E+01  0.28752517405E+00  0.26021252043E+02  0.26473981071E+02  0.47000000000E+01 0.  1.
         -5    1    1    2    0  502  0.12623173610E+01 -0.28752517405E+00  0.54711192188E+02  0.54927958878E+02  0.47000000000E+01 0.  1.
<mgrwt>
<rscale>  2 0.48750503E+01</rscale>
<asrwt>0</asrwt>
<pdfrwt beam="1">  1       21 0.12471860E-01 0.48750503E+01</pdfrwt>
<pdfrwt beam="2">  1       21 0.51499735E-04 0.48750503E+01</pdfrwt>
<totfact> 0.36787924E+09</totfact>
</mgrwt>
</event>
<event>
 4    1  0.3989279E+006  0.5473326E+01  0.7546771E-02  0.2489466E+00
         21   -1    0    0  501  502  0.00000000000E+00  0.00000000000E+00  0.83949318941E+01  0.83949318941E+01  0.00000000000E+00 0.  1.
         21   -1    0    0  502  503 -0.00000000000E+00 -0.00000000000E+00 -0.35786772781E+01  0.35786772781E+01  0.00000000000E+00 0.  1.
          5    1    1    2  501    0  0.24565268533E+01  0.13537981290E+01  0.27274301405E+01  0.61152406924E+01  0.47000000000E+01 0.  1.
         -5    1    1    2    0  503 -0.24565268533E+01 -0.13537981290E+01  0.20888244755E+01  0.58583684798E+01  0.47000000000E+01 0.  1.
<mgrwt>
<rscale>  2 0.54733256E+01</rscale>
<asrwt>0</asrwt>
<pdfrwt beam="1">  1       21 0.12915280E-02 0.54733256E+01</pdfrwt>
<pdfrwt beam="2">  1       21 0.55056574E-03 0.54733256E+01</pdfrwt>
<totfact> 0.46516764E+09</totfact>
</mgrwt>
</event>
<event>
 4    1  0.3989279E+006  0.1586601E+02  0.7546771E-02  0.1842737E+00
         21   -1    0    0  501  502  0.00000000000E+00  0.00000000000E+00  0.74467882529E+02  0.74467882529E+02  0.00000000000E+00 0. -1.
         21   -1    0    0  502  503 -0.00000000000E+00 -0.00000000000E+00 -0.39620163677E+01  0.39620163677E+01  0.00000000000E+00 0. -1.
          5    1    1    2  501    0  0.14229305734E+02 -0.52121975363E+01  0.50278029852E+02  0.52722010874E+02  0.47000000000E+01 0. -1.
         -5    1    1    2    0  503 -0.14229305734E+02  0.52121975363E+01  0.20227836310E+02  0.25707888023E+02  0.47000000000E+01 0. -1.
<mgrwt>
<rscale>  2 0.15866006E+02</rscale>
<asrwt>0</asrwt>
<pdfrwt beam="1">  1       21 0.11456596E-01 0.15866006E+02</pdfrwt>
<pdfrwt beam="2">  1       21 0.60954104E-03 0.15866006E+02</pdfrwt>
<totfact> 0.29223209E+08</totfact>
</mgrwt>
</event>
<event>
 4    1  0.3989279E+006  0.5555255E+01  0.7546771E-02  0.2477171E+00
         21   -1    0    0  503  502  0.00000000000E+00  0.00000000000E+00  0.75613039433E+00  0.75613039433E+00  0.00000000000E+00 0.  1.
         21   -1    0    0  501  503 -0.00000000000E+00 -0.00000000000E+00 -0.13908907071E+03  0.13908907071E+03  0.00000000000E+00 0.  1.
          5    1    1    2  501    0  0.57697218640E+00 -0.29048174730E+01 -0.12794142408E+03  0.12806197272E+03  0.47000000000E+01 0.  1.
         -5    1    1    2    0  502 -0.57697218640E+00  0.29048174730E+01 -0.10391516231E+02  0.11783228379E+02  0.47000000000E+01 0.  1.
<mgrwt>
<rscale>  2 0.55552553E+01</rscale>
<asrwt>0</asrwt>
<pdfrwt beam="1">  1       21 0.11632777E-03 0.55552553E+01</pdfrwt>
<pdfrwt beam="2">  1       21 0.21398315E-01 0.55552553E+01</pdfrwt>
<totfact> 0.59981994E+08</totfact>
</mgrwt>
</event>
<event>
 4    1  0.3989279E+006  0.9259306E+01  0.7546771E-02  0.2119766E+00
         21   -1    0    0  501  502  0.00000000000E+00  0.00000000000E+00  0.21379921861E+03  0.21379921861E+03  0.00000000000E+00 0.  1.
         21   -1    0    0  502  503 -0.00000000000E+00 -0.00000000000E+00 -0.53505482001E+00  0.53505482001E+00  0.00000000000E+00 0. -1.
          5    1    1    2  501    0  0.27200704122E+01  0.74997303722E+01  0.16027275486E+03  0.16053999716E+03  0.47000000000E+01 0.  1.
         -5    1    1    2    0  503 -0.27200704122E+01 -0.74997303722E+01  0.52991408933E+02  0.53794276270E+02  0.47000000000E+01 0.  1.
<mgrwt>
<rscale>  2 0.92593055E+01</rscale>
<asrwt>0</asrwt>
<pdfrwt beam="1">  1       21 0.32892120E-01 0.92593055E+01</pdfrwt>
<pdfrwt beam="2">  1       21 0.82316296E-04 0.92593055E+01</pdfrwt>
<totfact> 0.64989234E+08</totfact>
</mgrwt>
</event>
<event>
 4    1  0.3989279E+006  0.7186714E+01  0.7546771E-02  0.2282572E+00
         21   -1    0    0  503  502  0.00000000000E+00  0.00000000000E+00  0.16823127578E+01  0.16823127578E+01  0.00000000000E+00 0.  1.
         21   -1    0    0  501  503 -0.00000000000E+00 -0.00000000000E+00 -0.67070056980E+02  0.67070056980E+02  0.00000000000E+00 0.  1.
          5    1    1    2  501    0  0.26021613105E+01 -0.47736376443E+01 -0.58007753135E+02  0.58451247066E+02  0.47000000000E+01 0.  1.
         -5    1    1    2    0  502 -0.26021613105E+01  0.47736376443E+01 -0.73799910876E+01  0.10301122672E+02  0.47000000000E+01 0.  1.
<mgrwt>
<rscale>  2 0.71867141E+01</rscale>
<asrwt>0</asrwt>
<pdfrwt beam="1">  1       21 0.25881735E-03 0.71867141E+01</pdfrwt>
<pdfrwt beam="2">  1       21 0.10318470E-01 0.71867141E+01</pdfrwt>
<totfact> 0.77414609E+08</totfact>
</mgrwt>
</event>
<event>
 4    1  0.3989279E+006  0.5041606E+01  0.7546771E-02  0.2559825E+00
         21   -1    0    0  503  502  0.00000000000E+00  0.00000000000E+00  0.43524473870E+00  0.43524473870E+00  0.00000000000E+00 0.  1.
         21   -1    0    0  501  503 -0.00000000000E+00 -0.00000000000E+00 -0.10389472248E+03  0.10389472248E+03  0.00000000000E+00 0.  1.
          5    1    1    2  501    0  0.18237839314E+01  0.40060024046E-01 -0.17209934494E+02  0.17933199322E+02  0.47000000000E+01 0.  1.
         -5    1    1    2    0  502 -0.18237839314E+01 -0.40060024046E-01 -0.86249543244E+02  0.86396767894E+02  0.47000000000E+01 0.  1.
<mgrwt>
<rscale>  2 0.50416062E+01</rscale>
<asrwt>0</asrwt>
<pdfrwt beam="1">  1       21 0.66960785E-04 0.50416062E+01</pdfrwt>
<pdfrwt beam="2">  1       21 0.15983790E-01 0.50416062E+01</pdfrwt>
<totfact> 0.18296677E+09</totfact>
</mgrwt>
</event>
<event>
 4    1  0.3989279E+006  0.5533828E+01  0.7546771E-02  0.2480357E+00
         21   -1    0    0  503  502  0.00000000000E+00  0.00000000000E+00  0.19303885132E+02  0.19303885132E+02  0.00000000000E+00 0. -1.
         21   -1    0    0  501  503 -0.00000000000E+00 -0.00000000000E+00 -0.17804198719E+01  0.17804198719E+01  0.00000000000E+00 0.  1.
          5    1    1    2  501    0 -0.11157829653E+01 -0.26996824909E+01  0.52814389470E+01  0.76496310060E+01  0.47000000000E+01 0.  1.
         -5    1    1    2    0  502  0.11157829653E+01  0.26996824909E+01  0.12242026313E+02  0.13434673998E+02  0.47000000000E+01 0.  1.
<mgrwt>
<rscale>  2 0.55338284E+01</rscale>
<asrwt>0</asrwt>
<pdfrwt beam="1">  1       21 0.29698283E-02 0.55338284E+01</pdfrwt>
<pdfrwt beam="2">  1       21 0.27391076E-03 0.55338284E+01</pdfrwt>
<totfact> 0.37373052E+09</totfact>
</mgrwt>
</event>
<event>
 4    1  0.3989279E+006  0.4849037E+01  0.7546771E-02  0.2594652E+00
         21   -1    0    0  503  502  0.00000000000E+00  0.00000000000E+00  0.43578413306E+02  0.43578413306E+02  0.00000000000E+00 0. -1.
         21   -1    0    0  501  503 -0.00000000000E+00 -0.00000000000E+00 -0.55463472339E+00  0.55463472339E+00  0.00000000000E+00 0. -1.
          5    1    1    2  501    0 -0.10793043740E+01 -0.50819282860E+00  0.17873923212E+02  0.18519996999E+02  0.47000000000E+01 0. -1.
         -5    1    1    2    0  502  0.10793043740E+01  0.50819282860E+00  0.25149855370E+02  0.25613051029E+02  0.47000000000E+01 0. -1.
<mgrwt>
<rscale>  2 0.48490368E+01</rscale>
<asrwt>0</asrwt>
<pdfrwt beam="1">  1       21 0.67043686E-02 0.48490368E+01</pdfrwt>
<pdfrwt beam="2">  1       21 0.85328453E-04 0.48490368E+01</pdfrwt>
<totfact> 0.47654218E+09</totfact>
</mgrwt>
</event>
<event>
 4    1  0.3989279E+006  0.9012154E+01  0.7546771E-02  0.2135990E+00
         21   -1    0    0  501  502  0.00000000000E+00  0.00000000000E+00  0.52410932868E+01  0.52410932868E+01  0.00000000000E+00 0.  1.
         21   -1    0    0  502  503 -0.00000000000E+00 -0.00000000000E+00 -0.15498029030E+02  0.15498029030E+02  0.00000000000E+00 0. -1.
          5    1    1    2  501    0 -0.53124413556E+01  0.55593966016E+01 -0.52293782536E+01  0.10419468348E+02  0.47000000000E+01 0. -1.
         -5    1    1    2    0  503  0.53124413556E+01 -0.55593966016E+01 -0.50275574899E+01  0.10319653969E+02  0.47000000000E+01 0.  1.
<mgrwt>
<rscale>  2 0.90121542E+01</rscale>
<asrwt>0</asrwt>
<pdfrwt beam="1">  1       21 0.80632205E-03 0.90121542E+01</pdfrwt>
<pdfrwt beam="2">  1       21 0.23843121E-02 0.90121542E+01</pdfrwt>
<totfact> 0.16684442E+09</totfact>
</mgrwt>
</event>
<event>
 4    1  0.3989279E+006  0.5418935E+01  0.7546771E-02  0.2497802E+00
         21   -1    0    0  503  502  0.00000000000E+00  0.00000000000E+00  0.10929205083E+02  0.10929205083E+02  0.00000000000E+00 0. -1.
         21   -1    0    0  501  503 -0.00000000000E+00 -0.00000000000E+00 -0.26985522535E+01  0.26985522535E+01  0.00000000000E+00 0. -1.
          5    1    1    2  501    0 -0.13003162844E+01 -0.23630552975E+01  0.36661242688E+01  0.65425774686E+01  0.47000000000E+01 0. -1.
         -5    1    1    2    0  502  0.13003162844E+01  0.23630552975E+01  0.45645285608E+01  0.70851798679E+01  0.47000000000E+01 0. -1.
<mgrwt>
<rscale>  2 0.54189347E+01</rscale>
<asrwt>0</asrwt>
<pdfrwt beam="1">  1       21 0.16814161E-02 0.54189347E+01</pdfrwt>
<pdfrwt beam="2">  1       21 0.41516189E-03 0.54189347E+01</pdfrwt>
<totfact> 0.46809382E+09</totfact>
</mgrwt>
</event>
<event>
 4    1  0.3989279E+006  0.5586856E+01  0.7546771E-02  0.2472511E+00
         21   -1    0    0  503  502  0.00000000000E+00  0.00000000000E+00  0.13868388774E+02  0.13868388774E+02  0.00000000000E+00 0. -1.
         21   -1    0    0  501  503 -0.00000000000E+00 -0.00000000000E+00 -0.22610192651E+01  0.22610192651E+01  0.00000000000E+00 0. -1.
          5    1    1    2  501    0 -0.23256038987E+01  0.19273113743E+01  0.63496932219E+01  0.84576336312E+01  0.47000000000E+01 0. -1.
         -5    1    1    2    0  502  0.23256038987E+01 -0.19273113743E+01  0.52576762867E+01  0.76717744077E+01  0.47000000000E+01 0. -1.
<mgrwt>
<rscale>  2 0.55868562E+01</rscale>
<asrwt>0</asrwt>
<pdfrwt beam="1">  1       21 0.21335982E-02 0.55868562E+01</pdfrwt>
<pdfrwt beam="2">  1       21 0.34784913E-03 0.55868562E+01</pdfrwt>
<totfact> 0.43759215E+09</totfact>
</mgrwt>
</event>
<event>
 4    1  0.3989279E+006  0.6759691E+01  0.7546771E-02  0.2325924E+00
         21   -1    0    0  501  502  0.00000000000E+00  0.00000000000E+00  0.45136159737E+00  0.45136159737E+00  0.00000000000E+00 0. -1.
         21   -1    0    0  502  503 -0.00000000000E+00 -0.00000000000E+00 -0.12881301448E+03  0.12881301448E+03  0.00000000000E+00 0.  1.
          5    1    1    2  501    0 -0.86319033644E+00  0.47810381032E+01 -0.34275164320E+02  0.34935373364E+02  0.47000000000E+01 0. -1.
         -5    1    1    2    0  503  0.86319033644E+00 -0.47810381032E+01 -0.94086488565E+02  0.94329002716E+02  0.47000000000E+01 0.  1.
<mgrwt>
<rscale>  2 0.67596910E+01</rscale>
<asrwt>0</asrwt>
<pdfrwt beam="1">  1       21 0.69440237E-04 0.67596910E+01</pdfrwt>
<pdfrwt beam="2">  1       21 0.19817389E-01 0.67596910E+01</pdfrwt>
<totfact> 0.15771801E+09</totfact>
</mgrwt>
</event>
<event>
 4    1  0.3989279E+006  0.4770035E+01  0.7546771E-02  0.2609641E+00
         21   -1    0    0  503  502  0.00000000000E+00  0.00000000000E+00  0.18589031067E+00  0.18589031067E+00  0.00000000000E+00 0.  1.
         21   -1    0    0  501  503 -0.00000000000E+00 -0.00000000000E+00 -0.12703625265E+03  0.12703625265E+03  0.00000000000E+00 0.  1.
          5    1    1    2  501    0 -0.21930373656E+00  0.78430657938E+00 -0.75575500146E+02  0.75725883641E+02  0.47000000000E+01 0.  1.
         -5    1    1    2    0  502  0.21930373656E+00 -0.78430657938E+00 -0.51274862189E+02  0.51496259315E+02  0.47000000000E+01 0.  1.
<mgrwt>
<rscale>  2 0.47700347E+01</rscale>
<asrwt>0</asrwt>
<pdfrwt beam="1">  1       21 0.28598510E-04 0.47700347E+01</pdfrwt>
<pdfrwt beam="2">  1       21 0.19544038E-01 0.47700347E+01</pdfrwt>
<totfact> 0.38963743E+09</totfact>
</mgrwt>
</event>
<event>
 4    1  0.3989279E+006  0.4852710E+01  0.7546771E-02  0.2593965E+00
         21   -1    0    0  501  502  0.00000000000E+00  0.00000000000E+00  0.51401774119E+02  0.51401774119E+02  0.00000000000E+00 0. -1.
         21   -1    0    0  502  503 -0.00000000000E+00 -0.00000000000E+00 -0.18422964264E+02  0.18422964264E+02  0.00000000000E+00 0.  1.
          5    1    1    2  501    0  0.11769578083E+01  0.27122091632E+00  0.50964950823E+02  0.51195458811E+02  0.47000000000E+01 0. -1.
         -5    1    1    2    0  503 -0.11769578083E+01 -0.27122091632E+00 -0.17986140968E+02  0.18629279573E+02  0.47000000000E+01 0.  1.
<mgrwt>
<rscale>  2 0.48527096E+01</rscale>
<asrwt>0</asrwt>
<pdfrwt beam="1">  1       21 0.79079652E-02 0.48527096E+01</pdfrwt>
<pdfrwt beam="2">  1       21 0.28343022E-02 0.48527096E+01</pdfrwt>
<totfact> 0.30617097E+07</totfact>
</mgrwt>
</event>
<event>
 4    1  0.3989279E+006  0.4973604E+01  0.7546771E-02  0.2571858E+00
         21   -1    0    0  503  502  0.00000000000E+00  0.00000000000E+00  0.50665600384E+02  0.50665600384E+02  0.00000000000E+00 0. -1.
         21   -1    0    0  501  503 -0.00000000000E+00 -0.00000000000E+00 -0.40810703320E+01  0.40810703320E+01  0.00000000000E+00 0. -1.
          5    1    1    2  501    0 -0.15902014143E+01 -0.34350703481E+00 -0.23915369707E+01  0.55187124135E+01  0.47000000000E+01 0. -1.
         -5    1    1    2    0  502  0.15902014143E+01  0.34350703481E+00  0.48976067023E+02  0.49227958303E+02  0.47000000000E+01 0. -1.
<mgrwt>
<rscale>  2 0.49736041E+01</rscale>
<asrwt>0</asrwt>
<pdfrwt beam="1">  1       21 0.77947073E-02 0.49736041E+01</pdfrwt>
<pdfrwt beam="2">  1       21 0.62785701E-03 0.49736041E+01</pdfrwt>
<totfact> 0.26415967E+08</totfact>
</mgrwt>
</event>
<event>
 4    1  0.3989279E+006  0.8359437E+01  0.7546771E-02  0.2182461E+00
         21   -1    0    0  503  502  0.00000000000E+00  0.00000000000E+00  0.14256788702E+03  0.14256788702E+03  0.00000000000E+00 0. -1.
         21   -1    0    0  501  503 -0.00000000000E+00 -0.00000000000E+00 -0.60583259184E+00  0.60583259184E+00  0.00000000000E+00 0.  1.
          5    1    1    2  501    0  0.34394101228E+01  0.59967188456E+01  0.39699781863E+02  0.40570344574E+02  0.47000000000E+01 0.  1.
         -5    1    1    2    0  502 -0.34394101228E+01 -0.59967188456E+01  0.10226227256E+03  0.10260337504E+03  0.47000000000E+01 0. -1.
<mgrwt>
<rscale>  2 0.83594365E+01</rscale>
<asrwt>0</asrwt>
<pdfrwt beam="1">  1       21 0.21933494E-01 0.83594365E+01</pdfrwt>
<pdfrwt beam="2">  1       21 0.93205128E-04 0.83594365E+01</pdfrwt>
<totfact> 0.10326847E+09</totfact>
</mgrwt>
</event>
<event>
 4    1  0.3989279E+006  0.4874428E+01  0.7546771E-02  0.2589924E+00
         21   -1    0    0  503  502  0.00000000000E+00  0.00000000000E+00  0.12589361464E+02  0.12589361464E+02  0.00000000000E+00 0. -1.
         21   -1    0    0  501  503 -0.00000000000E+00 -0.00000000000E+00 -0.20107369295E+01  0.20107369295E+01  0.00000000000E+00 0. -1.
          5    1    1    2  501    0 -0.12912644500E+01  0.51824488500E-01  0.34806808698E+01  0.59895900507E+01  0.47000000000E+01 0. -1.
         -5    1    1    2    0  502  0.12912644500E+01 -0.51824488500E-01  0.70979436650E+01  0.86105083432E+01  0.47000000000E+01 0. -1.
<mgrwt>
<rscale>  2 0.48744281E+01</rscale>
<asrwt>0</asrwt>
<pdfrwt beam="1">  1       21 0.19368248E-02 0.48744281E+01</pdfrwt>
<pdfrwt beam="2">  1       21 0.30934415E-03 0.48744281E+01</pdfrwt>
<totfact> 0.51264048E+09</totfact>
</mgrwt>
</event>
<event>
 4    1  0.3989279E+006  0.1021600E+02  0.7546771E-02  0.2062899E+00
         21   -1    0    0  501  502  0.00000000000E+00  0.00000000000E+00  0.88869990633E+01  0.88869990633E+01  0.00000000000E+00 0.  1.
         21   -1    0    0  502  503 -0.00000000000E+00 -0.00000000000E+00 -0.19996880288E+02  0.19996880288E+02  0.00000000000E+00 0.  1.
          5    1    1    2  501    0 -0.85338687537E+01 -0.30740511916E+01  0.37230455431E+01  0.10873259619E+02  0.47000000000E+01 0.  1.
         -5    1    1    2    0  503  0.85338687537E+01  0.30740511916E+01 -0.14832926768E+02  0.18010619732E+02  0.47000000000E+01 0.  1.
<mgrwt>
<rscale>  2 0.10216002E+02</rscale>
<asrwt>0</asrwt>
<pdfrwt beam="1">  1       21 0.13672306E-02 0.10216002E+02</pdfrwt>
<pdfrwt beam="2">  1       21 0.30764431E-02 0.10216002E+02</pdfrwt>
<totfact> 0.57193007E+08</totfact>
</mgrwt>
</event>
<event>
 4    1  0.3989279E+006  0.4721951E+01  0.7546771E-02  0.2618977E+00
         21   -1    0    0  501  502  0.00000000000E+00  0.00000000000E+00  0.26072736313E+03  0.26072736313E+03  0.00000000000E+00 0. -1.
         21   -1    0    0  502  503 -0.00000000000E+00 -0.00000000000E+00 -0.10671099182E+00  0.10671099182E+00  0.00000000000E+00 0. -1.
          5    1    1    2  501    0 -0.43527411663E+00 -0.13175448877E+00  0.72189973808E+02  0.72344240553E+02  0.47000000000E+01 0. -1.
         -5    1    1    2    0  503  0.43527411663E+00  0.13175448877E+00  0.18843067833E+03  0.18848983357E+03  0.47000000000E+01 0. -1.
<mgrwt>
<rscale>  2 0.47219512E+01</rscale>
<asrwt>0</asrwt>
<pdfrwt beam="1">  1       21 0.40111392E-01 0.47219512E+01</pdfrwt>
<pdfrwt beam="2">  1       21 0.16417284E-04 0.47219512E+01</pdfrwt>
<totfact> 0.24684451E+09</totfact>
</mgrwt>
</event>
<event>
 4    1  0.3989279E+006  0.5817823E+01  0.7546771E-02  0.2439755E+00
         21   -1    0    0  501  502  0.00000000000E+00  0.00000000000E+00  0.24119793285E+02  0.24119793285E+02  0.00000000000E+00 0. -1.
         21   -1    0    0  502  503 -0.00000000000E+00 -0.00000000000E+00 -0.14733973598E+01  0.14733973598E+01  0.00000000000E+00 0. -1.
          5    1    1    2  501    0  0.54565341592E+00  0.33851632658E+01  0.14114558143E+02  0.15266558865E+02  0.47000000000E+01 0. -1.
         -5    1    1    2    0  503 -0.54565341592E+00 -0.33851632658E+01  0.85318377821E+01  0.10326631780E+02  0.47000000000E+01 0. -1.
<mgrwt>
<rscale>  2 0.58178233E+01</rscale>
<asrwt>0</asrwt>
<pdfrwt beam="1">  1       21 0.37107371E-02 0.58178233E+01</pdfrwt>
<pdfrwt beam="2">  1       21 0.22667653E-03 0.58178233E+01</pdfrwt>
<totfact> 0.36645960E+09</totfact>
</mgrwt>
</event>
<event>
 4    1  0.3989279E+006  0.4876435E+01  0.7546771E-02  0.2589552E+00
         21   -1    0    0  503  502  0.00000000000E+00  0.00000000000E+00  0.10319893307E+00  0.10319893307E+00  0.00000000000E+00 0.  1.
         21   -1    0    0  501  503 -0.00000000000E+00 -0.00000000000E+00 -0.32759383412E+03  0.32759383412E+03  0.00000000000E+00 0. -1.
          5    1    1    2  501    0  0.32265456237E+00  0.12591721057E+01 -0.25298089040E+03  0.25302788488E+03  0.47000000000E+01 0. -1.
         -5    1    1    2    0  502 -0.32265456237E+00 -0.12591721057E+01 -0.74509744791E+02  0.74669148175E+02  0.47000000000E+01 0.  1.
<mgrwt>
<rscale>  2 0.48764352E+01</rscale>
<asrwt>0</asrwt>
<pdfrwt beam="1">  1       21 0.15877026E-04 0.48764352E+01</pdfrwt>
<pdfrwt beam="2">  1       21 0.50398205E-01 0.48764352E+01</pdfrwt>
<totfact> 0.17851375E+09</totfact>
</mgrwt>
</event>
<event>
 4    1  0.3989279E+006  0.8384038E+01  0.7546771E-02  0.2180605E+00
         21   -1    0    0  501  502  0.00000000000E+00  0.00000000000E+00  0.32990070793E+01  0.32990070793E+01  0.00000000000E+00 0.  1.
         21   -1    0    0  502  503 -0.00000000000E+00 -0.00000000000E+00 -0.23152535841E+02  0.23152535841E+02  0.00000000000E+00 0.  1.
          5    1    1    2  501    0 -0.24254719288E+01 -0.65053193940E+01 -0.61927361259E+01  0.10423150926E+02  0.47000000000E+01 0. -1.
         -5    1    1    2    0  503  0.24254719288E+01  0.65053193940E+01 -0.13660792636E+02  0.16028391994E+02  0.47000000000E+01 0. -1.
<mgrwt>
<rscale>  2 0.83840381E+01</rscale>
<asrwt>0</asrwt>
<pdfrwt beam="1">  1       21 0.50753954E-03 0.83840381E+01</pdfrwt>
<pdfrwt beam="2">  1       21 0.35619287E-02 0.83840381E+01</pdfrwt>
<totfact> 0.16938516E+09</totfact>
</mgrwt>
</event>
<event>
 4    1  0.3989279E+006  0.1232805E+02  0.7546771E-02  0.1962569E+00
         21   -1    0    0  503  502  0.00000000000E+00  0.00000000000E+00  0.24172994274E+01  0.24172994274E+01  0.00000000000E+00 0.  1.
         21   -1    0    0  501  503 -0.00000000000E+00 -0.00000000000E+00 -0.67657486136E+02  0.67657486136E+02  0.00000000000E+00 0. -1.
          5    1    1    2  501    0 -0.37617597435E+01 -0.10758252226E+02 -0.41938245423E+02  0.43712667003E+02  0.47000000000E+01 0. -1.
         -5    1    1    2    0  502  0.37617597435E+01  0.10758252226E+02 -0.23301941286E+02  0.26362118561E+02  0.47000000000E+01 0.  1.
<mgrwt>
<rscale>  2 0.12328050E+02</rscale>
<asrwt>0</asrwt>
<pdfrwt beam="1">  1       21 0.37189224E-03 0.12328050E+02</pdfrwt>
<pdfrwt beam="2">  1       21 0.10408843E-01 0.12328050E+02</pdfrwt>
<totfact> 0.62554463E+08</totfact>
</mgrwt>
</event>
<event>
 4    1  0.3989279E+006  0.1600587E+02  0.7546771E-02  0.1838840E+00
         21   -1    0    0  501  502  0.00000000000E+00  0.00000000000E+00  0.65172447664E+03  0.65172447664E+03  0.00000000000E+00 0. -1.
         21   -1    0    0  502  503 -0.00000000000E+00 -0.00000000000E+00 -0.61396853162E+00  0.61396853162E+00  0.00000000000E+00 0.  1.
          5    1    1    2  501    0 -0.14423216057E+02  0.51057531002E+01  0.52118928812E+03  0.52143500259E+03  0.47000000000E+01 0. -1.
         -5    1    1    2    0  503  0.14423216057E+02 -0.51057531002E+01  0.12992121999E+03  0.13090344258E+03  0.47000000000E+01 0.  1.
<mgrwt>
<rscale>  2 0.16005870E+02</rscale>
<asrwt>0</asrwt>
<pdfrwt beam="1">  1       21 0.10026475E+00 0.16005870E+02</pdfrwt>
<pdfrwt beam="2">  1       21 0.94457219E-04 0.16005870E+02</pdfrwt>
<totfact> 0.77966364E+07</totfact>
</mgrwt>
</event>
<event>
 4    1  0.3989279E+006  0.9788365E+01  0.7546771E-02  0.2087236E+00
         21   -1    0    0  503  502  0.00000000000E+00  0.00000000000E+00  0.28090367996E+03  0.28090367996E+03  0.00000000000E+00 0. -1.
         21   -1    0    0  501  503 -0.00000000000E+00 -0.00000000000E+00 -0.91639074968E+00  0.91639074968E+00  0.00000000000E+00 0.  1.
          5    1    1    2  501    0 -0.71121810681E+01 -0.48102980808E+01  0.28345667630E+02  0.29988147001E+02  0.47000000000E+01 0.  1.
         -5    1    1    2    0  502  0.71121810681E+01  0.48102980808E+01  0.25164162158E+03  0.25183192370E+03  0.47000000000E+01 0. -1.
<mgrwt>
<rscale>  2 0.97883649E+01</rscale>
<asrwt>0</asrwt>
<pdfrwt beam="1">  1       21 0.43215882E-01 0.97883649E+01</pdfrwt>
<pdfrwt beam="2">  1       21 0.14098342E-03 0.97883649E+01</pdfrwt>
<totfact> 0.19548742E+08</totfact>
</mgrwt>
</event>
<event>
 4    1  0.3989279E+006  0.6280936E+01  0.7546771E-02  0.2380233E+00
         21   -1    0    0  503  502  0.00000000000E+00  0.00000000000E+00  0.34631178286E+01  0.34631178286E+01  0.00000000000E+00 0. -1.
         21   -1    0    0  501  503 -0.00000000000E+00 -0.00000000000E+00 -0.18847640611E+02  0.18847640611E+02  0.00000000000E+00 0. -1.
          5    1    1    2  501    0  0.39807259027E+01  0.12304386924E+01 -0.14708630946E+02  0.15993560654E+02  0.47000000000E+01 0. -1.
         -5    1    1    2    0  502 -0.39807259027E+01 -0.12304386924E+01 -0.67589183642E+00  0.63171977856E+01  0.47000000000E+01 0. -1.
<mgrwt>
<rscale>  2 0.62809361E+01</rscale>
<asrwt>0</asrwt>
<pdfrwt beam="1">  1       21 0.53278737E-03 0.62809361E+01</pdfrwt>
<pdfrwt beam="2">  1       21 0.28996370E-02 0.62809361E+01</pdfrwt>
<totfact> 0.17279913E+09</totfact>
</mgrwt>
</event>
<event>
 4    1  0.3989279E+006  0.2734625E+02  0.7546771E-02  0.1629422E+00
         21   -1    0    0  503  502  0.00000000000E+00  0.00000000000E+00  0.13007622838E+03  0.13007622838E+03  0.00000000000E+00 0. -1.
         21   -1    0    0  501  503 -0.00000000000E+00 -0.00000000000E+00 -0.84787748043E+01  0.84787748043E+01  0.00000000000E+00 0.  1.
          5    1    1    2  501    0 -0.19588291254E+02 -0.18493953040E+02  0.21490501102E+02  0.34780153694E+02  0.47000000000E+01 0.  1.
         -5    1    1    2    0  502  0.19588291254E+02  0.18493953040E+02  0.10010695247E+03  0.10377484949E+03  0.47000000000E+01 0. -1.
<mgrwt>
<rscale>  2 0.27346251E+02</rscale>
<asrwt>0</asrwt>
<pdfrwt beam="1">  1       21 0.20011726E-01 0.27346251E+02</pdfrwt>
<pdfrwt beam="2">  1       21 0.13044270E-02 0.27346251E+02</pdfrwt>
<totfact> 0.42903166E+07</totfact>
</mgrwt>
</event>
<event>
 4    1  0.3989279E+006  0.9836247E+01  0.7546771E-02  0.2084429E+00
         21   -1    0    0  501  502  0.00000000000E+00  0.00000000000E+00  0.15847264048E+02  0.15847264048E+02  0.00000000000E+00 0.  1.
         21   -1    0    0  502  503 -0.00000000000E+00 -0.00000000000E+00 -0.62812686180E+01  0.62812686180E+01  0.00000000000E+00 0. -1.
          5    1    1    2  501    0 -0.20069053764E+01  0.84044084897E+01  0.66350761252E+01  0.11864905665E+02  0.47000000000E+01 0.  1.
         -5    1    1    2    0  503  0.20069053764E+01 -0.84044084897E+01  0.29309193051E+01  0.10263627001E+02  0.47000000000E+01 0.  1.
<mgrwt>
<rscale>  2 0.98362468E+01</rscale>
<asrwt>0</asrwt>
<pdfrwt beam="1">  1       21 0.24380406E-02 0.98362468E+01</pdfrwt>
<pdfrwt beam="2">  1       21 0.96634903E-03 0.98362468E+01</pdfrwt>
<totfact> 0.13136884E+09</totfact>
</mgrwt>
</event>
<event>
 4    1  0.3989279E+006  0.9954676E+01  0.7546771E-02  0.2077576E+00
         21   -1    0    0  503  502  0.00000000000E+00  0.00000000000E+00  0.43543358429E+01  0.43543358429E+01  0.00000000000E+00 0.  1.
         21   -1    0    0  501  503 -0.00000000000E+00 -0.00000000000E+00 -0.28627547341E+02  0.28627547341E+02  0.00000000000E+00 0.  1.
          5    1    1    2  501    0  0.83438590258E+01  0.27176445110E+01 -0.19603828143E+02  0.21986487964E+02  0.47000000000E+01 0.  1.
         -5    1    1    2    0  502 -0.83438590258E+01 -0.27176445110E+01 -0.46693833557E+01  0.10995395220E+02  0.47000000000E+01 0.  1.
<mgrwt>
<rscale>  2 0.99546760E+01</rscale>
<asrwt>0</asrwt>
<pdfrwt beam="1">  1       21 0.66989784E-03 0.99546760E+01</pdfrwt>
<pdfrwt beam="2">  1       21 0.44042379E-02 0.99546760E+01</pdfrwt>
<totfact> 0.92204955E+08</totfact>
</mgrwt>
</event>
<event>
 4    1  0.3989279E+006  0.5324799E+01  0.7546771E-02  0.2512571E+00
         21   -1    0    0  501  502  0.00000000000E+00  0.00000000000E+00  0.84779382659E+03  0.84779382659E+03  0.00000000000E+00 0.  1.
         21   -1    0    0  502  503 -0.00000000000E+00 -0.00000000000E+00 -0.59879374080E-01  0.59879374080E-01  0.00000000000E+00 0.  1.
          5    1    1    2  501    0 -0.12424133482E+01 -0.21725312047E+01  0.70554069358E+03  0.70556078673E+03  0.47000000000E+01 0.  1.
         -5    1    1    2    0  503  0.12424133482E+01  0.21725312047E+01  0.14219325364E+03  0.14229291924E+03  0.47000000000E+01 0.  1.
<mgrwt>
<rscale>  2 0.53247988E+01</rscale>
<asrwt>0</asrwt>
<pdfrwt beam="1">  1       21 0.13042021E+00 0.53247988E+01</pdfrwt>
<pdfrwt beam="2">  1       21 0.92128904E-05 0.53247988E+01</pdfrwt>
<totfact> 0.62892355E+08</totfact>
</mgrwt>
</event>
<event>
 4    1  0.3989279E+006  0.6198975E+01  0.7546771E-02  0.2390224E+00
         21   -1    0    0  503  502  0.00000000000E+00  0.00000000000E+00  0.57120594360E+00  0.57120594360E+00  0.00000000000E+00 0. -1.
         21   -1    0    0  501  503 -0.00000000000E+00 -0.00000000000E+00 -0.72173355613E+02  0.72173355613E+02  0.00000000000E+00 0.  1.
          5    1    1    2  501    0  0.35195474708E+01 -0.19874801724E+01 -0.45277681876E+02  0.45700063106E+02  0.47000000000E+01 0. -1.
         -5    1    1    2    0  502 -0.35195474708E+01  0.19874801724E+01 -0.26324467794E+02  0.27044498451E+02  0.47000000000E+01 0.  1.
<mgrwt>
<rscale>  2 0.61989751E+01</rscale>
<asrwt>0</asrwt>
<pdfrwt beam="1">  1       21 0.87877831E-04 0.61989751E+01</pdfrwt>
<pdfrwt beam="2">  1       21 0.11103594E-01 0.61989751E+01</pdfrwt>
<totfact> 0.26908599E+09</totfact>
</mgrwt>
</event>
<event>
 4    1  0.3989279E+006  0.4767016E+01  0.7546771E-02  0.2610222E+00
         21   -1    0    0  501  502  0.00000000000E+00  0.00000000000E+00  0.16200959008E+01  0.16200959008E+01  0.00000000000E+00 0. -1.
         21   -1    0    0  502  503 -0.00000000000E+00 -0.00000000000E+00 -0.34719707530E+02  0.34719707530E+02  0.00000000000E+00 0. -1.
          5    1    1    2  501    0 -0.39313895741E+00 -0.69273653014E+00 -0.30577212040E+02  0.30946572319E+02  0.47000000000E+01 0. -1.
         -5    1    1    2    0  503  0.39313895741E+00  0.69273653014E+00 -0.25223995890E+01  0.53932311119E+01  0.47000000000E+01 0. -1.
<mgrwt>
<rscale>  2 0.47670161E+01</rscale>
<asrwt>0</asrwt>
<pdfrwt beam="1">  1       21 0.24924554E-03 0.47670161E+01</pdfrwt>
<pdfrwt beam="2">  1       21 0.53414930E-02 0.47670161E+01</pdfrwt>
<totfact> 0.15643024E+09</totfact>
</mgrwt>
</event>
<event>
 4    1  0.3989279E+006  0.6380221E+01  0.7546771E-02  0.2368417E+00
         21   -1    0    0  501  502  0.00000000000E+00  0.00000000000E+00  0.93177643286E+01  0.93177643286E+01  0.00000000000E+00 0.  1.
         21   -1    0    0  502  503 -0.00000000000E+00 -0.00000000000E+00 -0.63638350814E+01  0.63638350814E+01  0.00000000000E+00 0. -1.
          5    1    1    2  501    0  0.69501312647E+00 -0.42584236224E+01  0.58671099940E+01  0.86677675716E+01  0.47000000000E+01 0.  1.
         -5    1    1    2    0  503 -0.69501312647E+00  0.42584236224E+01 -0.29131807467E+01  0.70138318384E+01  0.47000000000E+01 0. -1.
<mgrwt>
<rscale>  2 0.63802206E+01</rscale>
<asrwt>0</asrwt>
<pdfrwt beam="1">  1       21 0.14335022E-02 0.63802206E+01</pdfrwt>
<pdfrwt beam="2">  1       21 0.97905155E-03 0.63802206E+01</pdfrwt>
<totfact> 0.20568750E+09</totfact>
</mgrwt>
</event>
<event>
 4    1  0.3989279E+006  0.7533134E+01  0.7546771E-02  0.2250382E+00
         21   -1    0    0  501  502  0.00000000000E+00  0.00000000000E+00  0.19003114681E+03  0.19003114681E+03  0.00000000000E+00 0. -1.
         21   -1    0    0  502  503 -0.00000000000E+00 -0.00000000000E+00 -0.17684169510E+01  0.17684169510E+01  0.00000000000E+00 0.  1.
          5    1    1    2  501    0  0.47438745862E+01 -0.34862248649E+01  0.18155989396E+03  0.18171610607E+03  0.47000000000E+01 0. -1.
         -5    1    1    2    0  503 -0.47438745862E+01  0.34862248649E+01  0.67028358912E+01  0.10083457685E+02  0.47000000000E+01 0.  1.
<mgrwt>
<rscale>  2 0.75331341E+01</rscale>
<asrwt>0</asrwt>
<pdfrwt beam="1">  1       21 0.29235545E-01 0.75331341E+01</pdfrwt>
<pdfrwt beam="2">  1       21 0.27206430E-03 0.75331341E+01</pdfrwt>
<totfact> 0.13706110E+08</totfact>
</mgrwt>
</event>
<event>
 4    1  0.3989279E+006  0.5597337E+01  0.7546771E-02  0.2470975E+00
         21   -1    0    0  503  502  0.00000000000E+00  0.00000000000E+00  0.76859028042E+01  0.76859028042E+01  0.00000000000E+00 0. -1.
         21   -1    0    0  501  503 -0.00000000000E+00 -0.00000000000E+00 -0.10357559109E+02  0.10357559109E+02  0.00000000000E+00 0. -1.
          5    1    1    2  501    0  0.30189978822E+01 -0.35473024183E+00 -0.83614359754E+01  0.10061997482E+02  0.47000000000E+01 0. -1.
         -5    1    1    2    0  502 -0.30189978822E+01  0.35473024183E+00  0.56897796709E+01  0.79814644309E+01  0.47000000000E+01 0. -1.
<mgrwt>
<rscale>  2 0.55973370E+01</rscale>
<asrwt>0</asrwt>
<pdfrwt beam="1">  1       21 0.11824466E-02 0.55973370E+01</pdfrwt>
<pdfrwt beam="2">  1       21 0.15934706E-02 0.55973370E+01</pdfrwt>
<totfact> 0.12119345E+09</totfact>
</mgrwt>
</event>
<event>
 4    1  0.3989279E+006  0.5321302E+01  0.7546771E-02  0.2513128E+00
         21   -1    0    0  503  502  0.00000000000E+00  0.00000000000E+00  0.44237317364E-01  0.44237317364E-01  0.00000000000E+00 0.  1.
         21   -1    0    0  501  503 -0.00000000000E+00 -0.00000000000E+00 -0.64298811308E+03  0.64298811308E+03  0.00000000000E+00 0.  1.
          5    1    1    2  501    0  0.20274105708E+01 -0.14545985758E+01 -0.29991912504E+03  0.29996632780E+03  0.47000000000E+01 0.  1.
         -5    1    1    2    0  502 -0.20274105708E+01  0.14545985758E+01 -0.34302475072E+03  0.34306602259E+03  0.47000000000E+01 0.  1.
<mgrwt>
<rscale>  2 0.53213016E+01</rscale>
<asrwt>0</asrwt>
<pdfrwt beam="1">  1       21 0.68052209E-05 0.53213016E+01</pdfrwt>
<pdfrwt beam="2">  1       21 0.98928810E-01 0.53213016E+01</pdfrwt>
<totfact> 0.16589556E+09</totfact>
</mgrwt>
</event>
<event>
 4    1  0.3989279E+006  0.5113009E+01  0.7546771E-02  0.2547488E+00
         21   -1    0    0  503  502  0.00000000000E+00  0.00000000000E+00  0.25574483555E+03  0.25574483555E+03  0.00000000000E+00 0.  1.
         21   -1    0    0  501  503 -0.00000000000E+00 -0.00000000000E+00 -0.15522955602E+00  0.15522955602E+00  0.00000000000E+00 0.  1.
          5    1    1    2  501    0 -0.13359841122E+01 -0.15059889452E+01  0.53026011891E+02  0.53271951281E+02  0.47000000000E+01 0.  1.
         -5    1    1    2    0  502  0.13359841122E+01  0.15059889452E+01  0.20256359411E+03  0.20262811383E+03  0.47000000000E+01 0.  1.
<mgrwt>
<rscale>  2 0.51130085E+01</rscale>
<asrwt>0</asrwt>
<pdfrwt beam="1">  1       21 0.39345022E-01 0.51130085E+01</pdfrwt>
<pdfrwt beam="2">  1       21 0.23881675E-04 0.51130085E+01</pdfrwt>
<totfact> 0.16702358E+09</totfact>
</mgrwt>
</event>
<event>
 4    1  0.3989279E+006  0.5558300E+01  0.7546771E-02  0.2476720E+00
         21   -1    0    0  503  502  0.00000000000E+00  0.00000000000E+00  0.39207492039E+02  0.39207492039E+02  0.00000000000E+00 0. -1.
         21   -1    0    0  501  503 -0.00000000000E+00 -0.00000000000E+00 -0.11045413285E+01  0.11045413285E+01  0.00000000000E+00 0.  1.
          5    1    1    2  501    0 -0.28637944316E+01 -0.77677439525E+00  0.82609385916E+01  0.99567968455E+01  0.47000000000E+01 0.  1.
         -5    1    1    2    0  502  0.28637944316E+01  0.77677439525E+00  0.29842012119E+02  0.30355236522E+02  0.47000000000E+01 0. -1.
<mgrwt>
<rscale>  2 0.55582998E+01</rscale>
<asrwt>0</asrwt>
<pdfrwt beam="1">  1       21 0.60319208E-02 0.55582998E+01</pdfrwt>
<pdfrwt beam="2">  1       21 0.16992947E-03 0.55582998E+01</pdfrwt>
<totfact> 0.25406877E+09</totfact>
</mgrwt>
</event>
<event>
 4    1  0.3989279E+006  0.5197496E+01  0.7546771E-02  0.2533267E+00
         21   -1    0    0  503  502  0.00000000000E+00  0.00000000000E+00  0.18093195966E+03  0.18093195966E+03  0.00000000000E+00 0.  1.
         21   -1    0    0  501  503 -0.00000000000E+00 -0.00000000000E+00 -0.19060512901E+00  0.19060512901E+00  0.00000000000E+00 0. -1.
          5    1    1    2  501    0 -0.21574480858E+01  0.51902454587E+00  0.13252607866E+03  0.13262795895E+03  0.47000000000E+01 0. -1.
         -5    1    1    2    0  502  0.21574480858E+01 -0.51902454587E+00  0.48215275870E+02  0.48494605844E+02  0.47000000000E+01 0. -1.
<mgrwt>
<rscale>  2 0.51974964E+01</rscale>
<asrwt>0</asrwt>
<pdfrwt beam="1">  1       21 0.27835549E-01 0.51974964E+01</pdfrwt>
<pdfrwt beam="2">  1       21 0.29324011E-04 0.51974964E+01</pdfrwt>
<totfact> 0.23109223E+09</totfact>
</mgrwt>
</event>
<event>
 4    1  0.3989279E+006  0.6311718E+01  0.7546771E-02  0.2376537E+00
         21   -1    0    0  503  502  0.00000000000E+00  0.00000000000E+00  0.75117002368E+00  0.75117002368E+00  0.00000000000E+00 0. -1.
         21   -1    0    0  501  503 -0.00000000000E+00 -0.00000000000E+00 -0.77335027800E+02  0.77335027800E+02  0.00000000000E+00 0. -1.
          5    1    1    2  501    0 -0.39568126442E+01  0.14461717203E+01 -0.60177897294E+02  0.60507992048E+02  0.47000000000E+01 0. -1.
         -5    1    1    2    0  502  0.39568126442E+01 -0.14461717203E+01 -0.16405960482E+02  0.17578205775E+02  0.47000000000E+01 0. -1.
<mgrwt>
<rscale>  2 0.63117176E+01</rscale>
<asrwt>0</asrwt>
<pdfrwt beam="1">  1       21 0.11556470E-03 0.63117176E+01</pdfrwt>
<pdfrwt beam="2">  1       21 0.11897688E-01 0.63117176E+01</pdfrwt>
<totfact> 0.16959094E+09</totfact>
</mgrwt>
</event>
<event>
 4    1  0.3989279E+006  0.4856071E+01  0.7546771E-02  0.2593338E+00
         21   -1    0    0  503  502  0.00000000000E+00  0.00000000000E+00  0.44498851409E+03  0.44498851409E+03  0.00000000000E+00 0. -1.
         21   -1    0    0  501  503 -0.00000000000E+00 -0.00000000000E+00 -0.59526558683E-01  0.59526558683E-01  0.00000000000E+00 0. -1.
          5    1    1    2  501    0  0.57250565331E+00 -0.10787305067E+01  0.14874446258E+03  0.14882370971E+03  0.47000000000E+01 0. -1.
         -5    1    1    2    0  502 -0.57250565331E+00  0.10787305067E+01  0.29618452494E+03  0.29622433094E+03  0.47000000000E+01 0. -1.
<mgrwt>
<rscale>  2 0.48560707E+01</rscale>
<asrwt>0</asrwt>
<pdfrwt beam="1">  1       21 0.68457108E-01 0.48560707E+01</pdfrwt>
<pdfrwt beam="2">  1       21 0.91582884E-05 0.48560707E+01</pdfrwt>
<totfact> 0.21109461E+09</totfact>
</mgrwt>
</event>
<event>
 4    1  0.3989279E+006  0.9614605E+01  0.7546771E-02  0.2097608E+00
         21   -1    0    0  501  502  0.00000000000E+00  0.00000000000E+00  0.41411267779E+02  0.41411267779E+02  0.00000000000E+00 0.  1.
         21   -1    0    0  502  503 -0.00000000000E+00 -0.00000000000E+00 -0.23055955781E+01  0.23055955781E+01  0.00000000000E+00 0. -1.
          5    1    1    2  501    0  0.78810181701E+01  0.28705730194E+01  0.23451272881E+02  0.25345667018E+02  0.47000000000E+01 0. -1.
         -5    1    1    2    0  503 -0.78810181701E+01 -0.28705730194E+01  0.15654399320E+02  0.18371196339E+02  0.47000000000E+01 0.  1.
<mgrwt>
<rscale>  2 0.96146054E+01</rscale>
<asrwt>0</asrwt>
<pdfrwt beam="1">  1       21 0.63709637E-02 0.96146054E+01</pdfrwt>
<pdfrwt beam="2">  1       21 0.35470704E-03 0.96146054E+01</pdfrwt>
<totfact> 0.12692917E+09</totfact>
</mgrwt>
</event>
<event>
 4    1  0.3989279E+006  0.5486974E+01  0.7546771E-02  0.2487396E+00
         21   -1    0    0  501  502  0.00000000000E+00  0.00000000000E+00  0.35538246096E+00  0.35538246096E+00  0.00000000000E+00 0. -1.
         21   -1    0    0  502  503 -0.00000000000E+00 -0.00000000000E+00 -0.86970721927E+02  0.86970721927E+02  0.00000000000E+00 0. -1.
          5    1    1    2  501    0 -0.21795242166E+01 -0.18073635623E+01 -0.36278719238E+02  0.36691311756E+02  0.47000000000E+01 0. -1.
         -5    1    1    2    0  503  0.21795242166E+01  0.18073635623E+01 -0.50336620228E+02  0.50634792632E+02  0.47000000000E+01 0. -1.
<mgrwt>
<rscale>  2 0.54869745E+01</rscale>
<asrwt>0</asrwt>
<pdfrwt beam="1">  1       21 0.54674112E-04 0.54869745E+01</pdfrwt>
<pdfrwt beam="2">  1       21 0.13380139E-01 0.54869745E+01</pdfrwt>
<totfact> 0.34189721E+09</totfact>
</mgrwt>
</event>
<event>
 4    1  0.3989279E+006  0.5739942E+01  0.7546771E-02  0.2450551E+00
         21   -1    0    0  501  502  0.00000000000E+00  0.00000000000E+00  0.70817491954E+00  0.70817491954E+00  0.00000000000E+00 0.  1.
         21   -1    0    0  502  503 -0.00000000000E+00 -0.00000000000E+00 -0.59177176771E+02  0.59177176771E+02  0.00000000000E+00 0.  1.
          5    1    1    2  501    0 -0.62177048716E+00  0.32357901090E+01 -0.15388703555E+02  0.16424345748E+02  0.47000000000E+01 0.  1.
         -5    1    1    2    0  503  0.62177048716E+00 -0.32357901090E+01 -0.43080298297E+02  0.43461005942E+02  0.47000000000E+01 0.  1.
<mgrwt>
<rscale>  2 0.57399422E+01</rscale>
<asrwt>0</asrwt>
<pdfrwt beam="1">  1       21 0.10894998E-03 0.57399422E+01</pdfrwt>
<pdfrwt beam="2">  1       21 0.91041814E-02 0.57399422E+01</pdfrwt>
<totfact> 0.25606924E+09</totfact>
</mgrwt>
</event>
<event>
 4    1  0.3989279E+006  0.6590745E+01  0.7546771E-02  0.2344343E+00
         21   -1    0    0  501  502  0.00000000000E+00  0.00000000000E+00  0.77005654433E+01  0.77005654433E+01  0.00000000000E+00 0.  1.
         21   -1    0    0  502  503 -0.00000000000E+00 -0.00000000000E+00 -0.16094472485E+02  0.16094472485E+02  0.00000000000E+00 0.  1.
          5    1    1    2  501    0 -0.40245128326E+01 -0.22696297505E+01  0.53915521820E+01  0.85150899981E+01  0.47000000000E+01 0.  1.
         -5    1    1    2    0  503  0.40245128326E+01  0.22696297505E+01 -0.13785459224E+02  0.15279947930E+02  0.47000000000E+01 0.  1.
<mgrwt>
<rscale>  2 0.65907452E+01</rscale>
<asrwt>0</asrwt>
<pdfrwt beam="1">  1       21 0.11847024E-02 0.65907452E+01</pdfrwt>
<pdfrwt beam="2">  1       21 0.24760727E-02 0.65907452E+01</pdfrwt>
<totfact> 0.73242034E+08</totfact>
</mgrwt>
</event>
<event>
 4    1  0.3989279E+006  0.4744330E+01  0.7546771E-02  0.2614611E+00
         21   -1    0    0  503  502  0.00000000000E+00  0.00000000000E+00  0.94379243281E+01  0.94379243281E+01  0.00000000000E+00 0. -1.
         21   -1    0    0  501  503 -0.00000000000E+00 -0.00000000000E+00 -0.24070898649E+01  0.24070898649E+01  0.00000000000E+00 0. -1.
          5    1    1    2  501    0  0.62997922528E+00 -0.14763387369E+00  0.29470005639E+01  0.55851125243E+01  0.47000000000E+01 0. -1.
         -5    1    1    2    0  502 -0.62997922528E+00  0.14763387369E+00  0.40838338993E+01  0.62599016687E+01  0.47000000000E+01 0. -1.
<mgrwt>
<rscale>  2 0.47443303E+01</rscale>
<asrwt>0</asrwt>
<pdfrwt beam="1">  1       21 0.14519883E-02 0.47443303E+01</pdfrwt>
<pdfrwt beam="2">  1       21 0.37032152E-03 0.47443303E+01</pdfrwt>
<totfact> 0.58475905E+09</totfact>
</mgrwt>
</event>
<event>
 4    1  0.3989279E+006  0.2711073E+02  0.7546771E-02  0.1632413E+00
         21   -1    0    0  503  502  0.00000000000E+00  0.00000000000E+00  0.13676327709E+01  0.13676327709E+01  0.00000000000E+00 0.  1.
         21   -1    0    0  501  503 -0.00000000000E+00 -0.00000000000E+00 -0.59341857046E+03  0.59341857046E+03  0.00000000000E+00 0. -1.
          5    1    1    2  501    0 -0.20216977167E+02  0.17440628854E+02 -0.20466821087E+03  0.20645597167E+03  0.47000000000E+01 0.  1.
         -5    1    1    2    0  502  0.20216977167E+02 -0.17440628854E+02 -0.38738272682E+03  0.38833023156E+03  0.47000000000E+01 0. -1.
<mgrwt>
<rscale>  2 0.27110730E+02</rscale>
<asrwt>0</asrwt>
<pdfrwt beam="1">  1       21 0.21040465E-03 0.27110730E+02</pdfrwt>
<pdfrwt beam="2">  1       21 0.91295334E-01 0.27110730E+02</pdfrwt>
<totfact> 0.34416776E+07</totfact>
</mgrwt>
</event>
<event>
 4    1  0.3989279E+006  0.6159357E+01  0.7546771E-02  0.2395133E+00
         21   -1    0    0  501  502  0.00000000000E+00  0.00000000000E+00  0.27175120600E+01  0.27175120600E+01  0.00000000000E+00 0. -1.
         21   -1    0    0  502  503 -0.00000000000E+00 -0.00000000000E+00 -0.37066040672E+02  0.37066040672E+02  0.00000000000E+00 0. -1.
          5    1    1    2  501    0  0.20835235858E+01 -0.33921392054E+01 -0.14690434061E+01  0.63321218758E+01  0.47000000000E+01 0. -1.
         -5    1    1    2    0  503 -0.20835235858E+01  0.33921392054E+01 -0.32879485205E+02  0.33451430856E+02  0.47000000000E+01 0. -1.
<mgrwt>
<rscale>  2 0.61593570E+01</rscale>
<asrwt>0</asrwt>
<pdfrwt beam="1">  1       21 0.41807877E-03 0.61593570E+01</pdfrwt>
<pdfrwt beam="2">  1       21 0.57024679E-02 0.61593570E+01</pdfrwt>
<totfact> 0.87909340E+08</totfact>
</mgrwt>
</event>
<event>
 4    1  0.3989279E+006  0.7639203E+01  0.7546771E-02  0.2241002E+00
         21   -1    0    0  501  502  0.00000000000E+00  0.00000000000E+00  0.17720479600E+01  0.17720479600E+01  0.00000000000E+00 0. -1.
         21   -1    0    0  502  503 -0.00000000000E+00 -0.00000000000E+00 -0.42477072658E+02  0.42477072658E+02  0.00000000000E+00 0. -1.
          5    1    1    2  501    0  0.84224320661E+00  0.59630576457E+01 -0.98647574958E+01  0.12476813317E+02  0.47000000000E+01 0. -1.
         -5    1    1    2    0  503 -0.84224320661E+00 -0.59630576457E+01 -0.30840267202E+02  0.31772307301E+02  0.47000000000E+01 0. -1.
<mgrwt>
<rscale>  2 0.76392035E+01</rscale>
<asrwt>0</asrwt>
<pdfrwt beam="1">  1       21 0.27262276E-03 0.76392035E+01</pdfrwt>
<pdfrwt beam="2">  1       21 0.65349342E-02 0.76392035E+01</pdfrwt>
<totfact> 0.15196783E+09</totfact>
</mgrwt>
</event>
<event>
 4    1  0.3989279E+006  0.4815320E+01  0.7546771E-02  0.2600997E+00
         21   -1    0    0  503  502  0.00000000000E+00  0.00000000000E+00  0.40567454665E+04  0.40567454665E+04  0.00000000000E+00 0. -1.
         21   -1    0    0  501  503 -0.00000000000E+00 -0.00000000000E+00 -0.62386450400E-02  0.62386450400E-02  0.00000000000E+00 0. -1.
          5    1    1    2  501    0  0.26717045466E+00 -0.10128820596E+01  0.14411319391E+04  0.14411399839E+04  0.47000000000E+01 0. -1.
         -5    1    1    2    0  502 -0.26717045466E+00  0.10128820596E+01  0.26156072887E+04  0.26156117212E+04  0.47000000000E+01 0. -1.
<mgrwt>
<rscale>  2 0.48153204E+01</rscale>
<asrwt>0</asrwt>
<pdfrwt beam="1">  1       21 0.62200896E+00 0.48153204E+01</pdfrwt>
<pdfrwt beam="2">  1       21 0.96304079E-06 0.48153204E+01</pdfrwt>
<totfact> 0.41574505E+07</totfact>
</mgrwt>
</event>
<event>
 4    1  0.3989279E+006  0.4804969E+01  0.7546771E-02  0.2602960E+00
         21   -1    0    0  503  502  0.00000000000E+00  0.00000000000E+00  0.37182633213E+01  0.37182633213E+01  0.00000000000E+00 0. -1.
         21   -1    0    0  501  503 -0.00000000000E+00 -0.00000000000E+00 -0.12715907086E+02  0.12715907086E+02  0.00000000000E+00 0. -1.
          5    1    1    2  501    0 -0.99599612073E+00  0.75620301159E-01 -0.10376721673E+02  0.11435212257E+02  0.47000000000E+01 0. -1.
         -5    1    1    2    0  502  0.99599612073E+00 -0.75620301159E-01  0.13790779084E+01  0.49989581494E+01  0.47000000000E+01 0. -1.
<mgrwt>
<rscale>  2 0.48049690E+01</rscale>
<asrwt>0</asrwt>
<pdfrwt beam="1">  1       21 0.57204050E-03 0.48049690E+01</pdfrwt>
<pdfrwt beam="2">  1       21 0.19562934E-02 0.48049690E+01</pdfrwt>
<totfact> 0.21508263E+09</totfact>
</mgrwt>
</event>
<event>
 4    1  0.3989279E+006  0.4843887E+01  0.7546771E-02  0.2595616E+00
         21   -1    0    0  503  502  0.00000000000E+00  0.00000000000E+00  0.25468351311E+01  0.25468351311E+01  0.00000000000E+00 0. -1.
         21   -1    0    0  501  503 -0.00000000000E+00 -0.00000000000E+00 -0.14539817940E+02  0.14539817940E+02  0.00000000000E+00 0. -1.
          5    1    1    2  501    0 -0.25360655384E+00 -0.11440824671E+01 -0.11167716831E+02  0.12172967600E+02  0.47000000000E+01 0. -1.
         -5    1    1    2    0  502  0.25360655384E+00  0.11440824671E+01 -0.82526597820E+00  0.49136854713E+01  0.47000000000E+01 0. -1.
<mgrwt>
<rscale>  2 0.48438870E+01</rscale>
<asrwt>0</asrwt>
<pdfrwt beam="1">  1       21 0.39182080E-03 0.48438870E+01</pdfrwt>
<pdfrwt beam="2">  1       21 0.22368950E-02 0.48438870E+01</pdfrwt>
<totfact> 0.30109676E+09</totfact>
</mgrwt>
</event>
<event>
 4    1  0.3989279E+006  0.4848005E+01  0.7546771E-02  0.2594845E+00
         21   -1    0    0  503  502  0.00000000000E+00  0.00000000000E+00  0.16711074128E+01  0.16711074128E+01  0.00000000000E+00 0. -1.
         21   -1    0    0  501  503 -0.00000000000E+00 -0.00000000000E+00 -0.15459850222E+02  0.15459850222E+02  0.00000000000E+00 0. -1.
          5    1    1    2  501    0  0.91048790386E+00 -0.76430522890E+00 -0.94677495477E+01  0.10636796144E+02  0.47000000000E+01 0. -1.
         -5    1    1    2    0  502 -0.91048790386E+00  0.76430522890E+00 -0.43209932616E+01  0.64941614911E+01  0.47000000000E+01 0. -1.
<mgrwt>
<rscale>  2 0.48480048E+01</rscale>
<asrwt>0</asrwt>
<pdfrwt beam="1">  1       21 0.25709344E-03 0.48480048E+01</pdfrwt>
<pdfrwt beam="2">  1       21 0.23784385E-02 0.48480048E+01</pdfrwt>
<totfact> 0.48926697E+09</totfact>
</mgrwt>
</event>
<event>
 4    1  0.3989279E+006  0.8391260E+01  0.7546771E-02  0.2180062E+00
         21   -1    0    0  503  502  0.00000000000E+00  0.00000000000E+00  0.43862651992E+00  0.43862651992E+00  0.00000000000E+00 0. -1.
         21   -1    0    0  501  503 -0.00000000000E+00 -0.00000000000E+00 -0.16233720030E+03  0.16233720030E+03  0.00000000000E+00 0.  1.
          5    1    1    2  501    0 -0.60407269527E+01 -0.34398921648E+01 -0.89533691405E+02  0.89926053716E+02  0.47000000000E+01 0.  1.
         -5    1    1    2    0  502  0.60407269527E+01  0.34398921648E+01 -0.72364882377E+02  0.72849773107E+02  0.47000000000E+01 0. -1.
<mgrwt>
<rscale>  2 0.83912598E+01</rscale>
<asrwt>0</asrwt>
<pdfrwt beam="1">  1       21 0.67480992E-04 0.83912598E+01</pdfrwt>
<pdfrwt beam="2">  1       21 0.24974958E-01 0.83912598E+01</pdfrwt>
<totfact> 0.12929452E+09</totfact>
</mgrwt>
</event>
<event>
 4    1  0.3989279E+006  0.4820593E+01  0.7546771E-02  0.2599999E+00
         21   -1    0    0  501  502  0.00000000000E+00  0.00000000000E+00  0.58218382138E+03  0.58218382138E+03  0.00000000000E+00 0.  1.
         21   -1    0    0  502  503 -0.00000000000E+00 -0.00000000000E+00 -0.40194926708E-01  0.40194926708E-01  0.00000000000E+00 0. -1.
          5    1    1    2  501    0  0.91957383609E+00 -0.55000340338E+00  0.26679677666E+03  0.26684032333E+03  0.47000000000E+01 0. -1.
         -5    1    1    2    0  503 -0.91957383609E+00  0.55000340338E+00  0.31534684979E+03  0.31538369297E+03  0.47000000000E+01 0.  1.
<mgrwt>
<rscale>  2 0.48205933E+01</rscale>
<asrwt>0</asrwt>
<pdfrwt beam="1">  1       21 0.89559989E-01 0.48205933E+01</pdfrwt>
<pdfrwt beam="2">  1       21 0.61843011E-05 0.48205933E+01</pdfrwt>
<totfact> 0.21214634E+09</totfact>
</mgrwt>
</event>
<event>
 4    1  0.3989279E+006  0.7808998E+01  0.7546771E-02  0.2226419E+00
         21   -1    0    0  503  502  0.00000000000E+00  0.00000000000E+00  0.12446827404E+02  0.12446827404E+02  0.00000000000E+00 0. -1.
         21   -1    0    0  501  503 -0.00000000000E+00 -0.00000000000E+00 -0.87259847953E+01  0.87259847953E+01  0.00000000000E+00 0. -1.
          5    1    1    2  501    0 -0.59773232930E+01  0.17782159729E+01 -0.51501597891E+01  0.93543888976E+01  0.47000000000E+01 0. -1.
         -5    1    1    2    0  502  0.59773232930E+01 -0.17782159729E+01  0.88710023980E+01  0.11818423302E+02  0.47000000000E+01 0. -1.
<mgrwt>
<rscale>  2 0.78089977E+01</rscale>
<asrwt>0</asrwt>
<pdfrwt beam="1">  1       21 0.19148965E-02 0.78089977E+01</pdfrwt>
<pdfrwt beam="2">  1       21 0.13424592E-02 0.78089977E+01</pdfrwt>
<totfact> 0.10047399E+09</totfact>
</mgrwt>
</event>
<event>
 4    1  0.3989279E+006  0.6624845E+01  0.7546771E-02  0.2340563E+00
         21   -1    0    0  501  502  0.00000000000E+00  0.00000000000E+00  0.27177676765E+02  0.27177676765E+02  0.00000000000E+00 0. -1.
         21   -1    0    0  502  503 -0.00000000000E+00 -0.00000000000E+00 -0.44948367933E+01  0.44948367933E+01  0.00000000000E+00 0.  1.
          5    1    1    2  501    0  0.24722559146E+01  0.39606209836E+01  0.24017614277E+02  0.24914541205E+02  0.47000000000E+01 0. -1.
         -5    1    1    2    0  503 -0.24722559146E+01 -0.39606209836E+01 -0.13347743055E+01  0.67579723534E+01  0.47000000000E+01 0.  1.
<mgrwt>
<rscale>  2 0.66248447E+01</rscale>
<asrwt>0</asrwt>
<pdfrwt beam="1">  1       21 0.41811809E-02 0.66248447E+01</pdfrwt>
<pdfrwt beam="2">  1       21 0.69151337E-03 0.66248447E+01</pdfrwt>
<totfact> 0.73044946E+08</totfact>
</mgrwt>
</event>
<event>
 4    1  0.3989279E+006  0.9741215E+01  0.7546771E-02  0.2090022E+00
         21   -1    0    0  501  502  0.00000000000E+00  0.00000000000E+00  0.13001198304E+02  0.13001198304E+02  0.00000000000E+00 0. -1.
         21   -1    0    0  502  503 -0.00000000000E+00 -0.00000000000E+00 -0.84571301116E+01  0.84571301116E+01  0.00000000000E+00 0. -1.
          5    1    1    2  501    0  0.15412926081E+01 -0.83920010867E+01  0.62430139199E+01  0.11570068623E+02  0.47000000000E+01 0. -1.
         -5    1    1    2    0  503 -0.15412926081E+01  0.83920010867E+01 -0.16989457272E+01  0.98882597926E+01  0.47000000000E+01 0. -1.
<mgrwt>
<rscale>  2 0.97412148E+01</rscale>
<asrwt>0</asrwt>
<pdfrwt beam="1">  1       21 0.20001844E-02 0.97412148E+01</pdfrwt>
<pdfrwt beam="2">  1       21 0.13010969E-02 0.97412148E+01</pdfrwt>
<totfact> 0.11366862E+09</totfact>
</mgrwt>
</event>
<event>
 4    1  0.3989279E+006  0.9340612E+01  0.7546771E-02  0.2114578E+00
         21   -1    0    0  501  502  0.00000000000E+00  0.00000000000E+00  0.45186450044E+01  0.45186450044E+01  0.00000000000E+00 0.  1.
         21   -1    0    0  502  503 -0.00000000000E+00 -0.00000000000E+00 -0.24232453282E+02  0.24232453282E+02  0.00000000000E+00 0. -1.
          5    1    1    2  501    0 -0.80482057329E+01  0.61921359938E+00 -0.33766120498E+01  0.99321976388E+01  0.47000000000E+01 0.  1.
         -5    1    1    2    0  503  0.80482057329E+01 -0.61921359938E+00 -0.16337196228E+02  0.18818900648E+02  0.47000000000E+01 0. -1.
<mgrwt>
<rscale>  2 0.93406125E+01</rscale>
<asrwt>0</asrwt>
<pdfrwt beam="1">  1       21 0.69517615E-03 0.93406125E+01</pdfrwt>
<pdfrwt beam="2">  1       21 0.37280698E-02 0.93406125E+01</pdfrwt>
<totfact> 0.10836992E+09</totfact>
</mgrwt>
</event>
<event>
 4    1  0.3989279E+006  0.1068773E+02  0.7546771E-02  0.2037839E+00
         21   -1    0    0  503  502  0.00000000000E+00  0.00000000000E+00  0.14142236526E+03  0.14142236526E+03  0.00000000000E+00 0. -1.
         21   -1    0    0  501  503 -0.00000000000E+00 -0.00000000000E+00 -0.22361515100E+01  0.22361515100E+01  0.00000000000E+00 0.  1.
          5    1    1    2  501    0  0.17138154531E+01  0.94445919467E+01  0.12183729450E+02  0.16207120156E+02  0.47000000000E+01 0.  1.
         -5    1    1    2    0  502 -0.17138154531E+01 -0.94445919467E+01  0.12700248430E+03  0.12745139662E+03  0.47000000000E+01 0. -1.
<mgrwt>
<rscale>  2 0.10687726E+02</rscale>
<asrwt>0</asrwt>
<pdfrwt beam="1">  1       21 0.21757280E-01 0.10687726E+02</pdfrwt>
<pdfrwt beam="2">  1       21 0.34402342E-03 0.10687726E+02</pdfrwt>
<totfact> 0.19391855E+08</totfact>
</mgrwt>
</event>
<event>
 4    1  0.3989279E+006  0.5931985E+01  0.7546771E-02  0.2424361E+00
         21   -1    0    0  501  502  0.00000000000E+00  0.00000000000E+00  0.97670932478E+02  0.97670932478E+02  0.00000000000E+00 0.  1.
         21   -1    0    0  502  503 -0.00000000000E+00 -0.00000000000E+00 -0.43744030398E+00  0.43744030398E+00  0.00000000000E+00 0. -1.
          5    1    1    2  501    0  0.36123083171E+01  0.22286794785E+00  0.28013939702E+02  0.28635105363E+02  0.47000000000E+01 0. -1.
         -5    1    1    2    0  503 -0.36123083171E+01 -0.22286794785E+00  0.69219552471E+02  0.69473267419E+02  0.47000000000E+01 0.  1.
<mgrwt>
<rscale>  2 0.59319846E+01</rscale>
<asrwt>0</asrwt>
<pdfrwt beam="1">  1       21 0.15026280E-01 0.59319846E+01</pdfrwt>
<pdfrwt beam="2">  1       21 0.67298586E-04 0.59319846E+01</pdfrwt>
<totfact> 0.23126566E+09</totfact>
</mgrwt>
</event>
<event>
 4    1  0.3989279E+006  0.7896361E+01  0.7546771E-02  0.2219114E+00
         21   -1    0    0  501  502  0.00000000000E+00  0.00000000000E+00  0.59481075487E+03  0.59481075487E+03  0.00000000000E+00 0. -1.
         21   -1    0    0  502  503 -0.00000000000E+00 -0.00000000000E+00 -0.10482874021E+00  0.10482874021E+00  0.00000000000E+00 0. -1.
          5    1    1    2  501    0  0.43455007024E+01 -0.46237578144E+01  0.29632172964E+03  0.29642692180E+03  0.47000000000E+01 0. -1.
         -5    1    1    2    0  503 -0.43455007024E+01  0.46237578144E+01  0.29838419649E+03  0.29848866181E+03  0.47000000000E+01 0. -1.
<mgrwt>
<rscale>  2 0.78963607E+01</rscale>
<asrwt>0</asrwt>
<pdfrwt beam="1">  1       21 0.91506645E-01 0.78963607E+01</pdfrwt>
<pdfrwt beam="2">  1       21 0.16127975E-04 0.78963607E+01</pdfrwt>
<totfact> 0.79388624E+08</totfact>
</mgrwt>
</event>
<event>
 4    1  0.3989279E+006  0.6226030E+01  0.7546771E-02  0.2386902E+00
         21   -1    0    0  501  502  0.00000000000E+00  0.00000000000E+00  0.33155179452E+03  0.33155179452E+03  0.00000000000E+00 0. -1.
         21   -1    0    0  502  503 -0.00000000000E+00 -0.00000000000E+00 -0.71324214819E+00  0.71324214819E+00  0.00000000000E+00 0. -1.
          5    1    1    2  501    0  0.39295904067E+01 -0.11098526148E+01  0.31732647537E+03  0.31738754769E+03  0.47000000000E+01 0. -1.
         -5    1    1    2    0  503 -0.39295904067E+01  0.11098526148E+01  0.13512077000E+02  0.14877488983E+02  0.47000000000E+01 0. -1.
<mgrwt>
<rscale>  2 0.62260303E+01</rscale>
<asrwt>0</asrwt>
<pdfrwt beam="1">  1       21 0.51007845E-01 0.62260303E+01</pdfrwt>
<pdfrwt beam="2">  1       21 0.10972983E-03 0.62260303E+01</pdfrwt>
<totfact> 0.15983453E+08</totfact>
</mgrwt>
</event>
<event>
 4    1  0.3989279E+006  0.1280156E+02  0.7546771E-02  0.1943651E+00
         21   -1    0    0  503  502  0.00000000000E+00  0.00000000000E+00  0.26385942328E+02  0.26385942328E+02  0.00000000000E+00 0.  1.
         21   -1    0    0  501  503 -0.00000000000E+00 -0.00000000000E+00 -0.43814401275E+02  0.43814401275E+02  0.00000000000E+00 0. -1.
          5    1    1    2  501    0 -0.50439002343E+01 -0.10786514736E+02 -0.41231574498E+02  0.43173169507E+02  0.47000000000E+01 0. -1.
         -5    1    1    2    0  502  0.50439002343E+01  0.10786514736E+02  0.23803115550E+02  0.27027174096E+02  0.47000000000E+01 0.  1.
<mgrwt>
<rscale>  2 0.12801556E+02</rscale>
<asrwt>0</asrwt>
<pdfrwt beam="1">  1       21 0.40593758E-02 0.12801556E+02</pdfrwt>
<pdfrwt beam="2">  1       21 0.67406771E-02 0.12801556E+02</pdfrwt>
<totfact> 0.37118127E+07</totfact>
</mgrwt>
</event>
<event>
 4    1  0.3989279E+006  0.1080560E+02  0.7546771E-02  0.2031844E+00
         21   -1    0    0  501  502  0.00000000000E+00  0.00000000000E+00  0.31086464574E+02  0.31086464574E+02  0.00000000000E+00 0.  1.
         21   -1    0    0  502  503 -0.00000000000E+00 -0.00000000000E+00 -0.63174314430E+01  0.63174314430E+01  0.00000000000E+00 0.  1.
          5    1    1    2  501    0  0.18573501262E+01  0.95509831193E+01  0.24293020824E+02  0.26587814668E+02  0.47000000000E+01 0.  1.
         -5    1    1    2    0  503 -0.18573501262E+01 -0.95509831193E+01  0.47601230679E+00  0.10816081349E+02  0.47000000000E+01 0.  1.
<mgrwt>
<rscale>  2 0.10805602E+02</rscale>
<asrwt>0</asrwt>
<pdfrwt beam="1">  1       21 0.47825329E-02 0.10805602E+02</pdfrwt>
<pdfrwt beam="2">  1       21 0.97191255E-03 0.10805602E+02</pdfrwt>
<totfact> 0.49650049E+08</totfact>
</mgrwt>
</event>
<event>
 4    1  0.3989279E+006  0.1223504E+02  0.7546771E-02  0.1966416E+00
         21   -1    0    0  503  502  0.00000000000E+00  0.00000000000E+00  0.27289430798E+02  0.27289430798E+02  0.00000000000E+00 0. -1.
         21   -1    0    0  501  503 -0.00000000000E+00 -0.00000000000E+00 -0.84343602166E+01  0.84343602166E+01  0.00000000000E+00 0.  1.
          5    1    1    2  501    0 -0.43642809172E+01  0.10419172205E+02 -0.11340416740E+01  0.12287479314E+02  0.47000000000E+01 0.  1.
         -5    1    1    2    0  502  0.43642809172E+01 -0.10419172205E+02  0.19989112256E+02  0.23436311701E+02  0.47000000000E+01 0. -1.
<mgrwt>
<rscale>  2 0.12235036E+02</rscale>
<asrwt>0</asrwt>
<pdfrwt beam="1">  1       21 0.41983739E-02 0.12235036E+02</pdfrwt>
<pdfrwt beam="2">  1       21 0.12975939E-02 0.12235036E+02</pdfrwt>
<totfact> 0.42252176E+08</totfact>
</mgrwt>
</event>
<event>
 4    1  0.3989279E+006  0.6661381E+01  0.7546771E-02  0.2336548E+00
         21   -1    0    0  501  502  0.00000000000E+00  0.00000000000E+00  0.63054924244E+01  0.63054924244E+01  0.00000000000E+00 0.  1.
         21   -1    0    0  502  503 -0.00000000000E+00 -0.00000000000E+00 -0.12696979390E+02  0.12696979390E+02  0.00000000000E+00 0. -1.
          5    1    1    2  501    0 -0.33149689525E+01  0.33607991872E+01  0.31476797507E+01  0.73676236430E+01  0.47000000000E+01 0.  1.
         -5    1    1    2    0  503  0.33149689525E+01 -0.33607991872E+01 -0.95391667167E+01  0.11634848172E+02  0.47000000000E+01 0. -1.
<mgrwt>
<rscale>  2 0.66613805E+01</rscale>
<asrwt>0</asrwt>
<pdfrwt beam="1">  1       21 0.97007578E-03 0.66613805E+01</pdfrwt>
<pdfrwt beam="2">  1       21 0.19533814E-02 0.66613805E+01</pdfrwt>
<totfact> 0.13832856E+09</totfact>
</mgrwt>
</event>
<event>
 4    1  0.3989279E+006  0.1082745E+02  0.7546771E-02  0.2030744E+00
         21   -1    0    0  503  502  0.00000000000E+00  0.00000000000E+00  0.76076994482E+01  0.76076994482E+01  0.00000000000E+00 0. -1.
         21   -1    0    0  501  503 -0.00000000000E+00 -0.00000000000E+00 -0.31295391197E+02  0.31295391197E+02  0.00000000000E+00 0.  1.
          5    1    1    2  501    0 -0.54750807665E+01 -0.80726162253E+01 -0.25702296617E+02  0.27889813436E+02  0.47000000000E+01 0.  1.
         -5    1    1    2    0  502  0.54750807665E+01  0.80726162253E+01  0.20146048677E+01  0.11013277209E+02  0.47000000000E+01 0. -1.
<mgrwt>
<rscale>  2 0.10827449E+02</rscale>
<asrwt>0</asrwt>
<pdfrwt beam="1">  1       21 0.11704153E-02 0.10827449E+02</pdfrwt>
<pdfrwt beam="2">  1       21 0.48146755E-02 0.10827449E+02</pdfrwt>
<totfact> 0.37510106E+08</totfact>
</mgrwt>
</event>
<event>
 4    1  0.3989279E+006  0.5022877E+01  0.7546771E-02  0.2563111E+00
         21   -1    0    0  503  502  0.00000000000E+00  0.00000000000E+00  0.72638133154E+00  0.72638133154E+00  0.00000000000E+00 0. -1.
         21   -1    0    0  501  503 -0.00000000000E+00 -0.00000000000E+00 -0.34732846268E+02  0.34732846268E+02  0.00000000000E+00 0. -1.
          5    1    1    2  501    0  0.17370598855E+01 -0.34915926251E+00 -0.17008077492E+02  0.17734260323E+02  0.47000000000E+01 0. -1.
         -5    1    1    2    0  502 -0.17370598855E+01  0.34915926251E+00 -0.16998387445E+02  0.17724967277E+02  0.47000000000E+01 0. -1.
<mgrwt>
<rscale>  2 0.50228766E+01</rscale>
<asrwt>0</asrwt>
<pdfrwt beam="1">  1       21 0.11175099E-03 0.50228766E+01</pdfrwt>
<pdfrwt beam="2">  1       21 0.53435141E-02 0.50228766E+01</pdfrwt>
<totfact> 0.48260962E+09</totfact>
</mgrwt>
</event>
<event>
 4    1  0.3989279E+006  0.5842149E+01  0.7546771E-02  0.2436432E+00
         21   -1    0    0  503  502  0.00000000000E+00  0.00000000000E+00  0.20264926777E+02  0.20264926777E+02  0.00000000000E+00 0.  1.
         21   -1    0    0  501  503 -0.00000000000E+00 -0.00000000000E+00 -0.66926485878E+01  0.66926485878E+01  0.00000000000E+00 0.  1.
          5    1    1    2  501    0  0.70394536535E-01  0.34692575011E+01 -0.48739624651E+01  0.76082989630E+01  0.47000000000E+01 0.  1.
         -5    1    1    2    0  502 -0.70394536535E-01 -0.34692575011E+01  0.18446240654E+02  0.19349276402E+02  0.47000000000E+01 0.  1.
<mgrwt>
<rscale>  2 0.58421488E+01</rscale>
<asrwt>0</asrwt>
<pdfrwt beam="1">  1       21 0.31176810E-02 0.58421488E+01</pdfrwt>
<pdfrwt beam="2">  1       21 0.10296383E-02 0.58421488E+01</pdfrwt>
<totfact> 0.58200282E+08</totfact>
</mgrwt>
</event>
<event>
 4    1  0.3989279E+006  0.4949078E+01  0.7546771E-02  0.2576267E+00
         21   -1    0    0  503  502  0.00000000000E+00  0.00000000000E+00  0.59692264897E+02  0.59692264897E+02  0.00000000000E+00 0.  1.
         21   -1    0    0  501  503 -0.00000000000E+00 -0.00000000000E+00 -0.64243931911E+00  0.64243931911E+00  0.00000000000E+00 0.  1.
          5    1    1    2  501    0 -0.76015234887E+00 -0.13511273255E+01  0.11391907764E+02  0.12420504786E+02  0.47000000000E+01 0.  1.
         -5    1    1    2    0  502  0.76015234887E+00  0.13511273255E+01  0.47657917814E+02  0.47914199430E+02  0.47000000000E+01 0.  1.
<mgrwt>
<rscale>  2 0.49490784E+01</rscale>
<asrwt>0</asrwt>
<pdfrwt beam="1">  1       21 0.91834210E-02 0.49490784E+01</pdfrwt>
<pdfrwt beam="2">  1       21 0.98836865E-04 0.49490784E+01</pdfrwt>
<totfact> 0.25056377E+09</totfact>
</mgrwt>
</event>
<event>
 4    1  0.3989279E+006  0.4878382E+01  0.7546771E-02  0.2589192E+00
         21   -1    0    0  503  502  0.00000000000E+00  0.00000000000E+00  0.96346325097E+02  0.96346325097E+02  0.00000000000E+00 0.  1.
         21   -1    0    0  501  503 -0.00000000000E+00 -0.00000000000E+00 -0.29599012054E+00  0.29599012054E+00  0.00000000000E+00 0.  1.
          5    1    1    2  501    0  0.20052877413E-01 -0.13069840763E+01  0.28368772358E+02  0.28785167267E+02  0.47000000000E+01 0.  1.
         -5    1    1    2    0  502 -0.20052877413E-01  0.13069840763E+01  0.67681562619E+02  0.67857147951E+02  0.47000000000E+01 0.  1.
<mgrwt>
<rscale>  2 0.48783819E+01</rscale>
<asrwt>0</asrwt>
<pdfrwt beam="1">  1       21 0.14822487E-01 0.48783819E+01</pdfrwt>
<pdfrwt beam="2">  1       21 0.45537019E-04 0.48783819E+01</pdfrwt>
<totfact> 0.33206872E+09</totfact>
</mgrwt>
</event>
<event>
 4    1  0.3989279E+006  0.9897904E+01  0.7546771E-02  0.2080845E+00
         21   -1    0    0  501  502  0.00000000000E+00  0.00000000000E+00  0.39183359460E+02  0.39183359460E+02  0.00000000000E+00 0.  1.
         21   -1    0    0  502  503 -0.00000000000E+00 -0.00000000000E+00 -0.38623980707E+01  0.38623980707E+01  0.00000000000E+00 0. -1.
          5    1    1    2  501    0 -0.46069000233E+01  0.73929010313E+01  0.30442006632E+02  0.32010690109E+02  0.47000000000E+01 0.  1.
         -5    1    1    2    0  503  0.46069000233E+01 -0.73929010313E+01  0.48789547578E+01  0.11035067422E+02  0.47000000000E+01 0. -1.
<mgrwt>
<rscale>  2 0.98979045E+01</rscale>
<asrwt>0</asrwt>
<pdfrwt beam="1">  1       21 0.60282089E-02 0.98979045E+01</pdfrwt>
<pdfrwt beam="2">  1       21 0.59421511E-03 0.98979045E+01</pdfrwt>
<totfact> 0.67472143E+08</totfact>
</mgrwt>
</event>
<event>
 4    1  0.3989279E+006  0.5770894E+01  0.7546771E-02  0.2446231E+00
         21   -1    0    0  503  502  0.00000000000E+00  0.00000000000E+00  0.23667359166E+01  0.23667359166E+01  0.00000000000E+00 0. -1.
         21   -1    0    0  501  503 -0.00000000000E+00 -0.00000000000E+00 -0.27656585468E+02  0.27656585468E+02  0.00000000000E+00 0. -1.
          5    1    1    2  501    0 -0.29610802512E+01 -0.15637193378E+01 -0.23166063350E+02  0.23874038317E+02  0.47000000000E+01 0. -1.
         -5    1    1    2    0  502  0.29610802512E+01  0.15637193378E+01 -0.21237862018E+01  0.61492830682E+01  0.47000000000E+01 0. -1.
<mgrwt>
<rscale>  2 0.57708937E+01</rscale>
<asrwt>0</asrwt>
<pdfrwt beam="1">  1       21 0.36411322E-03 0.57708937E+01</pdfrwt>
<pdfrwt beam="2">  1       21 0.42548593E-02 0.57708937E+01</pdfrwt>
<totfact> 0.15560737E+09</totfact>
</mgrwt>
</event>
<event>
 4    1  0.3989279E+006  0.4964259E+01  0.7546771E-02  0.2573533E+00
         21   -1    0    0  503  502  0.00000000000E+00  0.00000000000E+00  0.31577017432E+03  0.31577017432E+03  0.00000000000E+00 0.  1.
         21   -1    0    0  501  503 -0.00000000000E+00 -0.00000000000E+00 -0.89294028835E-01  0.89294028835E-01  0.00000000000E+00 0.  1.
          5    1    1    2  501    0 -0.20447997026E+00  0.15849466350E+01  0.10178269813E+03  0.10190368740E+03  0.47000000000E+01 0.  1.
         -5    1    1    2    0  502  0.20447997026E+00 -0.15849466350E+01  0.21389818216E+03  0.21395578094E+03  0.47000000000E+01 0.  1.
<mgrwt>
<rscale>  2 0.49642590E+01</rscale>
<asrwt>0</asrwt>
<pdfrwt beam="1">  1       21 0.48579133E-01 0.49642590E+01</pdfrwt>
<pdfrwt beam="2">  1       21 0.13737796E-04 0.49642590E+01</pdfrwt>
<totfact> 0.23435730E+09</totfact>
</mgrwt>
</event>
<event>
 4    1  0.3989279E+006  0.5086675E+01  0.7546771E-02  0.2552004E+00
         21   -1    0    0  501  502  0.00000000000E+00  0.00000000000E+00  0.42023245475E-01  0.42023245475E-01  0.00000000000E+00 0. -1.
         21   -1    0    0  502  503 -0.00000000000E+00 -0.00000000000E+00 -0.67834531610E+03  0.67834531610E+03  0.00000000000E+00 0. -1.
          5    1    1    2  501    0 -0.18845984328E+01 -0.48223802512E+00 -0.23608431168E+03  0.23613910410E+03  0.47000000000E+01 0. -1.
         -5    1    1    2    0  503  0.18845984328E+01  0.48223802512E+00 -0.44221898118E+03  0.44224823524E+03  0.47000000000E+01 0. -1.
<mgrwt>
<rscale>  2 0.50866752E+01</rscale>
<asrwt>0</asrwt>
<pdfrwt beam="1">  1       21 0.64646493E-05 0.50866752E+01</pdfrwt>
<pdfrwt beam="2">  1       21 0.10436833E+00 0.50866752E+01</pdfrwt>
<totfact> 0.15416235E+09</totfact>
</mgrwt>
</event>
<event>
 4    1  0.3989279E+006  0.7380064E+01  0.7546771E-02  0.2264302E+00
         21   -1    0    0  503  502  0.00000000000E+00  0.00000000000E+00  0.71723050973E+00  0.71723050973E+00  0.00000000000E+00 0. -1.
         21   -1    0    0  501  503 -0.00000000000E+00 -0.00000000000E+00 -0.11439459958E+04  0.11439459958E+04  0.00000000000E+00 0.  1.
          5    1    1    2  501    0  0.52717485273E+01 -0.21410307115E+01 -0.11246233102E+04  0.11246475249E+04  0.47000000000E+01 0.  1.
         -5    1    1    2    0  502 -0.52717485273E+01  0.21410307115E+01 -0.18605455065E+02  0.20015701417E+02  0.47000000000E+01 0. -1.
<mgrwt>
<rscale>  2 0.73800640E+01</rscale>
<asrwt>0</asrwt>
<pdfrwt beam="1">  1       21 0.11034352E-03 0.73800640E+01</pdfrwt>
<pdfrwt beam="2">  1       21 0.17599111E+00 0.73800640E+01</pdfrwt>
<totfact> 0.14129810E+07</totfact>
</mgrwt>
</event>
<event>
 4    1  0.3989279E+006  0.8310252E+01  0.7546771E-02  0.2186198E+00
         21   -1    0    0  501  502  0.00000000000E+00  0.00000000000E+00  0.75476503876E+00  0.75476503876E+00  0.00000000000E+00 0. -1.
         21   -1    0    0  502  503 -0.00000000000E+00 -0.00000000000E+00 -0.14810170881E+03  0.14810170881E+03  0.00000000000E+00 0.  1.
          5    1    1    2  501    0 -0.18690591294E+01  0.65937022219E+01 -0.27660945759E+02  0.28882316585E+02  0.47000000000E+01 0. -1.
         -5    1    1    2    0  503  0.18690591294E+01 -0.65937022219E+01 -0.11968599802E+03  0.11997415727E+03  0.47000000000E+01 0.  1.
<mgrwt>
<rscale>  2 0.83102522E+01</rscale>
<asrwt>0</asrwt>
<pdfrwt beam="1">  1       21 0.11611765E-03 0.83102522E+01</pdfrwt>
<pdfrwt beam="2">  1       21 0.22784887E-01 0.83102522E+01</pdfrwt>
<totfact> 0.71472691E+08</totfact>
</mgrwt>
</event>
<event>
 4    1  0.3989279E+006  0.8863621E+01  0.7546771E-02  0.2146084E+00
         21   -1    0    0  503  502  0.00000000000E+00  0.00000000000E+00  0.14871873056E+02  0.14871873056E+02  0.00000000000E+00 0. -1.
         21   -1    0    0  501  503 -0.00000000000E+00 -0.00000000000E+00 -0.16115558964E+02  0.16115558964E+02  0.00000000000E+00 0.  1.
          5    1    1    2  501    0 -0.12902961850E+01  0.74033041256E+01 -0.13324783650E+02  0.16003550717E+02  0.47000000000E+01 0.  1.
         -5    1    1    2    0  502  0.12902961850E+01 -0.74033041256E+01  0.12081097743E+02  0.14983881302E+02  0.47000000000E+01 0. -1.
<mgrwt>
<rscale>  2 0.88636209E+01</rscale>
<asrwt>0</asrwt>
<pdfrwt beam="1">  1       21 0.22879805E-02 0.88636209E+01</pdfrwt>
<pdfrwt beam="2">  1       21 0.24793168E-02 0.88636209E+01</pdfrwt>
<totfact> 0.34170709E+08</totfact>
</mgrwt>
</event>
<event>
 4    1  0.3989279E+006  0.6024747E+01  0.7546771E-02  0.2412214E+00
         21   -1    0    0  503  502  0.00000000000E+00  0.00000000000E+00  0.83803303845E+01  0.83803303845E+01  0.00000000000E+00 0.  1.
         21   -1    0    0  501  503 -0.00000000000E+00 -0.00000000000E+00 -0.28186864646E+02  0.28186864646E+02  0.00000000000E+00 0.  1.
          5    1    1    2  501    0  0.13468174353E+01  0.35204622372E+01 -0.26723549581E+02  0.27394263520E+02  0.47000000000E+01 0.  1.
         -5    1    1    2    0  502 -0.13468174353E+01 -0.35204622372E+01  0.69170153198E+01  0.91729315108E+01  0.47000000000E+01 0.  1.
<mgrwt>
<rscale>  2 0.60247466E+01</rscale>
<asrwt>0</asrwt>
<pdfrwt beam="1">  1       21 0.12892816E-02 0.60247466E+01</pdfrwt>
<pdfrwt beam="2">  1       21 0.43364406E-02 0.60247466E+01</pdfrwt>
<totfact> 0.26742054E+08</totfact>
</mgrwt>
</event>
<event>
 4    1  0.3989279E+006  0.7270889E+01  0.7546771E-02  0.2274521E+00
         21   -1    0    0  501  502  0.00000000000E+00  0.00000000000E+00  0.67008977796E+02  0.67008977796E+02  0.00000000000E+00 0. -1.
         21   -1    0    0  502  503 -0.00000000000E+00 -0.00000000000E+00 -0.99344553496E+00  0.99344553496E+00  0.00000000000E+00 0.  1.
          5    1    1    2  501    0 -0.44255133609E+01  0.33452437292E+01  0.48434666704E+02  0.48977369905E+02  0.47000000000E+01 0. -1.
         -5    1    1    2    0  503  0.44255133609E+01 -0.33452437292E+01  0.17580865557E+02  0.19025053426E+02  0.47000000000E+01 0.  1.
<mgrwt>
<rscale>  2 0.72708888E+01</rscale>
<asrwt>0</asrwt>
<pdfrwt beam="1">  1       21 0.10309070E-01 0.72708888E+01</pdfrwt>
<pdfrwt beam="2">  1       21 0.15283783E-03 0.72708888E+01</pdfrwt>
<totfact> 0.16130112E+09</totfact>
</mgrwt>
</event>
<event>
 4    1  0.3989279E+006  0.5571298E+01  0.7546771E-02  0.2474800E+00
         21   -1    0    0  503  502  0.00000000000E+00  0.00000000000E+00  0.62334841888E+01  0.62334841888E+01  0.00000000000E+00 0. -1.
         21   -1    0    0  501  503 -0.00000000000E+00 -0.00000000000E+00 -0.50671652023E+01  0.50671652023E+01  0.00000000000E+00 0. -1.
          5    1    1    2  501    0  0.26546887421E+01  0.13791271926E+01 -0.16022228337E+00  0.55736016462E+01  0.47000000000E+01 0. -1.
         -5    1    1    2    0  502 -0.26546887421E+01 -0.13791271926E+01  0.13265412699E+01  0.57270477448E+01  0.47000000000E+01 0. -1.
<mgrwt>
<rscale>  2 0.55712982E+01</rscale>
<asrwt>0</asrwt>
<pdfrwt beam="1">  1       21 0.95899757E-03 0.55712982E+01</pdfrwt>
<pdfrwt beam="2">  1       21 0.77956387E-03 0.55712982E+01</pdfrwt>
<totfact> 0.44351380E+09</totfact>
</mgrwt>
</event>
<event>
 4    1  0.3989279E+006  0.5009379E+01  0.7546771E-02  0.2565493E+00
         21   -1    0    0  501  502  0.00000000000E+00  0.00000000000E+00  0.74084806395E+00  0.74084806395E+00  0.00000000000E+00 0. -1.
         21   -1    0    0  502  503 -0.00000000000E+00 -0.00000000000E+00 -0.13958116902E+03  0.13958116902E+03  0.00000000000E+00 0. -1.
          5    1    1    2  501    0  0.14737338273E+01 -0.91213295564E+00 -0.83626502201E+01  0.97482201774E+01  0.47000000000E+01 0. -1.
         -5    1    1    2    0  503 -0.14737338273E+01  0.91213295564E+00 -0.13047767073E+03  0.13057379690E+03  0.47000000000E+01 0. -1.
<mgrwt>
<rscale>  2 0.50093790E+01</rscale>
<asrwt>0</asrwt>
<pdfrwt beam="1">  1       21 0.11397669E-03 0.50093790E+01</pdfrwt>
<pdfrwt beam="2">  1       21 0.21474014E-01 0.50093790E+01</pdfrwt>
<totfact> 0.56268418E+08</totfact>
</mgrwt>
</event>
<event>
 4    1  0.3989279E+006  0.4943464E+01  0.7546771E-02  0.2577282E+00
         21   -1    0    0  501  502  0.00000000000E+00  0.00000000000E+00  0.31990123555E+01  0.31990123555E+01  0.00000000000E+00 0.  1.
         21   -1    0    0  502  503 -0.00000000000E+00 -0.00000000000E+00 -0.76432290799E+01  0.76432290799E+01  0.00000000000E+00 0.  1.
          5    1    1    2  501    0 -0.13874436530E+01 -0.65025629857E+00 -0.23468743823E+01  0.54722621018E+01  0.47000000000E+01 0.  1.
         -5    1    1    2    0  503  0.13874436530E+01  0.65025629857E+00 -0.20973423421E+01  0.53699793337E+01  0.47000000000E+01 0.  1.
<mgrwt>
<rscale>  2 0.49434637E+01</rscale>
<asrwt>0</asrwt>
<pdfrwt beam="1">  1       21 0.49215575E-03 0.49434637E+01</pdfrwt>
<pdfrwt beam="2">  1       21 0.11758814E-02 0.49434637E+01</pdfrwt>
<totfact> 0.55725652E+09</totfact>
</mgrwt>
</event>
<event>
 4    1  0.3989279E+006  0.5171217E+01  0.7546771E-02  0.2537648E+00
         21   -1    0    0  503  502  0.00000000000E+00  0.00000000000E+00  0.74735989231E+01  0.74735989231E+01  0.00000000000E+00 0.  1.
         21   -1    0    0  501  503 -0.00000000000E+00 -0.00000000000E+00 -0.11757770967E+02  0.11757770967E+02  0.00000000000E+00 0.  1.
          5    1    1    2  501    0 -0.21431189896E+01  0.24192817253E+00 -0.10162280880E+02  0.11402343659E+02  0.47000000000E+01 0.  1.
         -5    1    1    2    0  502  0.21431189896E+01 -0.24192817253E+00  0.58781088357E+01  0.78290262311E+01  0.47000000000E+01 0.  1.
<mgrwt>
<rscale>  2 0.51712173E+01</rscale>
<asrwt>0</asrwt>
<pdfrwt beam="1">  1       21 0.11497845E-02 0.51712173E+01</pdfrwt>
<pdfrwt beam="2">  1       21 0.18088878E-02 0.51712173E+01</pdfrwt>
<totfact> 0.98022016E+08</totfact>
</mgrwt>
</event>
<event>
 4    1  0.3989279E+006  0.6194399E+01  0.7546771E-02  0.2390789E+00
         21   -1    0    0  501  502  0.00000000000E+00  0.00000000000E+00  0.90831642839E+01  0.90831642839E+01  0.00000000000E+00 0. -1.
         21   -1    0    0  502  503 -0.00000000000E+00 -0.00000000000E+00 -0.14832323345E+02  0.14832323345E+02  0.00000000000E+00 0. -1.
          5    1    1    2  501    0  0.10910102006E+01 -0.38846211744E+01  0.72379683803E+01  0.95267397991E+01  0.47000000000E+01 0. -1.
         -5    1    1    2    0  503 -0.10910102006E+01  0.38846211744E+01 -0.12987127442E+02  0.14388747830E+02  0.47000000000E+01 0. -1.
<mgrwt>
<rscale>  2 0.61943995E+01</rscale>
<asrwt>0</asrwt>
<pdfrwt beam="1">  1       21 0.13974099E-02 0.61943995E+01</pdfrwt>
<pdfrwt beam="2">  1       21 0.22818959E-02 0.61943995E+01</pdfrwt>
<totfact> 0.62123556E+08</totfact>
</mgrwt>
</event>
<event>
 4    1  0.3989279E+006  0.6146714E+01  0.7546771E-02  0.2396711E+00
         21   -1    0    0  501  502  0.00000000000E+00  0.00000000000E+00  0.39611057303E+02  0.39611057303E+02  0.00000000000E+00 0. -1.
         21   -1    0    0  502  503 -0.00000000000E+00 -0.00000000000E+00 -0.11171582581E+01  0.11171582581E+01  0.00000000000E+00 0.  1.
          5    1    1    2  501    0 -0.38365587985E+01  0.98636105662E+00  0.27033459392E+02  0.27723456102E+02  0.47000000000E+01 0.  1.
         -5    1    1    2    0  503  0.38365587985E+01 -0.98636105662E+00  0.11460439653E+02  0.13004759459E+02  0.47000000000E+01 0.  1.
<mgrwt>
<rscale>  2 0.61467139E+01</rscale>
<asrwt>0</asrwt>
<pdfrwt beam="1">  1       21 0.60940077E-02 0.61467139E+01</pdfrwt>
<pdfrwt beam="2">  1       21 0.17187053E-03 0.61467139E+01</pdfrwt>
<totfact> 0.26905955E+09</totfact>
</mgrwt>
</event>
<event>
 4    1  0.3989279E+006  0.5617262E+01  0.7546771E-02  0.2468069E+00
         21   -1    0    0  501  502  0.00000000000E+00  0.00000000000E+00  0.39191872110E+02  0.39191872110E+02  0.00000000000E+00 0. -1.
         21   -1    0    0  502  503 -0.00000000000E+00 -0.00000000000E+00 -0.10433847480E+01  0.10433847480E+01  0.00000000000E+00 0. -1.
          5    1    1    2  501    0 -0.27834219558E+01 -0.13100357435E+01  0.28688080118E+02  0.29232850910E+02  0.47000000000E+01 0. -1.
         -5    1    1    2    0  503  0.27834219558E+01  0.13100357435E+01  0.94604072437E+01  0.11002405948E+02  0.47000000000E+01 0. -1.
<mgrwt>
<rscale>  2 0.56172619E+01</rscale>
<asrwt>0</asrwt>
<pdfrwt beam="1">  1       21 0.60295177E-02 0.56172619E+01</pdfrwt>
<pdfrwt beam="2">  1       21 0.16052076E-03 0.56172619E+01</pdfrwt>
<totfact> 0.27714547E+09</totfact>
</mgrwt>
</event>
<event>
 4    1  0.3989279E+006  0.4775427E+01  0.7546771E-02  0.2608604E+00
         21   -1    0    0  503  502  0.00000000000E+00  0.00000000000E+00  0.45660449557E+00  0.45660449557E+00  0.00000000000E+00 0.  1.
         21   -1    0    0  501  503 -0.00000000000E+00 -0.00000000000E+00 -0.19665727861E+03  0.19665727861E+03  0.00000000000E+00 0.  1.
          5    1    1    2  501    0  0.51215161336E+00  0.67261089174E+00 -0.18322722470E+03  0.18328944481E+03  0.47000000000E+01 0.  1.
         -5    1    1    2    0  502 -0.51215161336E+00 -0.67261089174E+00 -0.12973449412E+02  0.13824438301E+02  0.47000000000E+01 0.  1.
<mgrwt>
<rscale>  2 0.47754272E+01</rscale>
<asrwt>0</asrwt>
<pdfrwt beam="1">  1       21 0.70246855E-04 0.47754272E+01</pdfrwt>
<pdfrwt beam="2">  1       21 0.30254962E-01 0.47754272E+01</pdfrwt>
<totfact> 0.58714995E+08</totfact>
</mgrwt>
</event>
<event>
 4    1  0.3989279E+006  0.5929446E+01  0.7546771E-02  0.2424698E+00
         21   -1    0    0  503  502  0.00000000000E+00  0.00000000000E+00  0.29761963941E+02  0.29761963941E+02  0.00000000000E+00 0. -1.
         21   -1    0    0  501  503 -0.00000000000E+00 -0.00000000000E+00 -0.12400640815E+01  0.12400640815E+01  0.00000000000E+00 0. -1.
          5    1    1    2  501    0 -0.77619104551E+00 -0.35307014638E+01  0.17634831048E+02  0.18604988349E+02  0.47000000000E+01 0. -1.
         -5    1    1    2    0  502  0.77619104551E+00  0.35307014638E+01  0.10887068811E+02  0.12397039673E+02  0.47000000000E+01 0. -1.
<mgrwt>
<rscale>  2 0.59294456E+01</rscale>
<asrwt>0</asrwt>
<pdfrwt beam="1">  1       21 0.45787631E-02 0.59294456E+01</pdfrwt>
<pdfrwt beam="2">  1       21 0.19077911E-03 0.59294456E+01</pdfrwt>
<totfact> 0.34611843E+09</totfact>
</mgrwt>
</event>
<event>
 4    1  0.3989279E+006  0.4887198E+01  0.7546771E-02  0.2587562E+00
         21   -1    0    0  501  502  0.00000000000E+00  0.00000000000E+00  0.61833422377E-01  0.61833422377E-01  0.00000000000E+00 0.  1.
         21   -1    0    0  502  503 -0.00000000000E+00 -0.00000000000E+00 -0.38695988506E+03  0.38695988506E+03  0.00000000000E+00 0.  1.
          5    1    1    2  501    0  0.16481025332E+00 -0.13294898677E+01 -0.20159004270E+03  0.20164927478E+03  0.47000000000E+01 0.  1.
         -5    1    1    2    0  503 -0.16481025332E+00  0.13294898677E+01 -0.18530800894E+03  0.18537244370E+03  0.47000000000E+01 0.  1.
<mgrwt>
<rscale>  2 0.48871981E+01</rscale>
<asrwt>0</asrwt>
<pdfrwt beam="1">  1       21 0.95126723E-05 0.48871981E+01</pdfrwt>
<pdfrwt beam="2">  1       21 0.59533303E-01 0.48871981E+01</pdfrwt>
<totfact> 0.26108055E+09</totfact>
</mgrwt>
</event>
<event>
 4    1  0.3989279E+006  0.5620233E+01  0.7546771E-02  0.2467637E+00
         21   -1    0    0  503  502  0.00000000000E+00  0.00000000000E+00  0.87531724844E+02  0.87531724844E+02  0.00000000000E+00 0. -1.
         21   -1    0    0  501  503 -0.00000000000E+00 -0.00000000000E+00 -0.42886176475E+00  0.42886176475E+00  0.00000000000E+00 0.  1.
          5    1    1    2  501    0 -0.17776136720E+01  0.25173606303E+01  0.26038937695E+02  0.26638567740E+02  0.47000000000E+01 0.  1.
         -5    1    1    2    0  502  0.17776136720E+01 -0.25173606303E+01  0.61063925383E+02  0.61322018869E+02  0.47000000000E+01 0. -1.
<mgrwt>
<rscale>  2 0.56202326E+01</rscale>
<asrwt>0</asrwt>
<pdfrwt beam="1">  1       21 0.13466405E-01 0.56202326E+01</pdfrwt>
<pdfrwt beam="2">  1       21 0.65978803E-04 0.56202326E+01</pdfrwt>
<totfact> 0.26921272E+09</totfact>
</mgrwt>
</event>
<event>
 4    1  0.3989279E+006  0.4712117E+01  0.7546771E-02  0.2620906E+00
         21   -1    0    0  503  502  0.00000000000E+00  0.00000000000E+00  0.16094263763E+03  0.16094263763E+03  0.00000000000E+00 0.  1.
         21   -1    0    0  501  503 -0.00000000000E+00 -0.00000000000E+00 -0.63894605816E+00  0.63894605816E+00  0.00000000000E+00 0.  1.
          5    1    1    2  501    0 -0.30175049704E+00  0.15164687964E+00  0.86130707216E+01  0.98177918797E+01  0.47000000000E+01 0.  1.
         -5    1    1    2    0  502  0.30175049704E+00 -0.15164687964E+00  0.15169062085E+03  0.15176379181E+03  0.47000000000E+01 0.  1.
<mgrwt>
<rscale>  2 0.47121174E+01</rscale>
<asrwt>0</asrwt>
<pdfrwt beam="1">  1       21 0.24760374E-01 0.47121174E+01</pdfrwt>
<pdfrwt beam="2">  1       21 0.98299522E-04 0.47121174E+01</pdfrwt>
<totfact> 0.51630349E+08</totfact>
</mgrwt>
</event>
<event>
 4    1  0.3989279E+006  0.4897967E+01  0.7546771E-02  0.2585579E+00
         21   -1    0    0  501  502  0.00000000000E+00  0.00000000000E+00  0.51590823158E+01  0.51590823158E+01  0.00000000000E+00 0. -1.
         21   -1    0    0  502  503 -0.00000000000E+00 -0.00000000000E+00 -0.10362704288E+02  0.10362704288E+02  0.00000000000E+00 0. -1.
          5    1    1    2  501    0  0.56589767776E+00 -0.12569172355E+01  0.31604571760E+01  0.58291140562E+01  0.47000000000E+01 0. -1.
         -5    1    1    2    0  503 -0.56589767776E+00  0.12569172355E+01 -0.83640791484E+01  0.96926725478E+01  0.47000000000E+01 0. -1.
<mgrwt>
<rscale>  2 0.48979670E+01</rscale>
<asrwt>0</asrwt>
<pdfrwt beam="1">  1       21 0.79370497E-03 0.48979670E+01</pdfrwt>
<pdfrwt beam="2">  1       21 0.15942622E-02 0.48979670E+01</pdfrwt>
<totfact> 0.18630197E+09</totfact>
</mgrwt>
</event>
<event>
 4    1  0.3989279E+006  0.5079700E+01  0.7546771E-02  0.2553206E+00
         21   -1    0    0  503  502  0.00000000000E+00  0.00000000000E+00  0.52648267649E+01  0.52648267649E+01  0.00000000000E+00 0.  1.
         21   -1    0    0  501  503 -0.00000000000E+00 -0.00000000000E+00 -0.66159461597E+01  0.66159461597E+01  0.00000000000E+00 0.  1.
          5    1    1    2  501    0  0.14829989231E+00  0.19212917731E+01 -0.36999191452E+01  0.62843262659E+01  0.47000000000E+01 0.  1.
         -5    1    1    2    0  502 -0.14829989231E+00 -0.19212917731E+01  0.23487997504E+01  0.55964466586E+01  0.47000000000E+01 0.  1.
<mgrwt>
<rscale>  2 0.50797003E+01</rscale>
<asrwt>0</asrwt>
<pdfrwt beam="1">  1       21 0.80997335E-03 0.50797003E+01</pdfrwt>
<pdfrwt beam="2">  1       21 0.10178379E-02 0.50797003E+01</pdfrwt>
<totfact> 0.35269628E+09</totfact>
</mgrwt>
</event>
<event>
 4    1  0.3989279E+006  0.7678989E+01  0.7546771E-02  0.2237538E+00
         21   -1    0    0  501  502  0.00000000000E+00  0.00000000000E+00  0.46426588154E+02  0.46426588154E+02  0.00000000000E+00 0.  1.
         21   -1    0    0  502  503 -0.00000000000E+00 -0.00000000000E+00 -0.15296966364E+01  0.15296966364E+01  0.00000000000E+00 0. -1.
          5    1    1    2  501    0 -0.60661606805E+01  0.28030460021E+00  0.32326104211E+02  0.33225651078E+02  0.47000000000E+01 0.  1.
         -5    1    1    2    0  503  0.60661606805E+01 -0.28030460021E+00  0.12570787306E+02  0.14730633712E+02  0.47000000000E+01 0. -1.
<mgrwt>
<rscale>  2 0.76789893E+01</rscale>
<asrwt>0</asrwt>
<pdfrwt beam="1">  1       21 0.71425509E-02 0.76789893E+01</pdfrwt>
<pdfrwt beam="2">  1       21 0.23533798E-03 0.76789893E+01</pdfrwt>
<totfact> 0.16326525E+09</totfact>
</mgrwt>
</event>
<event>
 4    1  0.3989279E+006  0.1393369E+02  0.7546771E-02  0.1902465E+00
         21   -1    0    0  503  502  0.00000000000E+00  0.00000000000E+00  0.12687683516E+01  0.12687683516E+01  0.00000000000E+00 0.  1.
         21   -1    0    0  501  503 -0.00000000000E+00 -0.00000000000E+00 -0.21238860685E+03  0.21238860685E+03  0.00000000000E+00 0. -1.
          5    1    1    2  501    0 -0.13030490857E+02  0.15046747205E+01 -0.16204040118E+03  0.16263836986E+03  0.47000000000E+01 0. -1.
         -5    1    1    2    0  502  0.13030490857E+02 -0.15046747205E+01 -0.49079437323E+02  0.51019005341E+02  0.47000000000E+01 0.  1.
<mgrwt>
<rscale>  2 0.13933691E+02</rscale>
<asrwt>0</asrwt>
<pdfrwt beam="1">  1       21 0.19519536E-03 0.13933691E+02</pdfrwt>
<pdfrwt beam="2">  1       21 0.32675132E-01 0.13933691E+02</pdfrwt>
<totfact> 0.23866145E+08</totfact>
</mgrwt>
</event>
<event>
 4    1  0.3989279E+006  0.7366861E+01  0.7546771E-02  0.2265525E+00
         21   -1    0    0  503  502  0.00000000000E+00  0.00000000000E+00  0.32475130177E+00  0.32475130177E+00  0.00000000000E+00 0.  1.
         21   -1    0    0  501  503 -0.00000000000E+00 -0.00000000000E+00 -0.17562693162E+03  0.17562693162E+03  0.00000000000E+00 0.  1.
          5    1    1    2  501    0  0.25494134036E+01 -0.50676550417E+01 -0.68282595132E+02  0.68678842697E+02  0.47000000000E+01 0.  1.
         -5    1    1    2    0  502 -0.25494134036E+01  0.50676550417E+01 -0.10701958519E+03  0.10727284022E+03  0.47000000000E+01 0.  1.
<mgrwt>
<rscale>  2 0.73668607E+01</rscale>
<asrwt>0</asrwt>
<pdfrwt beam="1">  1       21 0.49961899E-04 0.73668607E+01</pdfrwt>
<pdfrwt beam="2">  1       21 0.27019441E-01 0.73668607E+01</pdfrwt>
<totfact> 0.15629183E+09</totfact>
</mgrwt>
</event>
<event>
 4    1  0.3989279E+006  0.5080397E+01  0.7546771E-02  0.2553086E+00
         21   -1    0    0  503  502  0.00000000000E+00  0.00000000000E+00  0.22897394756E+02  0.22897394756E+02  0.00000000000E+00 0.  1.
         21   -1    0    0  501  503 -0.00000000000E+00 -0.00000000000E+00 -0.19646657418E+01  0.19646657418E+01  0.00000000000E+00 0.  1.
          5    1    1    2  501    0  0.17832122768E+01 -0.73524823740E+00  0.23503888886E+01  0.55977463253E+01  0.47000000000E+01 0.  1.
         -5    1    1    2    0  502 -0.17832122768E+01  0.73524823740E+00  0.18582340125E+02  0.19264314172E+02  0.47000000000E+01 0.  1.
<mgrwt>
<rscale>  2 0.50803972E+01</rscale>
<asrwt>0</asrwt>
<pdfrwt beam="1">  1       21 0.35226759E-02 0.50803972E+01</pdfrwt>
<pdfrwt beam="2">  1       21 0.30225628E-03 0.50803972E+01</pdfrwt>
<totfact> 0.23494467E+09</totfact>
</mgrwt>
</event>
<event>
 4    1  0.3989279E+006  0.6718896E+01  0.7546771E-02  0.2330302E+00
         21   -1    0    0  503  502  0.00000000000E+00  0.00000000000E+00  0.95527454441E+02  0.95527454441E+02  0.00000000000E+00 0.  1.
         21   -1    0    0  501  503 -0.00000000000E+00 -0.00000000000E+00 -0.47456635388E+00  0.47456635388E+00  0.00000000000E+00 0.  1.
          5    1    1    2  501    0  0.10550958298E+01 -0.46840507414E+01  0.44414366022E+02  0.44919700218E+02  0.47000000000E+01 0.  1.
         -5    1    1    2    0  502 -0.10550958298E+01  0.46840507414E+01  0.50638522065E+02  0.51082320577E+02  0.47000000000E+01 0.  1.
<mgrwt>
<rscale>  2 0.67188956E+01</rscale>
<asrwt>0</asrwt>
<pdfrwt beam="1">  1       21 0.14696516E-01 0.67188956E+01</pdfrwt>
<pdfrwt beam="2">  1       21 0.73010284E-04 0.67188956E+01</pdfrwt>
<totfact> 0.23731172E+09</totfact>
</mgrwt>
</event>
<event>
 4    1  0.3989279E+006  0.6904815E+01  0.7546771E-02  0.2310698E+00
         21   -1    0    0  501  502  0.00000000000E+00  0.00000000000E+00  0.72580809471E+03  0.72580809471E+03  0.00000000000E+00 0. -1.
         21   -1    0    0  502  503 -0.00000000000E+00 -0.00000000000E+00 -0.87754117126E-01  0.87754117126E-01  0.00000000000E+00 0.  1.
          5    1    1    2  501    0 -0.16447178367E+01  0.47834485057E+01  0.54486337177E+03  0.54490712087E+03  0.47000000000E+01 0. -1.
         -5    1    1    2    0  503  0.16447178367E+01 -0.47834485057E+01  0.18085696882E+03  0.18098872796E+03  0.47000000000E+01 0.  1.
<mgrwt>
<rscale>  2 0.69048154E+01</rscale>
<asrwt>0</asrwt>
<pdfrwt beam="1">  1       21 0.11165798E+00 0.69048154E+01</pdfrwt>
<pdfrwt beam="2">  1       21 0.13501215E-04 0.69048154E+01</pdfrwt>
<totfact> 0.61913145E+08</totfact>
</mgrwt>
</event>
<event>
 4    1  0.3989279E+006  0.6675873E+01  0.7546771E-02  0.2334966E+00
         21   -1    0    0  503  502  0.00000000000E+00  0.00000000000E+00  0.30806684252E+02  0.30806684252E+02  0.00000000000E+00 0.  1.
         21   -1    0    0  501  503 -0.00000000000E+00 -0.00000000000E+00 -0.16358586160E+01  0.16358586160E+01  0.00000000000E+00 0.  1.
          5    1    1    2  501    0  0.32474601931E+01  0.34541694032E+01  0.90690493420E+01  0.11261213964E+02  0.47000000000E+01 0.  1.
         -5    1    1    2    0  502 -0.32474601931E+01 -0.34541694032E+01  0.20101776294E+02  0.21181328904E+02  0.47000000000E+01 0.  1.
<mgrwt>
<rscale>  2 0.66758733E+01</rscale>
<asrwt>0</asrwt>
<pdfrwt beam="1">  1       21 0.47394895E-02 0.66758733E+01</pdfrwt>
<pdfrwt beam="2">  1       21 0.25167058E-03 0.66758733E+01</pdfrwt>
<totfact> 0.24898316E+09</totfact>
</mgrwt>
</event>
<event>
 4    1  0.3989279E+006  0.6865511E+01  0.7546771E-02  0.2314769E+00
         21   -1    0    0  503  502  0.00000000000E+00  0.00000000000E+00  0.13642761651E+01  0.13642761651E+01  0.00000000000E+00 0.  1.
         21   -1    0    0  501  503 -0.00000000000E+00 -0.00000000000E+00 -0.62253646987E+02  0.62253646987E+02  0.00000000000E+00 0.  1.
          5    1    1    2  501    0 -0.47579799680E+01  0.15514097537E+01 -0.51664345051E+02  0.52118516816E+02  0.47000000000E+01 0.  1.
         -5    1    1    2    0  502  0.47579799680E+01 -0.15514097537E+01 -0.92250257712E+01  0.11499406336E+02  0.47000000000E+01 0.  1.
<mgrwt>
<rscale>  2 0.68655113E+01</rscale>
<asrwt>0</asrwt>
<pdfrwt beam="1">  1       21 0.20988862E-03 0.68655113E+01</pdfrwt>
<pdfrwt beam="2">  1       21 0.95774852E-02 0.68655113E+01</pdfrwt>
<totfact> 0.11232889E+09</totfact>
</mgrwt>
</event>
<event>
 4    1  0.3989279E+006  0.6474910E+01  0.7546771E-02  0.2357428E+00
         21   -1    0    0  503  502  0.00000000000E+00  0.00000000000E+00  0.32384552219E+02  0.32384552219E+02  0.00000000000E+00 0.  1.
         21   -1    0    0  501  503 -0.00000000000E+00 -0.00000000000E+00 -0.20714874805E+01  0.20714874805E+01  0.00000000000E+00 0. -1.
          5    1    1    2  501    0  0.16398187858E+01 -0.41407070949E+01  0.46059051669E+01  0.79459941670E+01  0.47000000000E+01 0. -1.
         -5    1    1    2    0  502 -0.16398187858E+01  0.41407070949E+01  0.25707159572E+02  0.26510045533E+02  0.47000000000E+01 0.  1.
<mgrwt>
<rscale>  2 0.64749101E+01</rscale>
<asrwt>0</asrwt>
<pdfrwt beam="1">  1       21 0.49822385E-02 0.64749101E+01</pdfrwt>
<pdfrwt beam="2">  1       21 0.31869040E-03 0.64749101E+01</pdfrwt>
<totfact> 0.16289649E+09</totfact>
</mgrwt>
</event>
<event>
 4    1  0.3989279E+006  0.7201854E+01  0.7546771E-02  0.2281113E+00
         21   -1    0    0  503  502  0.00000000000E+00  0.00000000000E+00  0.20681216912E+03  0.20681216912E+03  0.00000000000E+00 0. -1.
         21   -1    0    0  501  503 -0.00000000000E+00 -0.00000000000E+00 -0.28333189444E+00  0.28333189444E+00  0.00000000000E+00 0. -1.
          5    1    1    2  501    0 -0.38018238373E+01 -0.39144386841E+01  0.68172621156E+02  0.68551972765E+02  0.47000000000E+01 0. -1.
         -5    1    1    2    0  502  0.38018238373E+01  0.39144386841E+01  0.13835621607E+03  0.13854352825E+03  0.47000000000E+01 0. -1.
<mgrwt>
<rscale>  2 0.72018536E+01</rscale>
<asrwt>0</asrwt>
<pdfrwt beam="1">  1       21 0.31817136E-01 0.72018536E+01</pdfrwt>
<pdfrwt beam="2">  1       21 0.43589688E-04 0.72018536E+01</pdfrwt>
<totfact> 0.14003415E+09</totfact>
</mgrwt>
</event>
<event>
 4    1  0.3989279E+006  0.5069549E+01  0.7546771E-02  0.2554962E+00
         21   -1    0    0  501  502  0.00000000000E+00  0.00000000000E+00  0.95020995614E+03  0.95020995614E+03  0.00000000000E+00 0.  1.
         21   -1    0    0  502  503 -0.00000000000E+00 -0.00000000000E+00 -0.86817319045E-01  0.86817319045E-01  0.00000000000E+00 0. -1.
          5    1    1    2  501    0 -0.16947479541E+01 -0.85915972859E+00  0.86930899928E+03  0.86932378120E+03  0.47000000000E+01 0.  1.
         -5    1    1    2    0  503  0.16947479541E+01  0.85915972859E+00  0.80814139541E+02  0.80972992262E+02  0.47000000000E+01 0. -1.
<mgrwt>
<rscale>  2 0.50695489E+01</rscale>
<asrwt>0</asrwt>
<pdfrwt beam="1">  1       21 0.14617782E+00 0.50695489E+01</pdfrwt>
<pdfrwt beam="2">  1       21 0.13357272E-04 0.50695489E+01</pdfrwt>
<totfact> 0.29209098E+08</totfact>
</mgrwt>
</event>
<event>
 4    1  0.3989279E+006  0.6461342E+01  0.7546771E-02  0.2358987E+00
         21   -1    0    0  503  502  0.00000000000E+00  0.00000000000E+00  0.35787840156E+02  0.35787840156E+02  0.00000000000E+00 0. -1.
         21   -1    0    0  501  503 -0.00000000000E+00 -0.00000000000E+00 -0.13636146281E+01  0.13636146281E+01  0.00000000000E+00 0.  1.
          5    1    1    2  501    0  0.30818953924E+01 -0.31876108241E+01  0.10150811724E+02  0.12032785240E+02  0.47000000000E+01 0.  1.
         -5    1    1    2    0  502 -0.30818953924E+01  0.31876108241E+01  0.24273413804E+02  0.25118669545E+02  0.47000000000E+01 0.  1.
<mgrwt>
<rscale>  2 0.64613421E+01</rscale>
<asrwt>0</asrwt>
<pdfrwt beam="1">  1       21 0.55058209E-02 0.64613421E+01</pdfrwt>
<pdfrwt beam="2">  1       21 0.20978689E-03 0.64613421E+01</pdfrwt>
<totfact> 0.24889457E+09</totfact>
</mgrwt>
</event>
<event>
 4    1  0.3989279E+006  0.8569843E+01  0.7546771E-02  0.2166865E+00
         21   -1    0    0  501  502  0.00000000000E+00  0.00000000000E+00  0.46346077080E+02  0.46346077080E+02  0.00000000000E+00 0. -1.
         21   -1    0    0  502  503 -0.00000000000E+00 -0.00000000000E+00 -0.16542484320E+01  0.16542484320E+01  0.00000000000E+00 0. -1.
          5    1    1    2  501    0  0.65132704875E+01 -0.29882286973E+01  0.27268812003E+02  0.28583742079E+02  0.47000000000E+01 0. -1.
         -5    1    1    2    0  503 -0.65132704875E+01  0.29882286973E+01  0.17423016645E+02  0.19416583433E+02  0.47000000000E+01 0. -1.
<mgrwt>
<rscale>  2 0.85698427E+01</rscale>
<asrwt>0</asrwt>
<pdfrwt beam="1">  1       21 0.71301647E-02 0.85698427E+01</pdfrwt>
<pdfrwt beam="2">  1       21 0.25449979E-03 0.85698427E+01</pdfrwt>
<totfact> 0.15811910E+09</totfact>
</mgrwt>
</event>
<event>
 4    1  0.3989279E+006  0.1130685E+02  0.7546771E-02  0.2007448E+00
         21   -1    0    0  503  502  0.00000000000E+00  0.00000000000E+00  0.86522092444E+02  0.86522092444E+02  0.00000000000E+00 0. -1.
         21   -1    0    0  501  503 -0.00000000000E+00 -0.00000000000E+00 -0.30434426311E+01  0.30434426311E+01  0.00000000000E+00 0.  1.
          5    1    1    2  501    0  0.50375868433E+01  0.89653493041E+01  0.73861346192E+02  0.74721772133E+02  0.47000000000E+01 0. -1.
         -5    1    1    2    0  502 -0.50375868433E+01 -0.89653493041E+01  0.96173036203E+01  0.14843762942E+02  0.47000000000E+01 0.  1.
<mgrwt>
<rscale>  2 0.11306846E+02</rscale>
<asrwt>0</asrwt>
<pdfrwt beam="1">  1       21 0.13311089E-01 0.11306846E+02</pdfrwt>
<pdfrwt beam="2">  1       21 0.46822201E-03 0.11306846E+02</pdfrwt>
<totfact> 0.28993891E+08</totfact>
</mgrwt>
</event>
<event>
 4    1  0.3989279E+006  0.6376456E+01  0.7546771E-02  0.2368859E+00
         21   -1    0    0  501  502  0.00000000000E+00  0.00000000000E+00  0.74975506321E+00  0.74975506321E+00  0.00000000000E+00 0.  1.
         21   -1    0    0  502  503 -0.00000000000E+00 -0.00000000000E+00 -0.55082510319E+02  0.55082510319E+02  0.00000000000E+00 0. -1.
          5    1    1    2  501    0 -0.47504242147E+00 -0.42829342852E+01 -0.23693360384E+02  0.24536391701E+02  0.47000000000E+01 0.  1.
         -5    1    1    2    0  503  0.47504242147E+00  0.42829342852E+01 -0.30639394871E+02  0.31295873681E+02  0.47000000000E+01 0. -1.
<mgrwt>
<rscale>  2 0.63764560E+01</rscale>
<asrwt>0</asrwt>
<pdfrwt beam="1">  1       21 0.11534690E-03 0.63764560E+01</pdfrwt>
<pdfrwt beam="2">  1       21 0.84742347E-02 0.63764560E+01</pdfrwt>
<totfact> 0.28930324E+09</totfact>
</mgrwt>
</event>
<event>
 4    1  0.3989279E+006  0.5586240E+01  0.7546771E-02  0.2472602E+00
         21   -1    0    0  501  502  0.00000000000E+00  0.00000000000E+00  0.11694309591E+01  0.11694309591E+01  0.00000000000E+00 0.  1.
         21   -1    0    0  502  503 -0.00000000000E+00 -0.00000000000E+00 -0.80136640735E+02  0.80136640735E+02  0.00000000000E+00 0.  1.
          5    1    1    2  501    0 -0.47921998423E-02 -0.30192806200E+01 -0.62820375860E+01  0.84065495097E+01  0.47000000000E+01 0.  1.
         -5    1    1    2    0  503  0.47921998423E-02  0.30192806200E+01 -0.72685172190E+02  0.72899522185E+02  0.47000000000E+01 0.  1.
<mgrwt>
<rscale>  2 0.55862401E+01</rscale>
<asrwt>0</asrwt>
<pdfrwt beam="1">  1       21 0.17991243E-03 0.55862401E+01</pdfrwt>
<pdfrwt beam="2">  1       21 0.12328716E-01 0.55862401E+01</pdfrwt>
<totfact> 0.80012402E+08</totfact>
</mgrwt>
</event>
<event>
 4    1  0.3989279E+006  0.1784508E+02  0.7546771E-02  0.1791921E+00
         21   -1    0    0  503  502  0.00000000000E+00  0.00000000000E+00  0.13244652872E+03  0.13244652872E+03  0.00000000000E+00 0.  1.
         21   -1    0    0  501  503 -0.00000000000E+00 -0.00000000000E+00 -0.10399095315E+02  0.10399095315E+02  0.00000000000E+00 0. -1.
          5    1    1    2  501    0 -0.30922316780E+01 -0.16935026441E+02 -0.16004045695E+01  0.17916704833E+02  0.47000000000E+01 0. -1.
         -5    1    1    2    0  502  0.30922316780E+01  0.16935026441E+02  0.12364783797E+03  0.12492891920E+03  0.47000000000E+01 0.  1.
<mgrwt>
<rscale>  2 0.17845084E+02</rscale>
<asrwt>0</asrwt>
<pdfrwt beam="1">  1       21 0.20376388E-01 0.17845084E+02</pdfrwt>
<pdfrwt beam="2">  1       21 0.15998609E-02 0.17845084E+02</pdfrwt>
<totfact> 0.27516280E+07</totfact>
</mgrwt>
</event>
<event>
 4    1  0.3989279E+006  0.8329052E+01  0.7546771E-02  0.2184765E+00
         21   -1    0    0  501  502  0.00000000000E+00  0.00000000000E+00  0.37508169499E+00  0.37508169499E+00  0.00000000000E+00 0. -1.
         21   -1    0    0  502  503 -0.00000000000E+00 -0.00000000000E+00 -0.21682087102E+03  0.21682087102E+03  0.00000000000E+00 0. -1.
          5    1    1    2  501    0 -0.36625434341E+01  0.58196978805E+01 -0.66590020317E+02  0.67108895936E+02  0.47000000000E+01 0. -1.
         -5    1    1    2    0  503  0.36625434341E+01 -0.58196978805E+01 -0.14985576900E+03  0.15008705678E+03  0.47000000000E+01 0. -1.
<mgrwt>
<rscale>  2 0.83290520E+01</rscale>
<asrwt>0</asrwt>
<pdfrwt beam="1">  1       21 0.57704784E-04 0.83290520E+01</pdfrwt>
<pdfrwt beam="2">  1       21 0.33357110E-01 0.83290520E+01</pdfrwt>
<totfact> 0.96893569E+08</totfact>
</mgrwt>
</event>
<event>
 4    1  0.3989279E+006  0.1175858E+02  0.7546771E-02  0.1986854E+00
         21   -1    0    0  501  502  0.00000000000E+00  0.00000000000E+00  0.48441904218E+03  0.48441904218E+03  0.00000000000E+00 0. -1.
         21   -1    0    0  502  503 -0.00000000000E+00 -0.00000000000E+00 -0.28776845453E+00  0.28776845453E+00  0.00000000000E+00 0.  1.
          5    1    1    2  501    0  0.10180008529E+01  0.10730234888E+02  0.26394599265E+03  0.26420778055E+03  0.47000000000E+01 0.  1.
         -5    1    1    2    0  503 -0.10180008529E+01 -0.10730234888E+02  0.22018528107E+03  0.22049903009E+03  0.47000000000E+01 0. -1.
<mgrwt>
<rscale>  2 0.11758583E+02</rscale>
<asrwt>0</asrwt>
<pdfrwt beam="1">  1       21 0.74525354E-01 0.11758583E+02</pdfrwt>
<pdfrwt beam="2">  1       21 0.44272458E-04 0.11758583E+02</pdfrwt>
<totfact> 0.37035354E+08</totfact>
</mgrwt>
</event>
<event>
 4    1  0.3989279E+006  0.4722429E+01  0.7546771E-02  0.2618883E+00
         21   -1    0    0  501  502  0.00000000000E+00  0.00000000000E+00  0.30661739015E+02  0.30661739015E+02  0.00000000000E+00 0.  1.
         21   -1    0    0  502  503 -0.00000000000E+00 -0.00000000000E+00 -0.10427514092E+01  0.10427514092E+01  0.00000000000E+00 0.  1.
          5    1    1    2  501    0 -0.54659171136E-01  0.45645116706E+00  0.23528018343E+02  0.23997270312E+02  0.47000000000E+01 0.  1.
         -5    1    1    2    0  503  0.54659171136E-01 -0.45645116706E+00  0.60909692628E+01  0.77072201119E+01  0.47000000000E+01 0.  1.
<mgrwt>
<rscale>  2 0.47224290E+01</rscale>
<asrwt>0</asrwt>
<pdfrwt beam="1">  1       21 0.47171899E-02 0.47224290E+01</pdfrwt>
<pdfrwt beam="2">  1       21 0.16042332E-03 0.47224290E+01</pdfrwt>
<totfact> 0.33515604E+09</totfact>
</mgrwt>
</event>
<event>
 4    1  0.3989279E+006  0.4795047E+01  0.7546771E-02  0.2604849E+00
         21   -1    0    0  501  502  0.00000000000E+00  0.00000000000E+00  0.90172941841E+02  0.90172941841E+02  0.00000000000E+00 0.  1.
         21   -1    0    0  502  503 -0.00000000000E+00 -0.00000000000E+00 -0.33944360081E+00  0.33944360081E+00  0.00000000000E+00 0.  1.
          5    1    1    2  501    0  0.61247462512E+00 -0.72618796527E+00  0.67491550606E+02  0.67661672144E+02  0.47000000000E+01 0.  1.
         -5    1    1    2    0  503 -0.61247462512E+00  0.72618796527E+00  0.22341947635E+02  0.22850713298E+02  0.47000000000E+01 0.  1.
<mgrwt>
<rscale>  2 0.47950468E+01</rscale>
<asrwt>0</asrwt>
<pdfrwt beam="1">  1       21 0.13872741E-01 0.47950468E+01</pdfrwt>
<pdfrwt beam="2">  1       21 0.52222164E-04 0.47950468E+01</pdfrwt>
<totfact> 0.30162101E+09</totfact>
</mgrwt>
</event>
<event>
 4    1  0.3989279E+006  0.5773379E+01  0.7546771E-02  0.2445886E+00
         21   -1    0    0  503  502  0.00000000000E+00  0.00000000000E+00  0.24649023821E+01  0.24649023821E+01  0.00000000000E+00 0.  1.
         21   -1    0    0  501  503 -0.00000000000E+00 -0.00000000000E+00 -0.14191562831E+02  0.14191562831E+02  0.00000000000E+00 0. -1.
          5    1    1    2  501    0  0.26038347176E+01  0.21123322429E+01 -0.76714904533E+01  0.96012326561E+01  0.47000000000E+01 0. -1.
         -5    1    1    2    0  502 -0.26038347176E+01 -0.21123322429E+01 -0.40551699957E+01  0.70552325571E+01  0.47000000000E+01 0.  1.
<mgrwt>
<rscale>  2 0.57733788E+01</rscale>
<asrwt>0</asrwt>
<pdfrwt beam="1">  1       21 0.37921575E-03 0.57733788E+01</pdfrwt>
<pdfrwt beam="2">  1       21 0.21833173E-02 0.57733788E+01</pdfrwt>
<totfact> 0.38767384E+09</totfact>
</mgrwt>
</event>
<event>
 4    1  0.3989279E+006  0.5194368E+01  0.7546771E-02  0.2533787E+00
         21   -1    0    0  503  502  0.00000000000E+00  0.00000000000E+00  0.70308870849E+02  0.70308870849E+02  0.00000000000E+00 0. -1.
         21   -1    0    0  501  503 -0.00000000000E+00 -0.00000000000E+00 -0.38602639267E+00  0.38602639267E+00  0.00000000000E+00 0.  1.
          5    1    1    2  501    0  0.17284986419E+01  0.13797667558E+01  0.32250714907E+02  0.32666344697E+02  0.47000000000E+01 0. -1.
         -5    1    1    2    0  502 -0.17284986419E+01 -0.13797667558E+01  0.37672129550E+02  0.38028552545E+02  0.47000000000E+01 0.  1.
<mgrwt>
<rscale>  2 0.51943685E+01</rscale>
<asrwt>0</asrwt>
<pdfrwt beam="1">  1       21 0.10816739E-01 0.51943685E+01</pdfrwt>
<pdfrwt beam="2">  1       21 0.59388732E-04 0.51943685E+01</pdfrwt>
<totfact> 0.40331549E+09</totfact>
</mgrwt>
</event>
<event>
 4    1  0.3989279E+006  0.4963191E+01  0.7546771E-02  0.2573725E+00
         21   -1    0    0  503  502  0.00000000000E+00  0.00000000000E+00  0.31298052474E+02  0.31298052474E+02  0.00000000000E+00 0.  1.
         21   -1    0    0  501  503 -0.00000000000E+00 -0.00000000000E+00 -0.79172308495E+00  0.79172308495E+00  0.00000000000E+00 0.  1.
          5    1    1    2  501    0  0.12446224533E+01 -0.99708497001E+00  0.14021033771E+02  0.14873555442E+02  0.47000000000E+01 0. -1.
         -5    1    1    2    0  502 -0.12446224533E+01  0.99708497001E+00  0.16485295618E+02  0.17216220117E+02  0.47000000000E+01 0. -1.
<mgrwt>
<rscale>  2 0.49631909E+01</rscale>
<asrwt>0</asrwt>
<pdfrwt beam="1">  1       21 0.48150840E-02 0.49631909E+01</pdfrwt>
<pdfrwt beam="2">  1       21 0.12180358E-03 0.49631909E+01</pdfrwt>
<totfact> 0.49486523E+09</totfact>
</mgrwt>
</event>
<event>
 4    1  0.3989279E+006  0.4974841E+01  0.7546771E-02  0.2571636E+00
         21   -1    0    0  501  502  0.00000000000E+00  0.00000000000E+00  0.37389452309E+00  0.37389452309E+00  0.00000000000E+00 0.  1.
         21   -1    0    0  502  503 -0.00000000000E+00 -0.00000000000E+00 -0.69539621902E+02  0.69539621902E+02  0.00000000000E+00 0.  1.
          5    1    1    2  501    0  0.15394792460E+01  0.53763290735E+00 -0.42251976976E+02  0.42543843314E+02  0.47000000000E+01 0.  1.
         -5    1    1    2    0  503 -0.15394792460E+01 -0.53763290735E+00 -0.26913750403E+02  0.27369673111E+02  0.47000000000E+01 0.  1.
<mgrwt>
<rscale>  2 0.49748413E+01</rscale>
<asrwt>0</asrwt>
<pdfrwt beam="1">  1       21 0.57522260E-04 0.49748413E+01</pdfrwt>
<pdfrwt beam="2">  1       21 0.10698399E-01 0.49748413E+01</pdfrwt>
<totfact> 0.40981965E+09</totfact>
</mgrwt>
</event>
<event>
 4    1  0.3989279E+006  0.1557693E+02  0.7546771E-02  0.1850957E+00
         21   -1    0    0  503  502  0.00000000000E+00  0.00000000000E+00  0.10557528363E+03  0.10557528363E+03  0.00000000000E+00 0. -1.
         21   -1    0    0  501  503 -0.00000000000E+00 -0.00000000000E+00 -0.70266179369E+01  0.70266179369E+01  0.00000000000E+00 0.  1.
          5    1    1    2  501    0  0.12310418822E+02 -0.83068833915E+01  0.30897337153E+01  0.15880402315E+02  0.47000000000E+01 0.  1.
         -5    1    1    2    0  502 -0.12310418822E+02  0.83068833915E+01  0.95458931982E+02  0.96721499257E+02  0.47000000000E+01 0. -1.
<mgrwt>
<rscale>  2 0.15576929E+02</rscale>
<asrwt>0</asrwt>
<pdfrwt beam="1">  1       21 0.16242350E-01 0.15576929E+02</pdfrwt>
<pdfrwt beam="2">  1       21 0.10810182E-02 0.15576929E+02</pdfrwt>
<totfact> 0.69916094E+07</totfact>
</mgrwt>
</event>
<event>
 4    1  0.3989279E+006  0.1014334E+02  0.7546771E-02  0.2066921E+00
         21   -1    0    0  501  502  0.00000000000E+00  0.00000000000E+00  0.41243480130E+02  0.41243480130E+02  0.00000000000E+00 0.  1.
         21   -1    0    0  502  503 -0.00000000000E+00 -0.00000000000E+00 -0.57993778457E+01  0.57993778457E+01  0.00000000000E+00 0. -1.
          5    1    1    2  501    0 -0.53312544512E+00  0.89729054139E+01  0.35477927578E+02  0.36899466114E+02  0.47000000000E+01 0.  1.
         -5    1    1    2    0  503  0.53312544512E+00 -0.89729054139E+01 -0.33825293337E-01  0.10143391862E+02  0.47000000000E+01 0. -1.
<mgrwt>
<rscale>  2 0.10143335E+02</rscale>
<asrwt>0</asrwt>
<pdfrwt beam="1">  1       21 0.63451506E-02 0.10143335E+02</pdfrwt>
<pdfrwt beam="2">  1       21 0.89221200E-03 0.10143335E+02</pdfrwt>
<totfact> 0.35175223E+08</totfact>
</mgrwt>
</event>
<event>
 4    1  0.3989279E+006  0.5618493E+01  0.7546771E-02  0.2467890E+00
         21   -1    0    0  501  502  0.00000000000E+00  0.00000000000E+00  0.16700918946E+03  0.16700918946E+03  0.00000000000E+00 0. -1.
         21   -1    0    0  502  503 -0.00000000000E+00 -0.00000000000E+00 -0.33139743961E+00  0.33139743961E+00  0.00000000000E+00 0. -1.
          5    1    1    2  501    0  0.89039088761E+00  0.29469754061E+01  0.13818211554E+03  0.13829629248E+03  0.47000000000E+01 0. -1.
         -5    1    1    2    0  503 -0.89039088761E+00 -0.29469754061E+01  0.28495676487E+02  0.29044294421E+02  0.47000000000E+01 0. -1.
<mgrwt>
<rscale>  2 0.56184927E+01</rscale>
<asrwt>0</asrwt>
<pdfrwt beam="1">  1       21 0.25693654E-01 0.56184927E+01</pdfrwt>
<pdfrwt beam="2">  1       21 0.50984355E-04 0.56184927E+01</pdfrwt>
<totfact> 0.13513557E+09</totfact>
</mgrwt>
</event>
<event>
 4    1  0.3989279E+006  0.8858919E+01  0.7546771E-02  0.2146408E+00
         21   -1    0    0  501  502  0.00000000000E+00  0.00000000000E+00  0.23986294134E+01  0.23986294134E+01  0.00000000000E+00 0.  1.
         21   -1    0    0  502  503 -0.00000000000E+00 -0.00000000000E+00 -0.38228223376E+02  0.38228223376E+02  0.00000000000E+00 0. -1.
          5    1    1    2  501    0  0.70188912275E+01 -0.26693857697E+01 -0.25626339713E+02  0.27114382559E+02  0.47000000000E+01 0. -1.
         -5    1    1    2    0  503 -0.70188912275E+01  0.26693857697E+01 -0.10203254249E+02  0.13512470230E+02  0.47000000000E+01 0.  1.
<mgrwt>
<rscale>  2 0.88589195E+01</rscale>
<asrwt>0</asrwt>
<pdfrwt beam="1">  1       21 0.36901990E-03 0.88589195E+01</pdfrwt>
<pdfrwt beam="2">  1       21 0.58812653E-02 0.88589195E+01</pdfrwt>
<totfact> 0.12900695E+09</totfact>
</mgrwt>
</event>
<event>
 4    1  0.3989279E+006  0.4969834E+01  0.7546771E-02  0.2572533E+00
         21   -1    0    0  501  502  0.00000000000E+00  0.00000000000E+00  0.25977478400E+02  0.25977478400E+02  0.00000000000E+00 0. -1.
         21   -1    0    0  502  503 -0.00000000000E+00 -0.00000000000E+00 -0.10736027363E+01  0.10736027363E+01  0.00000000000E+00 0. -1.
          5    1    1    2  501    0 -0.12850675652E+01 -0.97869631502E+00  0.17026467715E+02  0.17736962761E+02  0.47000000000E+01 0. -1.
         -5    1    1    2    0  503  0.12850675652E+01  0.97869631502E+00  0.78774079485E+01  0.93141183754E+01  0.47000000000E+01 0. -1.
<mgrwt>
<rscale>  2 0.49698335E+01</rscale>
<asrwt>0</asrwt>
<pdfrwt beam="1">  1       21 0.39965347E-02 0.49698335E+01</pdfrwt>
<pdfrwt beam="2">  1       21 0.16516967E-03 0.49698335E+01</pdfrwt>
<totfact> 0.43257540E+09</totfact>
</mgrwt>
</event>
<event>
 4    1  0.3989279E+006  0.6346104E+01  0.7546771E-02  0.2372443E+00
         21   -1    0    0  503  502  0.00000000000E+00  0.00000000000E+00  0.72024083076E+00  0.72024083076E+00  0.00000000000E+00 0.  1.
         21   -1    0    0  501  503 -0.00000000000E+00 -0.00000000000E+00 -0.16652095288E+03  0.16652095288E+03  0.00000000000E+00 0.  1.
          5    1    1    2  501    0  0.32618292634E+01 -0.27465454738E+01 -0.15105037084E+03  0.15118362204E+03  0.47000000000E+01 0.  1.
         -5    1    1    2    0  502 -0.32618292634E+01  0.27465454738E+01 -0.14750341211E+02  0.16057571673E+02  0.47000000000E+01 0.  1.
<mgrwt>
<rscale>  2 0.63461045E+01</rscale>
<asrwt>0</asrwt>
<pdfrwt beam="1">  1       21 0.11080611E-03 0.63461045E+01</pdfrwt>
<pdfrwt beam="2">  1       21 0.25618647E-01 0.63461045E+01</pdfrwt>
<totfact> 0.52618244E+08</totfact>
</mgrwt>
</event>
<event>
 4    1  0.3989279E+006  0.6217710E+01  0.7546771E-02  0.2387921E+00
         21   -1    0    0  501  502  0.00000000000E+00  0.00000000000E+00  0.55617739250E+02  0.55617739250E+02  0.00000000000E+00 0. -1.
         21   -1    0    0  502  503 -0.00000000000E+00 -0.00000000000E+00 -0.10314644220E+01  0.10314644220E+01  0.00000000000E+00 0.  1.
          5    1    1    2  501    0 -0.37310054699E+01 -0.16277348458E+01  0.43468027666E+02  0.43910469728E+02  0.47000000000E+01 0. -1.
         -5    1    1    2    0  503  0.37310054699E+01  0.16277348458E+01  0.11118247162E+02  0.12738733944E+02  0.47000000000E+01 0.  1.
<mgrwt>
<rscale>  2 0.62177104E+01</rscale>
<asrwt>0</asrwt>
<pdfrwt beam="1">  1       21 0.85565729E-02 0.62177104E+01</pdfrwt>
<pdfrwt beam="2">  1       21 0.15868688E-03 0.62177104E+01</pdfrwt>
<totfact> 0.18126806E+09</totfact>
</mgrwt>
</event>
<event>
 4    1  0.3989279E+006  0.1397501E+02  0.7546771E-02  0.1901059E+00
         21   -1    0    0  503  502  0.00000000000E+00  0.00000000000E+00  0.12736756429E+03  0.12736756429E+03  0.00000000000E+00 0.  1.
         21   -1    0    0  501  503 -0.00000000000E+00 -0.00000000000E+00 -0.16992150479E+01  0.16992150479E+01  0.00000000000E+00 0. -1.
          5    1    1    2  501    0  0.58212803987E+01 -0.11803539120E+02  0.42672835262E+02  0.44902914277E+02  0.47000000000E+01 0. -1.
         -5    1    1    2    0  502 -0.58212803987E+01  0.11803539120E+02  0.82995513980E+02  0.84163865061E+02  0.47000000000E+01 0.  1.
<mgrwt>
<rscale>  2 0.13975008E+02</rscale>
<asrwt>0</asrwt>
<pdfrwt beam="1">  1       21 0.19595002E-01 0.13975008E+02</pdfrwt>
<pdfrwt beam="2">  1       21 0.26141780E-03 0.13975008E+02</pdfrwt>
<totfact> 0.38495495E+08</totfact>
</mgrwt>
</event>
<event>
 4    1  0.3989279E+006  0.6478908E+01  0.7546771E-02  0.2356970E+00
         21   -1    0    0  501  502  0.00000000000E+00  0.00000000000E+00  0.70769932382E+01  0.70769932382E+01  0.00000000000E+00 0.  1.
         21   -1    0    0  502  503 -0.00000000000E+00 -0.00000000000E+00 -0.75424144783E+01  0.75424144783E+01  0.00000000000E+00 0.  1.
          5    1    1    2  501    0  0.37146523323E+01 -0.24673072890E+01  0.31455931419E+01  0.72021526936E+01  0.47000000000E+01 0.  1.
         -5    1    1    2    0  503 -0.37146523323E+01  0.24673072890E+01 -0.36110143820E+01  0.74172550229E+01  0.47000000000E+01 0.  1.
<mgrwt>
<rscale>  2 0.64789079E+01</rscale>
<asrwt>0</asrwt>
<pdfrwt beam="1">  1       21 0.10887682E-02 0.64789079E+01</pdfrwt>
<pdfrwt beam="2">  1       21 0.11603715E-02 0.64789079E+01</pdfrwt>
<totfact> 0.24227209E+09</totfact>
</mgrwt>
</event>
<event>
 4    1  0.3989279E+006  0.5328039E+01  0.7546771E-02  0.2512055E+00
         21   -1    0    0  501  502  0.00000000000E+00  0.00000000000E+00  0.19357001316E+02  0.19357001316E+02  0.00000000000E+00 0. -1.
         21   -1    0    0  502  503 -0.00000000000E+00 -0.00000000000E+00 -0.19136962116E+01  0.19136962116E+01  0.00000000000E+00 0.  1.
          5    1    1    2  501    0 -0.25054210949E+01  0.14445210806E+00  0.35807397053E+01  0.64194780248E+01  0.47000000000E+01 0.  1.
         -5    1    1    2    0  503  0.25054210949E+01 -0.14445210806E+00  0.13862565399E+02  0.14851219503E+02  0.47000000000E+01 0. -1.
<mgrwt>
<rscale>  2 0.53280392E+01</rscale>
<asrwt>0</asrwt>
<pdfrwt beam="1">  1       21 0.29780001E-02 0.53280392E+01</pdfrwt>
<pdfrwt beam="2">  1       21 0.29441482E-03 0.53280392E+01</pdfrwt>
<totfact> 0.32528565E+09</totfact>
</mgrwt>
</event>
<event>
 4    1  0.3989279E+006  0.7357427E+01  0.7546771E-02  0.2266400E+00
         21   -1    0    0  501  502  0.00000000000E+00  0.00000000000E+00  0.58129942855E+01  0.58129942855E+01  0.00000000000E+00 0. -1.
         21   -1    0    0  502  503 -0.00000000000E+00 -0.00000000000E+00 -0.11596289308E+02  0.11596289308E+02  0.00000000000E+00 0.  1.
          5    1    1    2  501    0  0.44051448547E+01 -0.35547756179E+01  0.97156401387E+00  0.74212982367E+01  0.47000000000E+01 0.  1.
         -5    1    1    2    0  503 -0.44051448547E+01  0.35547756179E+01 -0.67548590363E+01  0.99879853566E+01  0.47000000000E+01 0. -1.
<mgrwt>
<rscale>  2 0.73574269E+01</rscale>
<asrwt>0</asrwt>
<pdfrwt beam="1">  1       21 0.89430682E-03 0.73574269E+01</pdfrwt>
<pdfrwt beam="2">  1       21 0.17840445E-02 0.73574269E+01</pdfrwt>
<totfact> 0.19094772E+09</totfact>
</mgrwt>
</event>
<event>
 4    1  0.3989279E+006  0.6837371E+01  0.7546771E-02  0.2317708E+00
         21   -1    0    0  503  502  0.00000000000E+00  0.00000000000E+00  0.48081805983E+02  0.48081805983E+02  0.00000000000E+00 0.  1.
         21   -1    0    0  501  503 -0.00000000000E+00 -0.00000000000E+00 -0.32804929865E+01  0.32804929865E+01  0.00000000000E+00 0. -1.
          5    1    1    2  501    0  0.48506189734E+01  0.10635481514E+01  0.85887833629E+00  0.68911037644E+01  0.47000000000E+01 0. -1.
         -5    1    1    2    0  502 -0.48506189734E+01 -0.10635481514E+01  0.43942434660E+02  0.44471195205E+02  0.47000000000E+01 0.  1.
<mgrwt>
<rscale>  2 0.68373708E+01</rscale>
<asrwt>0</asrwt>
<pdfrwt beam="1">  1       21 0.73972004E-02 0.68373708E+01</pdfrwt>
<pdfrwt beam="2">  1       21 0.50469126E-03 0.68373708E+01</pdfrwt>
<totfact> 0.49331719E+08</totfact>
</mgrwt>
</event>
<event>
 4    1  0.3989279E+006  0.5304341E+01  0.7546771E-02  0.2515840E+00
         21   -1    0    0  503  502  0.00000000000E+00  0.00000000000E+00  0.20982924503E-01  0.20982924503E-01  0.00000000000E+00 0.  1.
         21   -1    0    0  501  503 -0.00000000000E+00 -0.00000000000E+00 -0.15230361376E+04  0.15230361376E+04  0.00000000000E+00 0. -1.
          5    1    1    2  501    0  0.13575652443E+01  0.20501344333E+01 -0.10248539767E+04  0.10248677034E+04  0.47000000000E+01 0.  1.
         -5    1    1    2    0  502 -0.13575652443E+01 -0.20501344333E+01 -0.49816117804E+03  0.49818941713E+03  0.47000000000E+01 0.  1.
<mgrwt>
<rscale>  2 0.53043411E+01</rscale>
<asrwt>0</asrwt>
<pdfrwt beam="1">  1       21 0.32285120E-05 0.53043411E+01</pdfrwt>
<pdfrwt beam="2">  1       21 0.23428641E+00 0.53043411E+01</pdfrwt>
<totfact> 0.72498287E+08</totfact>
</mgrwt>
</event>
<event>
 4    1  0.3989279E+006  0.4731621E+01  0.7546771E-02  0.2617086E+00
         21   -1    0    0  503  502  0.00000000000E+00  0.00000000000E+00  0.11910474932E+02  0.11910474932E+02  0.00000000000E+00 0. -1.
         21   -1    0    0  501  503 -0.00000000000E+00 -0.00000000000E+00 -0.93015999923E+01  0.93015999923E+01  0.00000000000E+00 0. -1.
          5    1    1    2  501    0  0.51946135159E+00 -0.16852049171E+00 -0.81695233134E+01  0.94408342015E+01  0.47000000000E+01 0. -1.
         -5    1    1    2    0  502 -0.51946135159E+00  0.16852049171E+00  0.10778398253E+02  0.11771240723E+02  0.47000000000E+01 0. -1.
<mgrwt>
<rscale>  2 0.47316212E+01</rscale>
<asrwt>0</asrwt>
<pdfrwt beam="1">  1       21 0.18323808E-02 0.47316212E+01</pdfrwt>
<pdfrwt beam="2">  1       21 0.14310154E-02 0.47316212E+01</pdfrwt>
<totfact> 0.65127693E+08</totfact>
</mgrwt>
</event>
<event>
 4    1  0.3989279E+006  0.6452475E+01  0.7546771E-02  0.2360008E+00
         21   -1    0    0  501  502  0.00000000000E+00  0.00000000000E+00  0.26413119313E+01  0.26413119313E+01  0.00000000000E+00 0.  1.
         21   -1    0    0  502  503 -0.00000000000E+00 -0.00000000000E+00 -0.22773650341E+02  0.22773650341E+02  0.00000000000E+00 0. -1.
          5    1    1    2  501    0 -0.58397619060E+00  0.43821689688E+01 -0.30155225420E+01  0.71223457697E+01  0.47000000000E+01 0.  1.
         -5    1    1    2    0  503  0.58397619060E+00 -0.43821689688E+01 -0.17116815868E+02  0.18292616503E+02  0.47000000000E+01 0. -1.
<mgrwt>
<rscale>  2 0.64524750E+01</rscale>
<asrwt>0</asrwt>
<pdfrwt beam="1">  1       21 0.40635568E-03 0.64524750E+01</pdfrwt>
<pdfrwt beam="2">  1       21 0.35036385E-02 0.64524750E+01</pdfrwt>
<totfact> 0.19530923E+09</totfact>
</mgrwt>
</event>
<event>
 4    1  0.3989279E+006  0.5413307E+01  0.7546771E-02  0.2498672E+00
         21   -1    0    0  503  502  0.00000000000E+00  0.00000000000E+00  0.20044862091E+01  0.20044862091E+01  0.00000000000E+00 0. -1.
         21   -1    0    0  501  503 -0.00000000000E+00 -0.00000000000E+00 -0.16151305768E+02  0.16151305768E+02  0.00000000000E+00 0. -1.
          5    1    1    2  501    0 -0.12715738908E+00 -0.26828576935E+01 -0.98693774623E+01  0.11256487281E+02  0.47000000000E+01 0. -1.
         -5    1    1    2    0  502  0.12715738908E+00  0.26828576935E+01 -0.42774420966E+01  0.68993046965E+01  0.47000000000E+01 0. -1.
<mgrwt>
<rscale>  2 0.54133072E+01</rscale>
<asrwt>0</asrwt>
<pdfrwt beam="1">  1       21 0.30838248E-03 0.54133072E+01</pdfrwt>
<pdfrwt beam="2">  1       21 0.24848163E-02 0.54133072E+01</pdfrwt>
<totfact> 0.40247009E+09</totfact>
</mgrwt>
</event>
<event>
 4    1  0.3989279E+006  0.6580962E+01  0.7546771E-02  0.2345433E+00
         21   -1    0    0  501  502  0.00000000000E+00  0.00000000000E+00  0.38343472930E+02  0.38343472930E+02  0.00000000000E+00 0. -1.
         21   -1    0    0  502  503 -0.00000000000E+00 -0.00000000000E+00 -0.12190219376E+01  0.12190219376E+01  0.00000000000E+00 0.  1.
          5    1    1    2  501    0  0.46035932790E+01  0.16123181910E+00  0.23922727135E+02  0.24811407464E+02  0.47000000000E+01 0. -1.
         -5    1    1    2    0  503 -0.46035932790E+01 -0.16123181910E+00  0.13201723858E+02  0.14751087404E+02  0.47000000000E+01 0.  1.
<mgrwt>
<rscale>  2 0.65809625E+01</rscale>
<asrwt>0</asrwt>
<pdfrwt beam="1">  1       21 0.58989949E-02 0.65809625E+01</pdfrwt>
<pdfrwt beam="2">  1       21 0.18754187E-03 0.65809625E+01</pdfrwt>
<totfact> 0.26556137E+09</totfact>
</mgrwt>
</event>
<event>
 4    1  0.3989279E+006  0.4805310E+01  0.7546771E-02  0.2602895E+00
         21   -1    0    0  501  502  0.00000000000E+00  0.00000000000E+00  0.12133132297E+02  0.12133132297E+02  0.00000000000E+00 0.  1.
         21   -1    0    0  502  503 -0.00000000000E+00 -0.00000000000E+00 -0.20421143894E+01  0.20421143894E+01  0.00000000000E+00 0.  1.
          5    1    1    2  501    0  0.98583679686E+00  0.17067030010E+00  0.68944966397E+01  0.84038733009E+01  0.47000000000E+01 0. -1.
         -5    1    1    2    0  503 -0.98583679686E+00 -0.17067030010E+00  0.31965212682E+01  0.57713733859E+01  0.47000000000E+01 0. -1.
<mgrwt>
<rscale>  2 0.48053098E+01</rscale>
<asrwt>0</asrwt>
<pdfrwt beam="1">  1       21 0.18666357E-02 0.48053098E+01</pdfrwt>
<pdfrwt beam="2">  1       21 0.31417145E-03 0.48053098E+01</pdfrwt>
<totfact> 0.52072839E+09</totfact>
</mgrwt>
</event>
<event>
 4    1  0.3989279E+006  0.5473832E+01  0.7546771E-02  0.2489389E+00
         21   -1    0    0  501  502  0.00000000000E+00  0.00000000000E+00  0.29634169042E+03  0.29634169042E+03  0.00000000000E+00 0.  1.
         21   -1    0    0  502  503 -0.00000000000E+00 -0.00000000000E+00 -0.72115752093E+00  0.72115752093E+00  0.00000000000E+00 0. -1.
          5    1    1    2  501    0 -0.22184832870E+01 -0.17178953821E+01  0.28553631567E+03  0.28558877849E+03  0.47000000000E+01 0.  1.
         -5    1    1    2    0  503  0.22184832870E+01  0.17178953821E+01  0.10084217223E+02  0.11474069445E+02  0.47000000000E+01 0. -1.
<mgrwt>
<rscale>  2 0.54738316E+01</rscale>
<asrwt>0</asrwt>
<pdfrwt beam="1">  1       21 0.45590932E-01 0.54738316E+01</pdfrwt>
<pdfrwt beam="2">  1       21 0.11094755E-03 0.54738316E+01</pdfrwt>
<totfact> 0.17695385E+08</totfact>
</mgrwt>
</event>
<event>
 4    1  0.3989279E+006  0.4734564E+01  0.7546771E-02  0.2616512E+00
         21   -1    0    0  501  502  0.00000000000E+00  0.00000000000E+00  0.25437586743E+02  0.25437586743E+02  0.00000000000E+00 0.  1.
         21   -1    0    0  502  503 -0.00000000000E+00 -0.00000000000E+00 -0.11921554474E+01  0.11921554474E+01  0.00000000000E+00 0.  1.
          5    1    1    2  501    0 -0.47577901124E+00 -0.31579790880E+00  0.18922671375E+02  0.19505988464E+02  0.47000000000E+01 0.  1.
         -5    1    1    2    0  503  0.47577901124E+00  0.31579790880E+00  0.53227599211E+01  0.71237537271E+01  0.47000000000E+01 0.  1.
<mgrwt>
<rscale>  2 0.47345638E+01</rscale>
<asrwt>0</asrwt>
<pdfrwt beam="1">  1       21 0.39134745E-02 0.47345638E+01</pdfrwt>
<pdfrwt beam="2">  1       21 0.18340855E-03 0.47345638E+01</pdfrwt>
<totfact> 0.36821712E+09</totfact>
</mgrwt>
</event>
<event>
 4    1  0.3989279E+006  0.8515241E+01  0.7546771E-02  0.2170853E+00
         21   -1    0    0  501  502  0.00000000000E+00  0.00000000000E+00  0.12092657726E+02  0.12092657726E+02  0.00000000000E+00 0. -1.
         21   -1    0    0  502  503 -0.00000000000E+00 -0.00000000000E+00 -0.84270840090E+01  0.84270840090E+01  0.00000000000E+00 0.  1.
          5    1    1    2  501    0 -0.58172106576E+01  0.40717789070E+01  0.73432779888E+01  0.11244245414E+02  0.47000000000E+01 0. -1.
         -5    1    1    2    0  503  0.58172106576E+01 -0.40717789070E+01 -0.36777042715E+01  0.92754963216E+01  0.47000000000E+01 0.  1.
<mgrwt>
<rscale>  2 0.85152406E+01</rscale>
<asrwt>0</asrwt>
<pdfrwt beam="1">  1       21 0.18604089E-02 0.85152406E+01</pdfrwt>
<pdfrwt beam="2">  1       21 0.12964745E-02 0.85152406E+01</pdfrwt>
<totfact> 0.11674765E+09</totfact>
</mgrwt>
</event>
<event>
 4    1  0.3989279E+006  0.6336702E+01  0.7546771E-02  0.2373558E+00
         21   -1    0    0  503  502  0.00000000000E+00  0.00000000000E+00  0.34493430157E+02  0.34493430157E+02  0.00000000000E+00 0.  1.
         21   -1    0    0  501  503 -0.00000000000E+00 -0.00000000000E+00 -0.23405597860E+01  0.23405597860E+01  0.00000000000E+00 0.  1.
          5    1    1    2  501    0  0.38046976366E+01 -0.18942187741E+01  0.30193116267E+01  0.70192614689E+01  0.47000000000E+01 0.  1.
         -5    1    1    2    0  502 -0.38046976366E+01  0.18942187741E+01  0.29133558744E+02  0.29814728474E+02  0.47000000000E+01 0.  1.
<mgrwt>
<rscale>  2 0.63367017E+01</rscale>
<asrwt>0</asrwt>
<pdfrwt beam="1">  1       21 0.53066812E-02 0.63367017E+01</pdfrwt>
<pdfrwt beam="2">  1       21 0.36008615E-03 0.63367017E+01</pdfrwt>
<totfact> 0.12309323E+09</totfact>
</mgrwt>
</event>
<event>
 4    1  0.3989279E+006  0.5956053E+01  0.7546771E-02  0.2421179E+00
         21   -1    0    0  501  502  0.00000000000E+00  0.00000000000E+00  0.25161368466E+02  0.25161368466E+02  0.00000000000E+00 0. -1.
         21   -1    0    0  502  503 -0.00000000000E+00 -0.00000000000E+00 -0.20593609433E+01  0.20593609433E+01  0.00000000000E+00 0. -1.
          5    1    1    2  501    0 -0.21567892077E+01  0.29551350453E+01  0.19194394004E+02  0.20097246677E+02  0.47000000000E+01 0. -1.
         -5    1    1    2    0  503  0.21567892077E+01 -0.29551350453E+01  0.39076135185E+01  0.71234827319E+01  0.47000000000E+01 0. -1.
<mgrwt>
<rscale>  2 0.59560526E+01</rscale>
<asrwt>0</asrwt>
<pdfrwt beam="1">  1       21 0.38709795E-02 0.59560526E+01</pdfrwt>
<pdfrwt beam="2">  1       21 0.31682478E-03 0.59560526E+01</pdfrwt>
<totfact> 0.22241715E+09</totfact>
</mgrwt>
</event>
<event>
 4    1  0.3989279E+006  0.6518800E+01  0.7546771E-02  0.2352425E+00
         21   -1    0    0  501  502  0.00000000000E+00  0.00000000000E+00  0.45755188336E+02  0.45755188336E+02  0.00000000000E+00 0.  1.
         21   -1    0    0  502  503 -0.00000000000E+00 -0.00000000000E+00 -0.95750518506E+00  0.95750518506E+00  0.00000000000E+00 0.  1.
          5    1    1    2  501    0  0.13314035424E+01 -0.43164931647E+01  0.26446981877E+02  0.27238531514E+02  0.47000000000E+01 0.  1.
         -5    1    1    2    0  503 -0.13314035424E+01  0.43164931647E+01  0.18350701274E+02  0.19474162007E+02  0.47000000000E+01 0.  1.
<mgrwt>
<rscale>  2 0.65187996E+01</rscale>
<asrwt>0</asrwt>
<pdfrwt beam="1">  1       21 0.70392581E-02 0.65187996E+01</pdfrwt>
<pdfrwt beam="2">  1       21 0.14730853E-03 0.65187996E+01</pdfrwt>
<totfact> 0.28048138E+09</totfact>
</mgrwt>
</event>
<event>
 4    1  0.3989279E+006  0.4864740E+01  0.7546771E-02  0.2591723E+00
         21   -1    0    0  503  502  0.00000000000E+00  0.00000000000E+00  0.43902750441E+03  0.43902750441E+03  0.00000000000E+00 0.  1.
         21   -1    0    0  501  503 -0.00000000000E+00 -0.00000000000E+00 -0.56985915639E-01  0.56985915639E-01  0.00000000000E+00 0.  1.
          5    1    1    2  501    0 -0.12222160409E+01  0.28614934632E+00  0.27053431864E+03  0.27057805391E+03  0.47000000000E+01 0.  1.
         -5    1    1    2    0  502  0.12222160409E+01 -0.28614934632E+00  0.16843619985E+03  0.16850643642E+03  0.47000000000E+01 0.  1.
<mgrwt>
<rscale>  2 0.48647398E+01</rscale>
<asrwt>0</asrwt>
<pdfrwt beam="1">  1       21 0.67539984E-01 0.48647398E+01</pdfrwt>
<pdfrwt beam="2">  1       21 0.87674155E-05 0.48647398E+01</pdfrwt>
<totfact> 0.22971667E+09</totfact>
</mgrwt>
</event>
<event>
 4    1  0.3989279E+006  0.5319507E+01  0.7546771E-02  0.2513414E+00
         21   -1    0    0  501  502  0.00000000000E+00  0.00000000000E+00  0.28274022714E+03  0.28274022714E+03  0.00000000000E+00 0. -1.
         21   -1    0    0  502  503 -0.00000000000E+00 -0.00000000000E+00 -0.19234344678E+00  0.19234344678E+00  0.00000000000E+00 0. -1.
          5    1    1    2  501    0  0.51868119067E+00  0.24368276583E+01  0.23925108772E+03  0.23931021737E+03  0.47000000000E+01 0. -1.
         -5    1    1    2    0  503 -0.51868119067E+00 -0.24368276583E+01  0.43296795969E+02  0.43622353220E+02  0.47000000000E+01 0. -1.
<mgrwt>
<rscale>  2 0.53195074E+01</rscale>
<asrwt>0</asrwt>
<pdfrwt beam="1">  1       21 0.43498164E-01 0.53195074E+01</pdfrwt>
<pdfrwt beam="2">  1       21 0.29591526E-04 0.53195074E+01</pdfrwt>
<totfact> 0.10919907E+09</totfact>
</mgrwt>
</event>
<event>
 4    1  0.3989279E+006  0.5760820E+01  0.7546771E-02  0.2447633E+00
         21   -1    0    0  501  502  0.00000000000E+00  0.00000000000E+00  0.27840924470E+02  0.27840924470E+02  0.00000000000E+00 0. -1.
         21   -1    0    0  502  503 -0.00000000000E+00 -0.00000000000E+00 -0.25083911333E+01  0.25083911333E+01  0.00000000000E+00 0.  1.
          5    1    1    2  501    0  0.96990208929E-01  0.33298113488E+01  0.23659103699E+02  0.24350364239E+02  0.47000000000E+01 0. -1.
         -5    1    1    2    0  503 -0.96990208929E-01 -0.33298113488E+01  0.16734296375E+01  0.59989513643E+01  0.47000000000E+01 0.  1.
<mgrwt>
<rscale>  2 0.57608203E+01</rscale>
<asrwt>0</asrwt>
<pdfrwt beam="1">  1       21 0.42832189E-02 0.57608203E+01</pdfrwt>
<pdfrwt beam="2">  1       21 0.38590635E-03 0.57608203E+01</pdfrwt>
<totfact> 0.14203118E+09</totfact>
</mgrwt>
</event>
<event>
 4    1  0.3989279E+006  0.8848216E+01  0.7546771E-02  0.2147147E+00
         21   -1    0    0  503  502  0.00000000000E+00  0.00000000000E+00  0.45567836674E+03  0.45567836674E+03  0.00000000000E+00 0.  1.
         21   -1    0    0  501  503 -0.00000000000E+00 -0.00000000000E+00 -0.18191816233E+00  0.18191816233E+00  0.00000000000E+00 0.  1.
          5    1    1    2  501    0  0.49775856011E+01 -0.56057625913E+01  0.17402518341E+03  0.17424997960E+03  0.47000000000E+01 0.  1.
         -5    1    1    2    0  502 -0.49775856011E+01  0.56057625913E+01  0.28147126517E+03  0.28161030529E+03  0.47000000000E+01 0.  1.
<mgrwt>
<rscale>  2 0.88482164E+01</rscale>
<asrwt>0</asrwt>
<pdfrwt beam="1">  1       21 0.70103450E-01 0.88482164E+01</pdfrwt>
<pdfrwt beam="2">  1       21 0.27987774E-04 0.88482164E+01</pdfrwt>
<totfact> 0.68230816E+08</totfact>
</mgrwt>
</event>
<event>
 4    1  0.3989279E+006  0.4808156E+01  0.7546771E-02  0.2602355E+00
         21   -1    0    0  503  502  0.00000000000E+00  0.00000000000E+00  0.46483084271E+00  0.46483084271E+00  0.00000000000E+00 0. -1.
         21   -1    0    0  501  503 -0.00000000000E+00 -0.00000000000E+00 -0.51814125196E+02  0.51814125196E+02  0.00000000000E+00 0. -1.
          5    1    1    2  501    0  0.73470892510E+00  0.69897505646E+00 -0.30910806327E+02  0.31282524053E+02  0.47000000000E+01 0. -1.
         -5    1    1    2    0  502 -0.73470892510E+00 -0.69897505646E+00 -0.20438488026E+02  0.20996431986E+02  0.47000000000E+01 0. -1.
<mgrwt>
<rscale>  2 0.48081559E+01</rscale>
<asrwt>0</asrwt>
<pdfrwt beam="1">  1       21 0.71512464E-04 0.48081559E+01</pdfrwt>
<pdfrwt beam="2">  1       21 0.79714009E-02 0.48081559E+01</pdfrwt>
<totfact> 0.46157694E+09</totfact>
</mgrwt>
</event>
<event>
 4    1  0.3989279E+006  0.5583977E+01  0.7546771E-02  0.2472934E+00
         21   -1    0    0  503  502  0.00000000000E+00  0.00000000000E+00  0.10851071367E+02  0.10851071367E+02  0.00000000000E+00 0. -1.
         21   -1    0    0  501  503 -0.00000000000E+00 -0.00000000000E+00 -0.29293806944E+01  0.29293806944E+01  0.00000000000E+00 0. -1.
          5    1    1    2  501    0 -0.29486450158E+01  0.62952113662E+00  0.49122968363E+01  0.74371677740E+01  0.47000000000E+01 0.  1.
         -5    1    1    2    0  502  0.29486450158E+01 -0.62952113662E+00  0.30093938366E+01  0.63432842877E+01  0.47000000000E+01 0.  1.
<mgrwt>
<rscale>  2 0.55839775E+01</rscale>
<asrwt>0</asrwt>
<pdfrwt beam="1">  1       21 0.16693956E-02 0.55839775E+01</pdfrwt>
<pdfrwt beam="2">  1       21 0.45067396E-03 0.55839775E+01</pdfrwt>
<totfact> 0.43467021E+09</totfact>
</mgrwt>
</event>
<event>
 4    1  0.3989279E+006  0.5379482E+01  0.7546771E-02  0.2503938E+00
         21   -1    0    0  501  502  0.00000000000E+00  0.00000000000E+00  0.13134791627E+03  0.13134791627E+03  0.00000000000E+00 0. -1.
         21   -1    0    0  502  503 -0.00000000000E+00 -0.00000000000E+00 -0.30244544947E+00  0.30244544947E+00  0.00000000000E+00 0. -1.
          5    1    1    2  501    0  0.16980400983E+01  0.19913529184E+01  0.99823381949E+02  0.99968227005E+02  0.47000000000E+01 0. -1.
         -5    1    1    2    0  503 -0.16980400983E+01 -0.19913529184E+01  0.31222088876E+02  0.31682134720E+02  0.47000000000E+01 0. -1.
<mgrwt>
<rscale>  2 0.53794820E+01</rscale>
<asrwt>0</asrwt>
<pdfrwt beam="1">  1       21 0.20207326E-01 0.53794820E+01</pdfrwt>
<pdfrwt beam="2">  1       21 0.46530174E-04 0.53794820E+01</pdfrwt>
<totfact> 0.21726476E+09</totfact>
</mgrwt>
</event>
<event>
 4    1  0.3989279E+006  0.7417735E+01  0.7546771E-02  0.2260833E+00
         21   -1    0    0  503  502  0.00000000000E+00  0.00000000000E+00  0.16628055885E+00  0.16628055885E+00  0.00000000000E+00 0. -1.
         21   -1    0    0  501  503 -0.00000000000E+00 -0.00000000000E+00 -0.38890841407E+03  0.38890841407E+03  0.00000000000E+00 0.  1.
          5    1    1    2  501    0 -0.20519414301E+01 -0.53593215901E+01 -0.26950088358E+03  0.26960294702E+03  0.47000000000E+01 0.  1.
         -5    1    1    2    0  502  0.20519414301E+01  0.53593215901E+01 -0.11924124993E+03  0.11947174761E+03  0.47000000000E+01 0. -1.
<mgrwt>
<rscale>  2 0.74177349E+01</rscale>
<asrwt>0</asrwt>
<pdfrwt beam="1">  1       21 0.25581858E-04 0.74177349E+01</pdfrwt>
<pdfrwt beam="2">  1       21 0.59831518E-01 0.74177349E+01</pdfrwt>
<totfact> 0.94258326E+08</totfact>
</mgrwt>
</event>
<event>
 4    1  0.3989279E+006  0.5992737E+01  0.7546771E-02  0.2416370E+00
         21   -1    0    0  503  502  0.00000000000E+00  0.00000000000E+00  0.11616183249E+02  0.11616183249E+02  0.00000000000E+00 0. -1.
         21   -1    0    0  501  503 -0.00000000000E+00 -0.00000000000E+00 -0.44064568304E+01  0.44064568304E+01  0.00000000000E+00 0.  1.
          5    1    1    2  501    0 -0.37113367303E+01 -0.22107485372E+00 -0.77130752378E+00  0.60421692887E+01  0.47000000000E+01 0.  1.
         -5    1    1    2    0  502  0.37113367303E+01  0.22107485372E+00  0.79810339428E+01  0.99804707911E+01  0.47000000000E+01 0. -1.
<mgrwt>
<rscale>  2 0.59927368E+01</rscale>
<asrwt>0</asrwt>
<pdfrwt beam="1">  1       21 0.17871051E-02 0.59927368E+01</pdfrwt>
<pdfrwt beam="2">  1       21 0.67791644E-03 0.59927368E+01</pdfrwt>
<totfact> 0.23851900E+09</totfact>
</mgrwt>
</event>
<event>
 4    1  0.3989279E+006  0.6428995E+01  0.7546771E-02  0.2362723E+00
         21   -1    0    0  503  502  0.00000000000E+00  0.00000000000E+00  0.25785164267E+00  0.25785164267E+00  0.00000000000E+00 0.  1.
         21   -1    0    0  501  503 -0.00000000000E+00 -0.00000000000E+00 -0.22392716739E+03  0.22392716739E+03  0.00000000000E+00 0.  1.
          5    1    1    2  501    0 -0.89224546075E+00  0.42948658461E+01 -0.17158855680E+03  0.17170895375E+03  0.47000000000E+01 0.  1.
         -5    1    1    2    0  502  0.89224546075E+00 -0.42948658461E+01 -0.52080758947E+02  0.52476065278E+02  0.47000000000E+01 0.  1.
<mgrwt>
<rscale>  2 0.64289948E+01</rscale>
<asrwt>0</asrwt>
<pdfrwt beam="1">  1       21 0.39669408E-04 0.64289948E+01</pdfrwt>
<pdfrwt beam="2">  1       21 0.34450399E-01 0.64289948E+01</pdfrwt>
<totfact> 0.12800384E+09</totfact>
</mgrwt>
</event>
<event>
 4    1  0.3989279E+006  0.6579236E+01  0.7546771E-02  0.2345626E+00
         21   -1    0    0  503  502  0.00000000000E+00  0.00000000000E+00  0.15102424340E+02  0.15102424340E+02  0.00000000000E+00 0. -1.
         21   -1    0    0  501  503 -0.00000000000E+00 -0.00000000000E+00 -0.28900629529E+01  0.28900629529E+01  0.00000000000E+00 0.  1.
          5    1    1    2  501    0 -0.32135327360E-01 -0.46038374214E+01  0.52884687566E+01  0.84412234582E+01  0.47000000000E+01 0. -1.
         -5    1    1    2    0  502  0.32135327360E-01  0.46038374214E+01  0.69238926303E+01  0.95512638346E+01  0.47000000000E+01 0. -1.
<mgrwt>
<rscale>  2 0.65792364E+01</rscale>
<asrwt>0</asrwt>
<pdfrwt beam="1">  1       21 0.23234499E-02 0.65792364E+01</pdfrwt>
<pdfrwt beam="2">  1       21 0.44462508E-03 0.65792364E+01</pdfrwt>
<totfact> 0.31900748E+09</totfact>
</mgrwt>
</event>
<event>
 4    1  0.3989279E+006  0.6355153E+01  0.7546771E-02  0.2371371E+00
         21   -1    0    0  503  502  0.00000000000E+00  0.00000000000E+00  0.61494668854E+00  0.61494668854E+00  0.00000000000E+00 0.  1.
         21   -1    0    0  501  503 -0.00000000000E+00 -0.00000000000E+00 -0.66433887156E+02  0.66433887156E+02  0.00000000000E+00 0.  1.
          5    1    1    2  501    0 -0.37306130531E+01  0.20929622420E+01 -0.29331554067E+02  0.30012131358E+02  0.47000000000E+01 0.  1.
         -5    1    1    2    0  502  0.37306130531E+01 -0.20929622420E+01 -0.36487386401E+02  0.37036702487E+02  0.47000000000E+01 0.  1.
<mgrwt>
<rscale>  2 0.63551526E+01</rscale>
<asrwt>0</asrwt>
<pdfrwt beam="1">  1       21 0.94607242E-04 0.63551526E+01</pdfrwt>
<pdfrwt beam="2">  1       21 0.10220592E-01 0.63551526E+01</pdfrwt>
<totfact> 0.28272574E+09</totfact>
</mgrwt>
</event>
<event>
 4    1  0.3989279E+006  0.4705331E+01  0.7546771E-02  0.2622242E+00
         21   -1    0    0  503  502  0.00000000000E+00  0.00000000000E+00  0.10753929555E+02  0.10753929555E+02  0.00000000000E+00 0. -1.
         21   -1    0    0  501  503 -0.00000000000E+00 -0.00000000000E+00 -0.49732448159E+01  0.49732448159E+01  0.00000000000E+00 0. -1.
          5    1    1    2  501    0  0.19367596389E+00  0.11238093928E+00 -0.31294159251E+01  0.56509630938E+01  0.47000000000E+01 0. -1.
         -5    1    1    2    0  502 -0.19367596389E+00 -0.11238093928E+00  0.89101006644E+01  0.10076211277E+02  0.47000000000E+01 0. -1.
<mgrwt>
<rscale>  2 0.47053310E+01</rscale>
<asrwt>0</asrwt>
<pdfrwt beam="1">  1       21 0.16544507E-02 0.47053310E+01</pdfrwt>
<pdfrwt beam="2">  1       21 0.76511459E-03 0.47053310E+01</pdfrwt>
<totfact> 0.17858375E+09</totfact>
</mgrwt>
</event>
<event>
 4    1  0.3989279E+006  0.6717273E+01  0.7546771E-02  0.2330477E+00
         21   -1    0    0  501  502  0.00000000000E+00  0.00000000000E+00  0.73563465128E+01  0.73563465128E+01  0.00000000000E+00 0. -1.
         21   -1    0    0  502  503 -0.00000000000E+00 -0.00000000000E+00 -0.79789312806E+01  0.79789312806E+01  0.00000000000E+00 0.  1.
          5    1    1    2  501    0 -0.24081749550E+01 -0.41511992990E+01  0.33760414633E+01  0.75179397574E+01  0.47000000000E+01 0. -1.
         -5    1    1    2    0  503  0.24081749550E+01  0.41511992990E+01 -0.39986262311E+01  0.78173380361E+01  0.47000000000E+01 0.  1.
<mgrwt>
<rscale>  2 0.67172734E+01</rscale>
<asrwt>0</asrwt>
<pdfrwt beam="1">  1       21 0.11317456E-02 0.67172734E+01</pdfrwt>
<pdfrwt beam="2">  1       21 0.12275279E-02 0.67172734E+01</pdfrwt>
<totfact> 0.21792211E+09</totfact>
</mgrwt>
</event>
<event>
 4    1  0.3989279E+006  0.5485783E+01  0.7546771E-02  0.2487576E+00
         21   -1    0    0  501  502  0.00000000000E+00  0.00000000000E+00  0.92728442689E+00  0.92728442689E+00  0.00000000000E+00 0.  1.
         21   -1    0    0  502  503 -0.00000000000E+00 -0.00000000000E+00 -0.70883606110E+02  0.70883606110E+02  0.00000000000E+00 0. -1.
          5    1    1    2  501    0 -0.25231462017E+01 -0.12796694156E+01 -0.85405615354E+01  0.10150616331E+02  0.47000000000E+01 0.  1.
         -5    1    1    2    0  503  0.25231462017E+01  0.12796694156E+01 -0.61415760148E+02  0.61660274206E+02  0.47000000000E+01 0. -1.
<mgrwt>
<rscale>  2 0.54857835E+01</rscale>
<asrwt>0</asrwt>
<pdfrwt beam="1">  1       21 0.14265906E-03 0.54857835E+01</pdfrwt>
<pdfrwt beam="2">  1       21 0.10905176E-01 0.54857835E+01</pdfrwt>
<totfact> 0.13016202E+09</totfact>
</mgrwt>
</event>
<event>
 4    1  0.3989279E+006  0.5114613E+01  0.7546771E-02  0.2547215E+00
         21   -1    0    0  501  502  0.00000000000E+00  0.00000000000E+00  0.13959583172E+00  0.13959583172E+00  0.00000000000E+00 0.  1.
         21   -1    0    0  502  503 -0.00000000000E+00 -0.00000000000E+00 -0.39847205749E+03  0.39847205749E+03  0.00000000000E+00 0.  1.
          5    1    1    2  501    0 -0.20007620823E+01 -0.25732825009E+00 -0.54107543667E+02  0.54348740081E+02  0.47000000000E+01 0.  1.
         -5    1    1    2    0  503  0.20007620823E+01  0.25732825009E+00 -0.34422491800E+03  0.34426291325E+03  0.47000000000E+01 0.  1.
<mgrwt>
<rscale>  2 0.51146131E+01</rscale>
<asrwt>0</asrwt>
<pdfrwt beam="1">  1       21 0.21476323E-04 0.51146131E+01</pdfrwt>
<pdfrwt beam="2">  1       21 0.61303275E-01 0.51146131E+01</pdfrwt>
<totfact> 0.87512210E+08</totfact>
</mgrwt>
</event>
<event>
 4    1  0.3989279E+006  0.3214437E+02  0.7546771E-02  0.1575527E+00
         21   -1    0    0  503  502  0.00000000000E+00  0.00000000000E+00  0.54429595542E+01  0.54429595542E+01  0.00000000000E+00 0.  1.
         21   -1    0    0  501  503 -0.00000000000E+00 -0.00000000000E+00 -0.23340640672E+03  0.23340640672E+03  0.00000000000E+00 0. -1.
          5    1    1    2  501    0  0.31372293933E+02  0.51912877315E+01 -0.16558082069E+03  0.16867207378E+03  0.47000000000E+01 0. -1.
         -5    1    1    2    0  502 -0.31372293933E+02 -0.51912877315E+01 -0.62382626475E+02  0.70177292487E+02  0.47000000000E+01 0.  1.
<mgrwt>
<rscale>  2 0.32144366E+02</rscale>
<asrwt>0</asrwt>
<pdfrwt beam="1">  1       21 0.83737855E-03 0.32144366E+02</pdfrwt>
<pdfrwt beam="2">  1       21 0.35908671E-01 0.32144366E+02</pdfrwt>
<totfact> 0.30013153E+07</totfact>
</mgrwt>
</event>
<event>
 4    1  0.3989279E+006  0.6941251E+01  0.7546771E-02  0.2306958E+00
         21   -1    0    0  503  502  0.00000000000E+00  0.00000000000E+00  0.16203671997E+03  0.16203671997E+03  0.00000000000E+00 0.  1.
         21   -1    0    0  501  503 -0.00000000000E+00 -0.00000000000E+00 -0.40048073418E+00  0.40048073418E+00  0.00000000000E+00 0.  1.
          5    1    1    2  501    0 -0.51027244824E+01  0.23056826827E+00  0.39601979750E+02  0.40205693117E+02  0.47000000000E+01 0.  1.
         -5    1    1    2    0  502  0.51027244824E+01 -0.23056826827E+00  0.12203425948E+03  0.12223150759E+03  0.47000000000E+01 0.  1.
<mgrwt>
<rscale>  2 0.69412505E+01</rscale>
<asrwt>0</asrwt>
<pdfrwt beam="1">  1       21 0.24928674E-01 0.69412505E+01</pdfrwt>
<pdfrwt beam="2">  1       21 0.61612550E-04 0.69412505E+01</pdfrwt>
<totfact> 0.12939841E+09</totfact>
</mgrwt>
</event>
<event>
 4    1  0.3989279E+006  0.5253713E+01  0.7546771E-02  0.2524022E+00
         21   -1    0    0  501  502  0.00000000000E+00  0.00000000000E+00  0.48181107604E+02  0.48181107604E+02  0.00000000000E+00 0. -1.
         21   -1    0    0  502  503 -0.00000000000E+00 -0.00000000000E+00 -0.70157992823E+00  0.70157992823E+00  0.00000000000E+00 0. -1.
          5    1    1    2  501    0  0.21709472283E+01  0.89358395995E+00  0.34208464190E+02  0.34609543863E+02  0.47000000000E+01 0. -1.
         -5    1    1    2    0  503 -0.21709472283E+01 -0.89358395995E+00  0.13271063486E+02  0.14273143669E+02  0.47000000000E+01 0. -1.
<mgrwt>
<rscale>  2 0.52537134E+01</rscale>
<asrwt>0</asrwt>
<pdfrwt beam="1">  1       21 0.74124755E-02 0.52537134E+01</pdfrwt>
<pdfrwt beam="2">  1       21 0.10793541E-03 0.52537134E+01</pdfrwt>
<totfact> 0.32585091E+09</totfact>
</mgrwt>
</event>
<event>
 4    1  0.3989279E+006  0.5295099E+01  0.7546771E-02  0.2517323E+00
         21   -1    0    0  503  502  0.00000000000E+00  0.00000000000E+00  0.58454593142E+03  0.58454593142E+03  0.00000000000E+00 0. -1.
         21   -1    0    0  501  503 -0.00000000000E+00 -0.00000000000E+00 -0.48684331499E-01  0.48684331499E-01  0.00000000000E+00 0. -1.
          5    1    1    2  501    0 -0.16892085542E+01 -0.17591614425E+01  0.32776468676E+03  0.32780745563E+03  0.47000000000E+01 0. -1.
         -5    1    1    2    0  502  0.16892085542E+01  0.17591614425E+01  0.25673256033E+03  0.25678716013E+03  0.47000000000E+01 0. -1.
<mgrwt>
<rscale>  2 0.52950991E+01</rscale>
<asrwt>0</asrwt>
<pdfrwt beam="1">  1       21 0.89924523E-01 0.52950991E+01</pdfrwt>
<pdfrwt beam="2">  1       21 0.74903653E-05 0.52950991E+01</pdfrwt>
<totfact> 0.17568644E+09</totfact>
</mgrwt>
</event>
<event>
 4    1  0.3989279E+006  0.1502701E+02  0.7546771E-02  0.1867245E+00
         21   -1    0    0  503  502  0.00000000000E+00  0.00000000000E+00  0.13150571639E+02  0.13150571639E+02  0.00000000000E+00 0. -1.
         21   -1    0    0  501  503 -0.00000000000E+00 -0.00000000000E+00 -0.51312187130E+02  0.51312187130E+02  0.00000000000E+00 0.  1.
          5    1    1    2  501    0 -0.14143330457E+02  0.19201988737E+01 -0.45371785120E+02  0.47795500260E+02  0.47000000000E+01 0.  1.
         -5    1    1    2    0  502  0.14143330457E+02 -0.19201988737E+01  0.72101696291E+01  0.16667258509E+02  0.47000000000E+01 0. -1.
<mgrwt>
<rscale>  2 0.15027008E+02</rscale>
<asrwt>0</asrwt>
<pdfrwt beam="1">  1       21 0.20231648E-02 0.15027008E+02</pdfrwt>
<pdfrwt beam="2">  1       21 0.78941828E-02 0.15027008E+02</pdfrwt>
<totfact> 0.88229918E+07</totfact>
</mgrwt>
</event>
<event>
 4    1  0.3989279E+006  0.6946527E+01  0.7546771E-02  0.2306419E+00
         21   -1    0    0  503  502  0.00000000000E+00  0.00000000000E+00  0.57306066243E+02  0.57306066243E+02  0.00000000000E+00 0.  1.
         21   -1    0    0  501  503 -0.00000000000E+00 -0.00000000000E+00 -0.11737891929E+01  0.11737891929E+01  0.00000000000E+00 0. -1.
          5    1    1    2  501    0 -0.44935245603E+01 -0.24438651748E+01  0.12521399395E+02  0.14319206779E+02  0.47000000000E+01 0. -1.
         -5    1    1    2    0  502  0.44935245603E+01  0.24438651748E+01  0.43610877655E+02  0.44160648657E+02  0.47000000000E+01 0.  1.
<mgrwt>
<rscale>  2 0.69465272E+01</rscale>
<asrwt>0</asrwt>
<pdfrwt beam="1">  1       21 0.88163157E-02 0.69465272E+01</pdfrwt>
<pdfrwt beam="2">  1       21 0.18058300E-03 0.69465272E+01</pdfrwt>
<totfact> 0.15822035E+09</totfact>
</mgrwt>
</event>
<event>
 4    1  0.3989279E+006  0.5112792E+01  0.7546771E-02  0.2547525E+00
         21   -1    0    0  501  502  0.00000000000E+00  0.00000000000E+00  0.11130873406E+01  0.11130873406E+01  0.00000000000E+00 0. -1.
         21   -1    0    0  502  503 -0.00000000000E+00 -0.00000000000E+00 -0.24893347950E+02  0.24893347950E+02  0.00000000000E+00 0. -1.
          5    1    1    2  501    0  0.95092312079E+00  0.17738060989E+01 -0.87970320974E+01  0.10174891478E+02  0.47000000000E+01 0. -1.
         -5    1    1    2    0  503 -0.95092312079E+00 -0.17738060989E+01 -0.14983228512E+02  0.15831543813E+02  0.47000000000E+01 0. -1.
<mgrwt>
<rscale>  2 0.51127921E+01</rscale>
<asrwt>0</asrwt>
<pdfrwt beam="1">  1       21 0.17124419E-03 0.51127921E+01</pdfrwt>
<pdfrwt beam="2">  1       21 0.38297463E-02 0.51127921E+01</pdfrwt>
<totfact> 0.45147363E+09</totfact>
</mgrwt>
</event>
<event>
 4    1  0.3989279E+006  0.4833172E+01  0.7546771E-02  0.2597628E+00
         21   -1    0    0  501  502  0.00000000000E+00  0.00000000000E+00  0.15956122638E+00  0.15956122638E+00  0.00000000000E+00 0. -1.
         21   -1    0    0  502  503 -0.00000000000E+00 -0.00000000000E+00 -0.15244620378E+03  0.15244620378E+03  0.00000000000E+00 0. -1.
          5    1    1    2  501    0 -0.11163277383E+01  0.15284707609E+00 -0.60945822347E+02  0.61137163914E+02  0.47000000000E+01 0. -1.
         -5    1    1    2    0  503  0.11163277383E+01 -0.15284707609E+00 -0.91340820202E+02  0.91468601088E+02  0.47000000000E+01 0. -1.
<mgrwt>
<rscale>  2 0.48331718E+01</rscale>
<asrwt>0</asrwt>
<pdfrwt beam="1">  1       21 0.24547845E-04 0.48331718E+01</pdfrwt>
<pdfrwt beam="2">  1       21 0.23453296E-01 0.48331718E+01</pdfrwt>
<totfact> 0.36112819E+09</totfact>
</mgrwt>
</event>
<event>
 4    1  0.3989279E+006  0.9823075E+01  0.7546771E-02  0.2085199E+00
         21   -1    0    0  503  502  0.00000000000E+00  0.00000000000E+00  0.44132449797E+03  0.44132449797E+03  0.00000000000E+00 0.  1.
         21   -1    0    0  501  503 -0.00000000000E+00 -0.00000000000E+00 -0.22066320297E+00  0.22066320297E+00  0.00000000000E+00 0. -1.
          5    1    1    2  501    0 -0.84765698320E+01  0.15970477739E+01  0.24167260881E+03  0.24187216178E+03  0.47000000000E+01 0.  1.
         -5    1    1    2    0  502  0.84765698320E+01 -0.15970477739E+01  0.19943122596E+03  0.19967299939E+03  0.47000000000E+01 0. -1.
<mgrwt>
<rscale>  2 0.98230748E+01</rscale>
<asrwt>0</asrwt>
<pdfrwt beam="1">  1       21 0.67895370E-01 0.98230748E+01</pdfrwt>
<pdfrwt beam="2">  1       21 0.33948538E-04 0.98230748E+01</pdfrwt>
<totfact> 0.58959849E+08</totfact>
</mgrwt>
</event>
<event>
 4    1  0.3989279E+006  0.6575869E+01  0.7546771E-02  0.2346002E+00
         21   -1    0    0  503  502  0.00000000000E+00  0.00000000000E+00  0.26361680317E+02  0.26361680317E+02  0.00000000000E+00 0.  1.
         21   -1    0    0  501  503 -0.00000000000E+00 -0.00000000000E+00 -0.91283919164E+01  0.91283919164E+01  0.00000000000E+00 0.  1.
          5    1    1    2  501    0  0.37597154543E+01  0.26488842688E+01 -0.74551458223E+01  0.99408876564E+01  0.47000000000E+01 0.  1.
         -5    1    1    2    0  502 -0.37597154543E+01 -0.26488842688E+01  0.24688434223E+02  0.25549184577E+02  0.47000000000E+01 0.  1.
<mgrwt>
<rscale>  2 0.65758686E+01</rscale>
<asrwt>0</asrwt>
<pdfrwt beam="1">  1       21 0.40556431E-02 0.65758686E+01</pdfrwt>
<pdfrwt beam="2">  1       21 0.14043680E-02 0.65758686E+01</pdfrwt>
<totfact> 0.27822963E+08</totfact>
</mgrwt>
</event>
<event>
 4    1  0.3989279E+006  0.8547686E+01  0.7546771E-02  0.2168478E+00
         21   -1    0    0  503  502  0.00000000000E+00  0.00000000000E+00  0.54087549446E+01  0.54087549446E+01  0.00000000000E+00 0. -1.
         21   -1    0    0  501  503 -0.00000000000E+00 -0.00000000000E+00 -0.14424025115E+02  0.14424025115E+02  0.00000000000E+00 0.  1.
          5    1    1    2  501    0  0.57921435701E+01  0.41742070317E+01 -0.70062517531E+01  0.11052171511E+02  0.47000000000E+01 0.  1.
         -5    1    1    2    0  502 -0.57921435701E+01 -0.41742070317E+01 -0.20090184172E+01  0.87806085485E+01  0.47000000000E+01 0. -1.
<mgrwt>
<rscale>  2 0.85476857E+01</rscale>
<asrwt>0</asrwt>
<pdfrwt beam="1">  1       21 0.83211615E-03 0.85476857E+01</pdfrwt>
<pdfrwt beam="2">  1       21 0.22190808E-02 0.85476857E+01</pdfrwt>
<totfact> 0.17118726E+09</totfact>
</mgrwt>
</event>
<event>
 4    1  0.3989279E+006  0.5968470E+01  0.7546771E-02  0.2419545E+00
         21   -1    0    0  503  502  0.00000000000E+00  0.00000000000E+00  0.11792350993E+01  0.11792350993E+01  0.00000000000E+00 0. -1.
         21   -1    0    0  501  503 -0.00000000000E+00 -0.00000000000E+00 -0.33534821867E+02  0.33534821867E+02  0.00000000000E+00 0. -1.
          5    1    1    2  501    0  0.12863341717E+01  0.34464448685E+01 -0.21644494415E+02  0.22452322292E+02  0.47000000000E+01 0. -1.
         -5    1    1    2    0  502 -0.12863341717E+01 -0.34464448685E+01 -0.10711092353E+02  0.12261734675E+02  0.47000000000E+01 0. -1.
<mgrwt>
<rscale>  2 0.59684703E+01</rscale>
<asrwt>0</asrwt>
<pdfrwt beam="1">  1       21 0.18142078E-03 0.59684703E+01</pdfrwt>
<pdfrwt beam="2">  1       21 0.51592034E-02 0.59684703E+01</pdfrwt>
<totfact> 0.31239880E+09</totfact>
</mgrwt>
</event>
<event>
 4    1  0.3989279E+006  0.7613873E+01  0.7546771E-02  0.2243223E+00
         21   -1    0    0  501  502  0.00000000000E+00  0.00000000000E+00  0.43035276291E+02  0.43035276291E+02  0.00000000000E+00 0.  1.
         21   -1    0    0  502  503 -0.00000000000E+00 -0.00000000000E+00 -0.17690720935E+01  0.17690720935E+01  0.00000000000E+00 0.  1.
          5    1    1    2  501    0  0.59104408733E+01  0.97352693423E+00  0.31574687390E+02  0.32479715974E+02  0.47000000000E+01 0.  1.
         -5    1    1    2    0  503 -0.59104408733E+01 -0.97352693423E+00  0.96915168075E+01  0.12324632410E+02  0.47000000000E+01 0.  1.
<mgrwt>
<rscale>  2 0.76138733E+01</rscale>
<asrwt>0</asrwt>
<pdfrwt beam="1">  1       21 0.66208109E-02 0.76138733E+01</pdfrwt>
<pdfrwt beam="2">  1       21 0.27216497E-03 0.76138733E+01</pdfrwt>
<totfact> 0.14896656E+09</totfact>
</mgrwt>
</event>
<event>
 4    1  0.3989279E+006  0.5651122E+01  0.7546771E-02  0.2463170E+00
         21   -1    0    0  501  502  0.00000000000E+00  0.00000000000E+00  0.17860946128E+00  0.17860946128E+00  0.00000000000E+00 0. -1.
         21   -1    0    0  502  503 -0.00000000000E+00 -0.00000000000E+00 -0.20692354257E+03  0.20692354257E+03  0.00000000000E+00 0. -1.
          5    1    1    2  501    0 -0.15395440063E+01 -0.27340419320E+01 -0.65196247180E+02  0.65440704667E+02  0.47000000000E+01 0. -1.
         -5    1    1    2    0  503  0.15395440063E+01  0.27340419320E+01 -0.14154868593E+03  0.14166144736E+03  0.47000000000E+01 0. -1.
<mgrwt>
<rscale>  2 0.56511221E+01</rscale>
<asrwt>0</asrwt>
<pdfrwt beam="1">  1       21 0.27478344E-04 0.56511221E+01</pdfrwt>
<pdfrwt beam="2">  1       21 0.31834431E-01 0.56511221E+01</pdfrwt>
<totfact> 0.21642459E+09</totfact>
</mgrwt>
</event>
<event>
 4    1  0.3989279E+006  0.6611185E+01  0.7546771E-02  0.2342073E+00
         21   -1    0    0  503  502  0.00000000000E+00  0.00000000000E+00  0.69014694911E+00  0.69014694911E+00  0.00000000000E+00 0. -1.
         21   -1    0    0  501  503 -0.00000000000E+00 -0.00000000000E+00 -0.84065917309E+02  0.84065917309E+02  0.00000000000E+00 0. -1.
          5    1    1    2  501    0  0.38796901172E+01 -0.25623752338E+01 -0.62734437486E+02  0.63081831052E+02  0.47000000000E+01 0. -1.
         -5    1    1    2    0  502 -0.38796901172E+01  0.25623752338E+01 -0.20641332874E+02  0.21674233206E+02  0.47000000000E+01 0. -1.
<mgrwt>
<rscale>  2 0.66111846E+01</rscale>
<asrwt>0</asrwt>
<pdfrwt beam="1">  1       21 0.10617647E-03 0.66111846E+01</pdfrwt>
<pdfrwt beam="2">  1       21 0.12933216E-01 0.66111846E+01</pdfrwt>
<totfact> 0.17304817E+09</totfact>
</mgrwt>
</event>
<event>
 4    1  0.3989279E+006  0.5951183E+01  0.7546771E-02  0.2421821E+00
         21   -1    0    0  503  502  0.00000000000E+00  0.00000000000E+00  0.23447068220E+01  0.23447068220E+01  0.00000000000E+00 0. -1.
         21   -1    0    0  501  503 -0.00000000000E+00 -0.00000000000E+00 -0.15123822321E+02  0.15123822321E+02  0.00000000000E+00 0. -1.
          5    1    1    2  501    0 -0.21706901808E+01 -0.29350774013E+01 -0.60806573583E+01  0.85082882604E+01  0.47000000000E+01 0. -1.
         -5    1    1    2    0  502  0.21706901808E+01  0.29350774013E+01 -0.66984581410E+01  0.89602408829E+01  0.47000000000E+01 0. -1.
<mgrwt>
<rscale>  2 0.59511827E+01</rscale>
<asrwt>0</asrwt>
<pdfrwt beam="1">  1       21 0.36072414E-03 0.59511827E+01</pdfrwt>
<pdfrwt beam="2">  1       21 0.23267418E-02 0.59511827E+01</pdfrwt>
<totfact> 0.38961769E+09</totfact>
</mgrwt>
</event>
<event>
 4    1  0.3989279E+006  0.6252813E+01  0.7546771E-02  0.2383637E+00
         21   -1    0    0  503  502  0.00000000000E+00  0.00000000000E+00  0.28367744026E+02  0.28367744026E+02  0.00000000000E+00 0.  1.
         21   -1    0    0  501  503 -0.00000000000E+00 -0.00000000000E+00 -0.45625724214E+01  0.45625724214E+01  0.00000000000E+00 0.  1.
          5    1    1    2  501    0 -0.24136522639E+01 -0.33439434937E+01 -0.18527103075E+01  0.65215190580E+01  0.47000000000E+01 0.  1.
         -5    1    1    2    0  502  0.24136522639E+01  0.33439434937E+01  0.25657881912E+02  0.26408797389E+02  0.47000000000E+01 0.  1.
<mgrwt>
<rscale>  2 0.62528134E+01</rscale>
<asrwt>0</asrwt>
<pdfrwt beam="1">  1       21 0.43642682E-02 0.62528134E+01</pdfrwt>
<pdfrwt beam="2">  1       21 0.70193423E-03 0.62528134E+01</pdfrwt>
<totfact> 0.64256113E+08</totfact>
</mgrwt>
</event>
<event>
 4    1  0.3989279E+006  0.9834622E+01  0.7546771E-02  0.2084523E+00
         21   -1    0    0  503  502  0.00000000000E+00  0.00000000000E+00  0.23668167298E+02  0.23668167298E+02  0.00000000000E+00 0.  1.
         21   -1    0    0  501  503 -0.00000000000E+00 -0.00000000000E+00 -0.59966740216E+01  0.59966740216E+01  0.00000000000E+00 0. -1.
          5    1    1    2  501    0 -0.34405543851E+01  0.79241644803E+01  0.46442382060E+00  0.98455820891E+01  0.47000000000E+01 0. -1.
         -5    1    1    2    0  502  0.34405543851E+01 -0.79241644803E+01  0.17207069455E+02  0.19819259230E+02  0.47000000000E+01 0.  1.
<mgrwt>
<rscale>  2 0.98346224E+01</rscale>
<asrwt>0</asrwt>
<pdfrwt beam="1">  1       21 0.36412565E-02 0.98346224E+01</pdfrwt>
<pdfrwt beam="2">  1       21 0.92256524E-03 0.98346224E+01</pdfrwt>
<totfact> 0.77019430E+08</totfact>
</mgrwt>
</event>
<event>
 4    1  0.3989279E+006  0.5549485E+01  0.7546771E-02  0.2478027E+00
         21   -1    0    0  503  502  0.00000000000E+00  0.00000000000E+00  0.96848443678E+03  0.96848443678E+03  0.00000000000E+00 0.  1.
         21   -1    0    0  501  503 -0.00000000000E+00 -0.00000000000E+00 -0.52368494685E-01  0.52368494685E-01  0.00000000000E+00 0. -1.
          5    1    1    2  501    0 -0.25505502848E+01  0.14837357148E+01  0.18071265299E+03  0.18079784216E+03  0.47000000000E+01 0. -1.
         -5    1    1    2    0  502  0.25505502848E+01 -0.14837357148E+01  0.78771941529E+03  0.78773896311E+03  0.47000000000E+01 0.  1.
<mgrwt>
<rscale>  2 0.55494845E+01</rscale>
<asrwt>0</asrwt>
<pdfrwt beam="1">  1       21 0.14898326E+00 0.55494845E+01</pdfrwt>
<pdfrwt beam="2">  1       21 0.80574671E-05 0.55494845E+01</pdfrwt>
<totfact> 0.58397059E+08</totfact>
</mgrwt>
</event>
<event>
 4    1  0.3989279E+006  0.6022971E+01  0.7546771E-02  0.2412443E+00
         21   -1    0    0  503  502  0.00000000000E+00  0.00000000000E+00  0.48028072294E+01  0.48028072294E+01  0.00000000000E+00 0. -1.
         21   -1    0    0  501  503 -0.00000000000E+00 -0.00000000000E+00 -0.19889857342E+02  0.19889857342E+02  0.00000000000E+00 0. -1.
          5    1    1    2  501    0 -0.12676323902E+00 -0.37643207187E+01 -0.17267017615E+02  0.18287320107E+02  0.47000000000E+01 0. -1.
         -5    1    1    2    0  502  0.12676323902E+00  0.37643207187E+01  0.21799675024E+01  0.64053444641E+01  0.47000000000E+01 0. -1.
<mgrwt>
<rscale>  2 0.60229710E+01</rscale>
<asrwt>0</asrwt>
<pdfrwt beam="1">  1       21 0.73889343E-03 0.60229710E+01</pdfrwt>
<pdfrwt beam="2">  1       21 0.30599780E-02 0.60229710E+01</pdfrwt>
<totfact> 0.97707756E+08</totfact>
</mgrwt>
</event>
<event>
 4    1  0.3989279E+006  0.6381670E+01  0.7546771E-02  0.2368247E+00
         21   -1    0    0  503  502  0.00000000000E+00  0.00000000000E+00  0.29043842456E+02  0.29043842456E+02  0.00000000000E+00 0.  1.
         21   -1    0    0  501  503 -0.00000000000E+00 -0.00000000000E+00 -0.65508525516E+01  0.65508525516E+01  0.00000000000E+00 0.  1.
          5    1    1    2  501    0 -0.72967274669E+00 -0.42547967069E+01 -0.45315256849E+01  0.78269050312E+01  0.47000000000E+01 0.  1.
         -5    1    1    2    0  502  0.72967274669E+00  0.42547967069E+01  0.27024515589E+02  0.27767789976E+02  0.47000000000E+01 0.  1.
<mgrwt>
<rscale>  2 0.63816704E+01</rscale>
<asrwt>0</asrwt>
<pdfrwt beam="1">  1       21 0.44682834E-02 0.63816704E+01</pdfrwt>
<pdfrwt beam="2">  1       21 0.10078235E-02 0.63816704E+01</pdfrwt>
<totfact> 0.37839991E+08</totfact>
</mgrwt>
</event>
<event>
 4    1  0.3989279E+006  0.5601116E+01  0.7546771E-02  0.2470423E+00
         21   -1    0    0  501  502  0.00000000000E+00  0.00000000000E+00  0.16110497056E+02  0.16110497056E+02  0.00000000000E+00 0. -1.
         21   -1    0    0  502  503 -0.00000000000E+00 -0.00000000000E+00 -0.19880113990E+01  0.19880113990E+01  0.00000000000E+00 0. -1.
          5    1    1    2  501    0  0.54966069508E+00 -0.29967267241E+01  0.57667882590E+01  0.80391756271E+01  0.47000000000E+01 0. -1.
         -5    1    1    2    0  503 -0.54966069508E+00  0.29967267241E+01  0.83556973983E+01  0.10059332828E+02  0.47000000000E+01 0. -1.
<mgrwt>
<rscale>  2 0.56011158E+01</rscale>
<asrwt>0</asrwt>
<pdfrwt beam="1">  1       21 0.24785379E-02 0.56011158E+01</pdfrwt>
<pdfrwt beam="2">  1       21 0.30584792E-03 0.56011158E+01</pdfrwt>
<totfact> 0.42196886E+09</totfact>
</mgrwt>
</event>
<event>
 4    1  0.3989279E+006  0.4790934E+01  0.7546771E-02  0.2605634E+00
         21   -1    0    0  501  502  0.00000000000E+00  0.00000000000E+00  0.87484462529E+03  0.87484462529E+03  0.00000000000E+00 0. -1.
         21   -1    0    0  502  503 -0.00000000000E+00 -0.00000000000E+00 -0.70897016513E-01  0.70897016513E-01  0.00000000000E+00 0. -1.
          5    1    1    2  501    0  0.75174979954E+00  0.54582507238E+00  0.78458945013E+03  0.78460407742E+03  0.47000000000E+01 0. -1.
         -5    1    1    2    0  503 -0.75174979954E+00 -0.54582507238E+00  0.90184278146E+02  0.90311444887E+02  0.47000000000E+01 0. -1.
<mgrwt>
<rscale>  2 0.47909344E+01</rscale>
<asrwt>0</asrwt>
<pdfrwt beam="1">  1       21 0.13458284E+00 0.47909344E+01</pdfrwt>
<pdfrwt beam="2">  1       21 0.10907934E-04 0.47909344E+01</pdfrwt>
<totfact> 0.43569568E+08</totfact>
</mgrwt>
</event>
<event>
 4    1  0.3989279E+006  0.8082019E+01  0.7546771E-02  0.2204013E+00
         21   -1    0    0  501  502  0.00000000000E+00  0.00000000000E+00  0.19130898776E+02  0.19130898776E+02  0.00000000000E+00 0.  1.
         21   -1    0    0  502  503 -0.00000000000E+00 -0.00000000000E+00 -0.67534475039E+01  0.67534475039E+01  0.00000000000E+00 0. -1.
          5    1    1    2  501    0  0.38469563926E+01  0.53319752328E+01  0.15289133653E+02  0.17293832462E+02  0.47000000000E+01 0.  1.
         -5    1    1    2    0  503 -0.38469563926E+01 -0.53319752328E+01 -0.29116823806E+01  0.85905138179E+01  0.47000000000E+01 0. -1.
<mgrwt>
<rscale>  2 0.80820191E+01</rscale>
<asrwt>0</asrwt>
<pdfrwt beam="1">  1       21 0.29432152E-02 0.80820191E+01</pdfrwt>
<pdfrwt beam="2">  1       21 0.10389919E-02 0.80820191E+01</pdfrwt>
<totfact> 0.79073264E+08</totfact>
</mgrwt>
</event>
<event>
 4    1  0.3989279E+006  0.7254358E+01  0.7546771E-02  0.2276090E+00
         21   -1    0    0  503  502  0.00000000000E+00  0.00000000000E+00  0.50390100783E+03  0.50390100783E+03  0.00000000000E+00 0. -1.
         21   -1    0    0  501  503 -0.00000000000E+00 -0.00000000000E+00 -0.13335102701E+00  0.13335102701E+00  0.00000000000E+00 0.  1.
          5    1    1    2  501    0 -0.49705711952E+01  0.24143601706E+01  0.13453218274E+03  0.13472762859E+03  0.47000000000E+01 0.  1.
         -5    1    1    2    0  502  0.49705711952E+01 -0.24143601706E+01  0.36923547406E+03  0.36930673027E+03  0.47000000000E+01 0.  1.
<mgrwt>
<rscale>  2 0.72543582E+01</rscale>
<asrwt>0</asrwt>
<pdfrwt beam="1">  1       21 0.77521708E-01 0.72543582E+01</pdfrwt>
<pdfrwt beam="2">  1       21 0.20515946E-04 0.72543582E+01</pdfrwt>
<totfact> 0.76093062E+08</totfact>
</mgrwt>
</event>
<event>
 4    1  0.3989279E+006  0.5648081E+01  0.7546771E-02  0.2463608E+00
         21   -1    0    0  501  502  0.00000000000E+00  0.00000000000E+00  0.10152520953E+01  0.10152520953E+01  0.00000000000E+00 0. -1.
         21   -1    0    0  502  503 -0.00000000000E+00 -0.00000000000E+00 -0.60489096552E+02  0.60489096552E+02  0.00000000000E+00 0.  1.
          5    1    1    2  501    0  0.30398453042E+01  0.75509044309E+00 -0.84191768020E+01  0.10138212815E+02  0.47000000000E+01 0. -1.
         -5    1    1    2    0  503 -0.30398453042E+01 -0.75509044309E+00 -0.51054667655E+02  0.51366135833E+02  0.47000000000E+01 0.  1.
<mgrwt>
<rscale>  2 0.56480812E+01</rscale>
<asrwt>0</asrwt>
<pdfrwt beam="1">  1       21 0.15619255E-03 0.56480812E+01</pdfrwt>
<pdfrwt beam="2">  1       21 0.93060195E-02 0.56480812E+01</pdfrwt>
<totfact> 0.15044687E+09</totfact>
</mgrwt>
</event>
<event>
 4    1  0.3989279E+006  0.4780367E+01  0.7546771E-02  0.2607656E+00
         21   -1    0    0  503  502  0.00000000000E+00  0.00000000000E+00  0.15167538244E+04  0.15167538244E+04  0.00000000000E+00 0.  1.
         21   -1    0    0  501  503 -0.00000000000E+00 -0.00000000000E+00 -0.17306964635E-01  0.17306964635E-01  0.00000000000E+00 0.  1.
          5    1    1    2  501    0  0.85294760126E+00 -0.18543511462E+00  0.10312444406E+04  0.10312555203E+04  0.47000000000E+01 0. -1.
         -5    1    1    2    0  502 -0.85294760126E+00  0.18543511462E+00  0.48549207684E+03  0.48551561105E+03  0.47000000000E+01 0. -1.
<mgrwt>
<rscale>  2 0.47803667E+01</rscale>
<asrwt>0</asrwt>
<pdfrwt beam="1">  1       21 0.23324033E+00 0.47803667E+01</pdfrwt>
<pdfrwt beam="2">  1       21 0.26638248E-05 0.47803667E+01</pdfrwt>
<totfact> 0.89830604E+08</totfact>
</mgrwt>
</event>
<event>
 4    1  0.3989279E+006  0.1483544E+02  0.7546771E-02  0.1873132E+00
         21   -1    0    0  503  502  0.00000000000E+00  0.00000000000E+00  0.15486772932E+00  0.15486772932E+00  0.00000000000E+00 0.  1.
         21   -1    0    0  501  503 -0.00000000000E+00 -0.00000000000E+00 -0.15448864289E+04  0.15448864289E+04  0.00000000000E+00 0. -1.
          5    1    1    2  501    0 -0.14065856723E+02 -0.38992570943E+00 -0.99099567356E+03  0.99110671240E+03  0.47000000000E+01 0. -1.
         -5    1    1    2    0  502  0.14065856723E+02  0.38992570943E+00 -0.55373588763E+03  0.55393458424E+03  0.47000000000E+01 0.  1.
<mgrwt>
<rscale>  2 0.14835443E+02</rscale>
<asrwt>0</asrwt>
<pdfrwt beam="1">  1       21 0.23826180E-04 0.14835443E+02</pdfrwt>
<pdfrwt beam="2">  1       21 0.23767109E+00 0.14835443E+02</pdfrwt>
<totfact> 0.68412320E+07</totfact>
</mgrwt>
</event>
<event>
 4    1  0.3989279E+006  0.1374518E+02  0.7546771E-02  0.1908963E+00
         21   -1    0    0  503  502  0.00000000000E+00  0.00000000000E+00  0.24369045022E+02  0.24369045022E+02  0.00000000000E+00 0. -1.
         21   -1    0    0  501  503 -0.00000000000E+00 -0.00000000000E+00 -0.26325560729E+02  0.26325560729E+02  0.00000000000E+00 0.  1.
          5    1    1    2  501    0 -0.88935425055E+01  0.93672271479E+01 -0.22268487714E+02  0.26168981405E+02  0.47000000000E+01 0.  1.
         -5    1    1    2    0  502  0.88935425055E+01 -0.93672271479E+01  0.20311972007E+02  0.24525624345E+02  0.47000000000E+01 0. -1.
<mgrwt>
<rscale>  2 0.13745183E+02</rscale>
<asrwt>0</asrwt>
<pdfrwt beam="1">  1       21 0.37490839E-02 0.13745183E+02</pdfrwt>
<pdfrwt beam="2">  1       21 0.40500863E-02 0.13745183E+02</pdfrwt>
<totfact> 0.95204098E+07</totfact>
</mgrwt>
</event>
